INSANE! Membrane UpperLeaflet>loPI:POPI:DPPI:PYPI:ERGO=80.0:5.0:3.0:2.0:10.0 LowerLeaflet>loPI:POPI:DPPI:PYPI:ERGO=80.0:5.0:3.0:2.0:10.0
49019
    1loPI    C1    1   9.238   1.099  10.531  0.1185  0.0864  0.0805
    1loPI    C2    2   9.500   0.801  10.485 -0.2285 -0.2144  0.0075
    1loPI    C3    3   9.262   0.810  10.806 -0.1689  0.0270  0.0467
    1loPI   PO4    4   9.117   1.108  10.291 -0.0387  0.3456 -0.0702
    1loPI   GL1    5   9.096   1.160   9.762  0.2956  0.1841  0.1846
    1loPI   GL2    6   9.113   0.836   9.858  0.0887 -0.2241  0.0559
    1loPI   C1A    7   9.162   1.163   9.383 -0.2910 -0.2239  0.2139
    1loPI   C2A    8   9.183   1.023   8.903  0.2930  0.5186 -0.0006
    1loPI   C3A    9   9.165   1.112   8.384 -0.0433 -0.0003 -0.1565
    1loPI   C4A   10   8.852   1.282   8.279  0.1141  0.0454  0.3713
    1loPI   C5A   11   8.566   1.501   8.226 -0.1020  0.0983  0.4061
    1loPI   C6A   12   8.253   1.957   8.361 -0.0017  0.1303 -0.0234
    1loPI   C1B   13   9.425   0.787   9.576 -0.0677 -0.0815  0.1465
    1loPI   C2B   14   9.573   0.765   9.129 -0.1745  0.3239 -0.0824
    1loPI   C3B   15   9.601   0.542   8.685 -0.2395 -0.2306  0.0609
    1loPI   C4B   16   9.726   0.403   8.327 -0.0167 -0.0532 -0.0422
    2loPI    C1   17  16.632   1.923  10.661 -0.0840 -0.1886 -0.1477
    2loPI    C2   18  16.392   1.716  10.905 -0.2020  0.2132  0.0870
    2loPI    C3   19  16.322   2.104  10.838  0.3015  0.3037  0.0488
    2loPI   PO4   20  16.629   1.762  10.390 -0.2892  0.4372  0.0541
    2loPI   GL1   21  16.418   1.887  10.043 -0.0630 -0.1871 -0.1599
    2loPI   GL2   22  16.346   1.672   9.855  0.0332 -0.0129 -0.1193
    2loPI   C1A   23  16.625   2.104   9.569  0.3158  0.1345  0.1023
    2loPI   C2A   24  16.616   1.950   9.197  0.0416 -0.2603 -0.2964
    2loPI   C3A   25  16.788   1.690   8.875  0.0527  0.0913  0.0648
    2loPI   C4A   26  16.655   1.630   8.411 -0.0194  0.1891 -0.3009
    2loPI   C5A   27  16.296   1.654   8.313 -0.0030 -0.1922 -0.2112
    2loPI   C6A   28  16.048   1.653   7.875 -0.0551 -0.0687  0.0433
    2loPI   C1B   29  16.553   1.558   9.504  0.0507  0.1593  0.3829
    2loPI   C2B   30  16.688   1.305   9.173 -0.3856 -0.2110  0.1621
    2loPI   C3B   31  16.693   1.029   8.786 -0.0939  0.0656 -0.0783
    2loPI   C4B   32  16.599   1.147   8.404 -0.0811  0.1326 -0.1393
    3loPI    C1   33   9.660   4.942  10.530  0.0222 -0.0354  0.0326
    3loPI    C2   34   9.564   4.930  10.919  0.0916 -0.0317  0.0499
    3loPI    C3   35   9.302   4.804  10.644  0.0448 -0.0400  0.0983
    3loPI   PO4   36   9.945   5.037  10.354 -0.1900 -0.1210 -0.0370
    3loPI   GL1   37   9.988   4.881   9.925 -0.1011 -0.0311 -0.0563
    3loPI   GL2   38   9.833   4.616   9.854  0.2214  0.1453  0.0574
    3loPI   C1A   39  10.257   4.907   9.512 -0.1371  0.0384  0.1811
    3loPI   C2A   40  10.218   4.809   9.200  0.2917 -0.0224 -0.0363
    3loPI   C3A   41  10.256   4.664   8.790  0.0986  0.0047  0.0345
    3loPI   C4A   42  10.228   4.599   8.337  0.0120  0.0120 -0.0964
    3loPI   C5A   43   9.935   4.698   7.994  0.2178  0.0175 -0.4289
    3loPI   C6A   44   9.795   4.783   7.594  0.2492 -0.3091 -0.0776
    3loPI   C1B   45   9.814   4.738   9.461  0.0439 -0.1775 -0.1697
    3loPI   C2B   46   9.763   4.780   8.935  0.0798  0.1329 -0.0260
    3loPI   C3B   47   9.773   4.790   8.471  0.0282 -0.3049  0.0525
    3loPI   C4B   48   9.545   4.948   8.152  0.1553  0.1421  0.2413
    4loPI    C1   49   2.381  14.314  10.187  0.0062 -0.1288 -0.0811
    4loPI    C2   50   2.259  14.001   9.971 -0.1954 -0.0424 -0.0942
    4loPI    C3   51   2.121  14.054  10.343  0.0002 -0.0834 -0.0147
    4loPI   PO4   52   2.353  14.496  10.020 -0.2542  0.1079 -0.0799
    4loPI   GL1   53   2.545  14.346   9.659 -0.0557  0.0524 -0.4264
    4loPI   GL2   54   2.630  14.104   9.533 -0.0161 -0.0896  0.1045
    4loPI   C1A   55   2.392  14.567   9.335  0.1767  0.2114 -0.0168
    4loPI   C2A   56   2.334  14.617   8.978  0.2882  0.2024  0.1671
    4loPI   C3A   57   2.335  14.565   8.491 -0.3419 -0.0913  0.0086
    4loPI   C4A   58   2.391  14.335   8.143 -0.2143  0.4077 -0.2363
    4loPI   C5A   59   2.307  14.069   7.830 -0.1412  0.1728  0.1345
    4loPI   C6A   60   2.360  13.645   7.630 -0.0810 -0.1103  0.1208
    4loPI   C1B   61   2.151  14.092   9.484  0.0636 -0.2758  0.0820
    4loPI   C2B   62   1.958  14.327   9.163 -0.0671 -0.0463 -0.1446
    4loPI   C3B   63   1.860  14.435   8.732 -0.0461 -0.1272  0.0576
    4loPI   C4B   64   1.883  14.458   8.349 -0.1894  0.2022  0.0377
    5loPI    C1   65  12.887  10.774  10.387 -0.2560 -0.2770 -0.3052
    5loPI    C2   66  12.852  10.523  10.697 -0.0353  0.0777  0.0170
    5loPI    C3   67  12.612  10.842  10.669 -0.2424 -0.1017 -0.3328
    5loPI   PO4   68  13.218  10.937  10.434  0.1771  0.0798  0.1727
    5loPI   GL1   69  13.503  11.030  10.238  0.1984  0.0183  0.1722
    5loPI   GL2   70  13.390  11.309  10.035  0.1953 -0.0049 -0.0156
    5loPI   C1A   71  13.681  10.816   9.886 -0.2195  0.1292 -0.3035
    5loPI   C2A   72  13.704  10.714   9.452  0.0152  0.3681  0.0533
    5loPI   C3A   73  13.676  10.730   8.961  0.1830  0.2161 -0.0504
    5loPI   C4A   74  13.539  10.611   8.598  0.0534 -0.0446  0.1274
    5loPI   C5A   75  13.325  10.602   8.225 -0.1140 -0.1514 -0.1368
    5loPI   C6A   76  13.138  10.459   7.891  0.0863  0.3345  0.1043
    5loPI   C1B   77  13.312  11.184   9.580  0.0126 -0.0559 -0.0414
    5loPI   C2B   78  13.412  11.131   9.227  0.0609 -0.2567  0.1775
    5loPI   C3B   79  13.319  11.042   8.847  0.0728  0.1270 -0.2707
    5loPI   C4B   80  13.241  11.041   8.442  0.1351 -0.1171 -0.0533
    6loPI    C1   81  15.652   8.487  10.443  0.1239  0.0458  0.0898
    6loPI    C2   82  16.048   8.544  10.457  0.1611 -0.1780 -0.0016
    6loPI    C3   83  15.819   8.651  10.767  0.2950 -0.0676  0.0603
    6loPI   PO4   84  15.788   8.270  10.126  0.1336 -0.0987  0.1808
    6loPI   GL1   85  15.855   8.050   9.710  0.2258 -0.2628 -0.0067
    6loPI   GL2   86  16.056   8.346   9.620  0.0851 -0.1829 -0.0268
    6loPI   C1A   87  15.728   7.845   9.424  0.0462 -0.0439  0.1199
    6loPI   C2A   88  15.843   7.922   8.966  0.0013 -0.0233  0.1404
    6loPI   C3A   89  16.004   7.938   8.602 -0.2748  0.0206 -0.0118
    6loPI   C4A   90  15.749   8.004   8.224 -0.1566 -0.0267 -0.0672
    6loPI   C5A   91  15.665   8.005   7.821 -0.0949 -0.1339  0.0794
    6loPI   C6A   92  15.384   7.605   7.828 -0.1523  0.0234  0.0834
    6loPI   C1B   93  15.909   8.283   9.295 -0.2343 -0.0685  0.2799
    6loPI   C2B   94  16.008   8.453   8.972  0.0380  0.1321 -0.2711
    6loPI   C3B   95  16.040   8.470   8.532 -0.0558 -0.1792 -0.2404
    6loPI   C4B   96  15.915   8.463   8.066 -0.0089  0.0001 -0.0372
    7loPI    C1   97   8.812   0.318  10.325  0.0434 -0.0798 -0.0586
    7loPI    C2   98   9.157   0.464  10.183  0.0266  0.0245  0.0072
    7loPI    C3   99   8.967   0.653  10.480 -0.0474 -0.0759  0.0241
    7loPI   PO4  100   8.863  -0.016  10.329  0.0356 -0.1242  0.2576
    7loPI   GL1  101   8.655  -0.257   9.968 -0.1727  0.0469 -0.1614
    7loPI   GL2  102   8.953  -0.457  10.022 -0.0292  0.0907 -0.0262
    7loPI   C1A  103   8.654  -0.120   9.523 -0.2452 -0.2747 -0.0511
    7loPI   C2A  104   8.503  -0.119   9.030  0.1191  0.0842 -0.1019
    7loPI   C3A  105   8.390  -0.165   8.628 -0.1572 -0.0283  0.0938
    7loPI   C4A  106   8.501  -0.422   8.375  0.0913  0.1502 -0.1030
    7loPI   C5A  107   8.788  -0.694   8.240 -0.0472  0.0117 -0.1227
    7loPI   C6A  108   8.809  -1.128   7.987  0.1322  0.2736 -0.0174
    7loPI   C1B  109   8.918  -0.550   9.599 -0.0246 -0.0954  0.0941
    7loPI   C2B  110   8.877  -0.424   9.172 -0.1689 -0.1024 -0.1445
    7loPI   C3B  111   8.922  -0.434   8.695  0.0059 -0.1335 -0.4185
    7loPI   C4B  112   9.178  -0.407   8.335  0.0146  0.0895  0.3610
    8loPI    C1  113  14.893   6.886  10.748  0.2258  0.0310 -0.0850
    8loPI    C2  114  14.970   6.935  11.137  0.0611  0.2416 -0.0772
    8loPI    C3  115  15.144   7.173  10.867  0.1041  0.1554 -0.1259
    8loPI   PO4  116  14.652   6.872  10.598 -0.3474  0.2305  0.0609
    8loPI   GL1  117  14.373   6.993  10.196 -0.4168  0.0298  0.0853
    8loPI   GL2  118  14.636   7.160   9.998 -0.1736  0.0302 -0.1841
    8loPI   C1A  119  14.476   6.751   9.800 -0.1370  0.2144 -0.1178
    8loPI   C2A  120  14.551   6.584   9.413 -0.0183 -0.1466 -0.1570
    8loPI   C3A  121  14.756   6.467   9.054  0.1909  0.0410  0.0231
    8loPI   C4A  122  14.954   6.608   8.814  0.3058 -0.1670  0.0170
    8loPI   C5A  123  15.193   6.896   8.654 -0.0735 -0.1928 -0.1759
    8loPI   C6A  124  15.569   7.032   8.431  0.0617 -0.1751  0.2135
    8loPI   C1B  125  14.549   7.183   9.545  0.0168  0.2256 -0.1876
    8loPI   C2B  126  14.311   7.024   9.304  0.0386  0.0931 -0.1768
    8loPI   C3B  127  14.074   7.161   9.070 -0.1865  0.2207 -0.0007
    8loPI   C4B  128  14.181   7.178   8.562 -0.1255 -0.2550 -0.0745
    9loPI    C1  129   7.580   7.830  10.370 -0.0508  0.0342  0.0879
    9loPI    C2  130   7.358   7.837  10.703  0.1944 -0.1117  0.2577
    9loPI    C3  131   7.757   7.854  10.728  0.2138 -0.0924 -0.0318
    9loPI   PO4  132   7.514   7.957  10.198  0.0695 -0.1149  0.4666
    9loPI   GL1  133   7.614   8.133   9.855 -0.0426 -0.1369 -0.3014
    9loPI   GL2  134   7.565   8.412  10.000  0.3126  0.0662  0.2350
    9loPI   C1A  135   7.758   8.080   9.398 -0.5143 -0.0525  0.1195
    9loPI   C2A  136   7.821   7.877   9.088 -0.2637 -0.1577  0.0925
    9loPI   C3A  137   8.180   7.849   8.742 -0.2196  0.2060  0.0129
    9loPI   C4A  138   8.441   8.167   8.734 -0.1126  0.0545  0.0555
    9loPI   C5A  139   8.583   8.497   9.090  0.0625 -0.2968 -0.2249
    9loPI   C6A  140   8.567   8.644   9.543 -0.0169  0.0872 -0.1262
    9loPI   C1B  141   7.612   8.516   9.519 -0.0385  0.1588  0.0046
    9loPI   C2B  142   7.467   8.514   9.131  0.1187  0.1356  0.1595
    9loPI   C3B  143   7.086   8.521   8.969  0.1896 -0.1106 -0.0902
    9loPI   C4B  144   6.669   8.574   8.796  0.0178 -0.1331 -0.0647
   10loPI    C1  145   0.151  15.924   9.782  0.1042  0.0510  0.0007
   10loPI    C2  146   0.073  15.765  10.140  0.1603  0.0605  0.0173
   10loPI    C3  147   0.336  16.064  10.107  0.0522  0.1528 -0.0130
   10loPI   PO4  148  -0.043  15.739   9.609 -0.5664  0.0672  0.4596
   10loPI   GL1  149  -0.171  15.844   9.219  0.1316 -0.3524  0.1320
   10loPI   GL2  150   0.076  15.756   9.095 -0.2808  0.1982  0.1082
   10loPI   C1A  151  -0.395  16.202   9.133 -0.0599 -0.1553 -0.0384
   10loPI   C2A  152  -0.596  16.329   8.702 -0.0170  0.1297 -0.1667
   10loPI   C3A  153  -0.723  16.384   8.291  0.0717 -0.2872  0.3584
   10loPI   C4A  154  -0.459  16.504   7.918  0.0590 -0.4524  0.0446
   10loPI   C5A  155  -0.197  16.793   7.614 -0.0704  0.0240  0.2243
   10loPI   C6A  156  -0.240  16.749   7.324  0.1090 -0.1974 -0.4719
   10loPI   C1B  157  -0.062  15.873   8.702 -0.0716 -0.0788 -0.2996
   10loPI   C2B  158   0.021  15.714   8.338  0.0788 -0.1429 -0.1332
   10loPI   C3B  159   0.074  15.676   7.911  0.1085  0.0931  0.0350
   10loPI   C4B  160   0.336  15.418   7.796  0.0331 -0.2164  0.3001
   11loPI    C1  161  18.293  16.287   9.993 -0.1020 -0.1307 -0.0618
   11loPI    C2  162  18.184  16.191   9.621  0.0813 -0.1194 -0.1195
   11loPI    C3  163  18.175  15.914   9.909 -0.2901 -0.0685 -0.0771
   11loPI   PO4  164  18.566  16.389   9.926  0.0468  0.1030  0.0102
   11loPI   GL1  165  18.876  16.505   9.630  0.0526 -0.0748  0.1576
   11loPI   GL2  166  18.604  16.257   9.380 -0.1460  0.0252  0.0287
   11loPI   C1A  167  18.796  16.805   9.362 -0.1601 -0.1297  0.0051
   11loPI   C2A  168  18.731  16.799   8.949  0.0664 -0.0373  0.0845
   11loPI   C3A  169  18.622  16.965   8.657 -0.0327 -0.2865  0.3124
   11loPI   C4A  170  18.378  17.114   8.337 -0.0166 -0.0253 -0.5896
   11loPI   C5A  171  18.223  17.187   7.913  0.1358  0.2808 -0.0672
   11loPI   C6A  172  17.880  17.029   7.614  0.0580 -0.1456  0.3915
   11loPI   C1B  173  18.593  16.332   8.938  0.2647  0.1868 -0.1966
   11loPI   C2B  174  18.738  16.501   8.528 -0.1822 -0.0869 -0.0382
   11loPI   C3B  175  18.576  16.708   8.147 -0.0048  0.3133 -0.4492
   11loPI   C4B  176  18.739  17.099   7.920  0.0077  0.0734  0.1484
   12loPI    C1  177  14.763  13.084  10.096 -0.0218 -0.2467 -0.1497
   12loPI    C2  178  14.943  13.283   9.800  0.0087 -0.2244 -0.1162
   12loPI    C3  179  15.148  13.015  10.015  0.0425 -0.0913  0.0189
   12loPI   PO4  180  14.473  13.262  10.087  0.0387  0.0886  0.0199
   12loPI   GL1  181  14.250  13.410   9.676  0.3977  0.0086 -0.0143
   12loPI   GL2  182  14.537  13.570   9.720  0.0620 -0.2726  0.1763
   12loPI   C1A  183  14.017  13.383   9.276  0.0932 -0.1016  0.0333
   12loPI   C2A  184  14.195  13.444   8.831  0.2151 -0.1872 -0.1350
   12loPI   C3A  185  14.093  13.622   8.429  0.0932  0.0047  0.0408
   12loPI   C4A  186  13.779  13.772   8.009 -0.4144  0.1061 -0.1071
   12loPI   C5A  187  13.493  13.564   7.887 -0.0854 -0.2608  0.0032
   12loPI   C6A  188  13.092  13.778   7.934 -0.0696  0.3174  0.2659
   12loPI   C1B  189  14.449  13.759   9.281  0.0222  0.1124  0.0105
   12loPI   C2B  190  14.652  13.926   8.886  0.4695  0.0621 -0.0469
   12loPI   C3B  191  14.818  13.940   8.462  0.0341  0.0153  0.2091
   12loPI   C4B  192  14.729  13.591   8.116  0.0505  0.2409 -0.2933
   13loPI    C1  193  15.952  11.364  10.205 -0.0702 -0.0649  0.0621
   13loPI    C2  194  15.876  11.540  10.556 -0.1685 -0.1376  0.0779
   13loPI    C3  195  15.889  11.141  10.531 -0.0101 -0.1303  0.0294
   13loPI   PO4  196  15.916  11.511  10.038 -0.4120  0.1938 -0.0159
   13loPI   GL1  197  15.597  11.593   9.752  0.0694 -0.2224  0.1706
   13loPI   GL2  198  15.238  11.573   9.815  0.3400  0.3070 -0.3826
   13loPI   C1A  199  15.520  11.384   9.406  0.1098 -0.0375 -0.0421
   13loPI   C2A  200  15.414  11.183   9.131  0.1572  0.0856  0.1105
   13loPI   C3A  201  15.395  11.001   8.646 -0.0188  0.0393  0.2180
   13loPI   C4A  202  15.360  11.071   8.213  0.2335  0.0175  0.0955
   13loPI   C5A  203  14.936  11.177   8.052  0.0733  0.0818  0.3086
   13loPI   C6A  204  14.548  11.223   7.845 -0.2073 -0.1588  0.0516
   13loPI   C1B  205  15.020  11.304   9.503 -0.1599 -0.0892  0.0455
   13loPI   C2B  206  14.892  11.258   9.149  0.1538 -0.2019  0.0312
   13loPI   C3B  207  14.933  11.016   8.798 -0.2010  0.1233 -0.2936
   13loPI   C4B  208  14.776  10.980   8.532  0.0559  0.0175  0.1373
   14loPI    C1  209  13.340   8.494  10.751 -0.1901  0.1023  0.1004
   14loPI    C2  210  13.295   8.823  10.973 -0.1672  0.0283  0.2157
   14loPI    C3  211  13.003   8.550  10.960 -0.2127  0.0830  0.0692
   14loPI   PO4  212  13.576   8.625  10.581  0.0220  0.1466  0.1958
   14loPI   GL1  213  13.675   8.719  10.155 -0.0227  0.0447  0.0332
   14loPI   GL2  214  13.978   8.496  10.172  0.0679 -0.0548  0.1649
   14loPI   C1A  215  13.771   9.047   9.816 -0.2073  0.0560  0.0204
   14loPI   C2A  216  13.795   8.970   9.415  0.1905 -0.0920 -0.2950
   14loPI   C3A  217  13.711   8.932   9.004 -0.0073 -0.1362 -0.3134
   14loPI   C4A  218  13.599   8.831   8.613  0.0217  0.2637 -0.1796
   14loPI   C5A  219  13.540   8.680   8.231 -0.2803 -0.0749 -0.0100
   14loPI   C6A  220  13.550   8.974   7.905  0.1313 -0.0281  0.0687
   14loPI   C1B  221  14.025   8.544   9.772 -0.4008  0.0512 -0.1022
   14loPI   C2B  222  13.975   8.510   9.377 -0.0943 -0.0729  0.1265
   14loPI   C3B  223  13.967   8.503   8.911  0.1761  0.0828 -0.2778
   14loPI   C4B  224  13.877   8.403   8.493  0.1549 -0.0608 -0.2348
   15loPI    C1  225   9.838  16.320  10.766  0.0475  0.0702  0.0763
   15loPI    C2  226   9.506  16.485  10.915 -0.1111 -0.0099 -0.1816
   15loPI    C3  227   9.584  16.099  10.982  0.0155  0.0484  0.0164
   15loPI   PO4  228   9.879  16.384  10.522 -0.0174  0.1413 -0.1289
   15loPI   GL1  229   9.920  16.607  10.179 -0.1614  0.2485  0.1396
   15loPI   GL2  230   9.642  16.658   9.992 -0.0800 -0.0168  0.3023
   15loPI   C1A  231   9.988  16.501   9.735 -0.1805 -0.1325  0.0468
   15loPI   C2A  232  10.001  16.581   9.317 -0.0371 -0.1398  0.0596
   15loPI   C3A  233  10.050  16.539   8.916  0.0425  0.2975 -0.0751
   15loPI   C4A  234  10.303  16.198   8.727  0.1723 -0.2680 -0.1023
   15loPI   C5A  235  10.638  16.143   8.328 -0.0483  0.0247  0.0572
   15loPI   C6A  236  10.981  16.410   8.178  0.0903  0.0478  0.0380
   15loPI   C1B  237   9.696  17.002   9.586  0.1269  0.1367 -0.1770
   15loPI   C2B  238   9.833  17.019   9.147 -0.2063  0.0685  0.5800
   15loPI   C3B  239   9.772  16.952   8.766  0.1705 -0.0750  0.1661
   15loPI   C4B  240   9.807  16.766   8.364  0.1717  0.1638 -0.0887
   16loPI    C1  241   5.342  16.266  10.311 -0.3489  0.0134 -0.1470
   16loPI    C2  242   5.403  16.024  10.623  0.0513 -0.1124 -0.3148
   16loPI    C3  243   5.166  16.344  10.661  0.0525 -0.1545  0.1002
   16loPI   PO4  244   5.308  16.124  10.162  0.0011 -0.1385 -0.0394
   16loPI   GL1  245   5.290  15.948   9.789  0.2071 -0.0903  0.0101
   16loPI   GL2  246   5.091  16.179   9.704 -0.2828 -0.3426 -0.1479
   16loPI   C1A  247   5.097  15.815   9.343 -0.2350  0.1759  0.1806
   16loPI   C2A  248   5.065  15.826   8.897 -0.0565 -0.0582 -0.1569
   16loPI   C3A  249   5.127  15.795   8.506 -0.0304 -0.3284 -0.0429
   16loPI   C4A  250   5.252  15.819   8.130  0.0957 -0.0295 -0.1543
   16loPI   C5A  251   5.044  15.751   7.716  0.3304 -0.2037 -0.0952
   16loPI   C6A  252   4.853  15.435   7.487 -0.4206 -0.0688  0.0365
   16loPI   C1B  253   4.845  16.325   9.323 -0.0370  0.3487  0.0566
   16loPI   C2B  254   4.796  16.248   8.799 -0.1859  0.0015 -0.0129
   16loPI   C3B  255   4.864  16.250   8.417  0.0283 -0.2637  0.0544
   16loPI   C4B  256   4.950  16.321   8.063 -0.2801 -0.0142  0.0019
   17loPI    C1  257  17.290   2.867  10.435  0.1815  0.0848  0.0682
   17loPI    C2  258  16.928   2.823  10.599  0.2084 -0.0731  0.0866
   17loPI    C3  259  17.061   3.188  10.503 -0.1060 -0.0443 -0.2597
   17loPI   PO4  260  17.245   2.626  10.213 -0.2728  0.2577 -0.0601
   17loPI   GL1  261  17.022   2.387   9.813 -0.1628  0.2183  0.0785
   17loPI   GL2  262  17.008   2.463   9.459  0.1536 -0.0751  0.2341
   17loPI   C1A  263  17.123   1.950   9.531 -0.0800 -0.2179  0.2275
   17loPI   C2A  264  17.200   1.659   9.169  0.0693  0.0675 -0.1161
   17loPI   C3A  265  17.302   1.832   8.693 -0.1058  0.0138 -0.2353
   17loPI   C4A  266  17.438   2.163   8.407  0.0255 -0.0945  0.1018
   17loPI   C5A  267  17.740   2.242   8.268  0.1628 -0.1019  0.0142
   17loPI   C6A  268  17.950   2.114   7.888  0.4000  0.1665  0.1336
   17loPI   C1B  269  17.093   2.172   9.096 -0.0508  0.0319  0.0731
   17loPI   C2B  270  16.891   2.102   8.691 -0.0189  0.0429 -0.1819
   17loPI   C3B  271  16.964   2.033   8.270 -0.0419 -0.2258 -0.1855
   17loPI   C4B  272  16.869   2.281   7.905 -0.0853 -0.3493 -0.2056
   18loPI    C1  273   6.903  15.406  10.571  0.1125  0.2974  0.0995
   18loPI    C2  274   6.930  15.271  10.947  0.0907  0.0710  0.0214
   18loPI    C3  275   7.256  15.288  10.716  0.1211  0.2979  0.0791
   18loPI   PO4  276   6.702  15.254  10.478 -0.3600 -0.0089 -0.1233
   18loPI   GL1  277   6.563  15.464  10.026  0.0426 -0.0088 -0.2538
   18loPI   GL2  278   6.663  15.142  10.005  0.0332  0.0504  0.0766
   18loPI   C1A  279   6.550  15.370   9.580 -0.2468  0.3327 -0.0749
   18loPI   C2A  280   6.394  15.429   9.175 -0.1666 -0.1969 -0.1668
   18loPI   C3A  281   6.455  15.482   8.761  0.1586  0.0088 -0.1900
   18loPI   C4A  282   6.427  15.380   8.370  0.0226  0.1707  0.1066
   18loPI   C5A  283   6.546  15.303   7.929 -0.0668  0.1393 -0.0877
   18loPI   C6A  284   6.408  15.333   7.495 -0.0537  0.0110 -0.0758
   18loPI   C1B  285   7.023  15.332   9.716 -0.1190  0.0588 -0.1142
   18loPI   C2B  286   7.018  15.302   9.374 -0.1416  0.0573  0.0415
   18loPI   C3B  287   6.944  15.417   8.940 -0.2771  0.0481  0.3317
   18loPI   C4B  288   6.949  15.504   8.532 -0.2190  0.3420  0.0117
   19loPI    C1  289   4.803  16.232  10.315  0.0180  0.2322 -0.0747
   19loPI    C2  290   4.437  16.208  10.474 -0.0175  0.1551 -0.1670
   19loPI    C3  291   4.638  16.554  10.486  0.0259  0.1217  0.1430
   19loPI   PO4  292   4.709  16.071  10.049  0.2226  0.2465  0.0152
   19loPI   GL1  293   4.756  15.714   9.851 -0.0400  0.1562 -0.1450
   19loPI   GL2  294   4.952  15.488   9.946 -0.0461 -0.1289  0.0946
   19loPI   C1A  295   4.613  15.819   9.476  0.0523  0.1173 -0.2463
   19loPI   C2A  296   4.602  15.835   8.958 -0.2129  0.0516  0.1248
   19loPI   C3A  297   4.642  15.810   8.489 -0.0120 -0.1208  0.1740
   19loPI   C4A  298   4.703  15.913   8.022 -0.1719 -0.2118  0.0256
   19loPI   C5A  299   4.590  16.212   7.763  0.1179 -0.3052  0.0448
   19loPI   C6A  300   4.415  16.637   7.744  0.0359 -0.0978  0.1415
   19loPI   C1B  301   4.862  15.404   9.538  0.0802 -0.1652  0.0095
   19loPI   C2B  302   4.897  15.326   9.101  0.3111 -0.0314  0.1205
   19loPI   C3B  303   5.010  15.286   8.666  0.1474 -0.1479 -0.1465
   19loPI   C4B  304   4.915  15.415   8.299 -0.0961  0.3031  0.2085
   20loPI    C1  305   1.350   5.019  10.174 -0.2033 -0.2332  0.2133
   20loPI    C2  306   1.332   5.348  10.400  0.1769  0.0384 -0.1371
   20loPI    C3  307   1.559   5.039  10.514  0.4406  0.2105 -0.1867
   20loPI   PO4  308   1.061   5.005  10.075 -0.1110 -0.1837 -0.1099
   20loPI   GL1  309   1.134   5.319   9.795 -0.3239  0.2075  0.1273
   20loPI   GL2  310   1.316   5.648   9.984  0.2456 -0.0789  0.1472
   20loPI   C1A  311   0.984   5.200   9.402  0.3171 -0.0257  0.0962
   20loPI   C2A  312   0.839   5.302   9.079  0.1465  0.1040 -0.1280
   20loPI   C3A  313   0.997   5.418   8.615 -0.1607 -0.2789 -0.1492
   20loPI   C4A  314   0.899   5.554   8.167  0.0033 -0.0187  0.0317
   20loPI   C5A  315   0.673   5.845   7.915 -0.1443 -0.0836 -0.1192
   20loPI   C6A  316   0.452   6.010   7.502  0.0776  0.1451 -0.0820
   20loPI   C1B  317   1.291   5.661   9.458  0.1781 -0.1405 -0.1466
   20loPI   C2B  318   1.437   5.801   9.042  0.0243  0.4174 -0.0458
   20loPI   C3B  319   1.535   5.657   8.568  0.0762 -0.1600 -0.1037
   20loPI   C4B  320   1.413   5.623   8.107 -0.0589 -0.1841 -0.3193
   21loPI    C1  321   5.731  11.273  10.504 -0.1966 -0.0903  0.1672
   21loPI    C2  322   5.704  11.667  10.567  0.3251  0.0050 -0.1462
   21loPI    C3  323   5.866  11.431  10.846  0.0171  0.0083  0.0396
   21loPI   PO4  324   5.894  11.284  10.257 -0.2383  0.1109 -0.2066
   21loPI   GL1  325   5.829  11.282   9.851 -0.0263 -0.1600  0.0236
   21loPI   GL2  326   5.676  11.485   9.731  0.0623 -0.0123  0.1301
   21loPI   C1A  327   6.182  11.258   9.626  0.1934  0.1111  0.0883
   21loPI   C2A  328   6.370  11.032   9.346 -0.4030  0.0075 -0.0286
   21loPI   C3A  329   6.426  11.080   8.844 -0.2289 -0.1022 -0.1361
   21loPI   C4A  330   6.684  10.961   8.587 -0.3917  0.0737  0.0294
   21loPI   C5A  331   6.890  10.881   8.174  0.3514  0.1457 -0.0722
   21loPI   C6A  332   6.901  10.965   7.645  0.1429  0.1143 -0.0333
   21loPI   C1B  333   5.918  11.553   9.337  0.1116 -0.1805 -0.0573
   21loPI   C2B  334   5.907  11.769   8.980  0.2369 -0.1358 -0.0453
   21loPI   C3B  335   5.935  11.811   8.604 -0.0195 -0.2435 -0.0153
   21loPI   C4B  336   6.056  12.095   8.245  0.1650 -0.0948 -0.0457
   22loPI    C1  337  16.030  16.505  10.499  0.0384 -0.0080 -0.0865
   22loPI    C2  338  16.291  16.732  10.700 -0.0151 -0.0597  0.0426
   22loPI    C3  339  15.900  16.814  10.719 -0.0099  0.0149 -0.1470
   22loPI   PO4  340  16.191  16.431  10.257  0.1618 -0.1321 -0.2794
   22loPI   GL1  341  16.211  16.751  10.015 -0.0397 -0.0687  0.1237
   22loPI   GL2  342  16.367  17.049   9.928 -0.0069  0.3978  0.0037
   22loPI   C1A  343  15.923  16.762   9.703  0.1656  0.2413  0.0828
   22loPI   C2A  344  15.800  16.575   9.346  0.2642  0.4450  0.0001
   22loPI   C3A  345  15.790  16.531   8.911 -0.0364  0.1602 -0.1093
   22loPI   C4A  346  15.708  16.475   8.435 -0.2185 -0.3537  0.0964
   22loPI   C5A  347  15.860  16.792   8.142 -0.0721  0.0042 -0.1824
   22loPI   C6A  348  15.860  17.104   7.798 -0.1761  0.0318  0.0069
   22loPI   C1B  349  16.229  17.109   9.550  0.2233 -0.0534 -0.0265
   22loPI   C2B  350  16.164  16.967   9.099 -0.0953  0.3145  0.0026
   22loPI   C3B  351  16.017  17.013   8.606 -0.0675  0.0138  0.0537
   22loPI   C4B  352  15.766  17.306   8.416 -0.0040  0.1419  0.0277
   23loPI    C1  353   2.284  11.445  10.339  0.1935  0.0411  0.0610
   23loPI    C2  354   2.409  11.222  10.647 -0.0700 -0.0206  0.1255
   23loPI    C3  355   2.391  11.620  10.683  0.0206 -0.0181  0.1460
   23loPI   PO4  356   2.422  11.383  10.119 -0.1292 -0.0739 -0.1912
   23loPI   GL1  357   2.392  11.539   9.709 -0.1929 -0.0137 -0.1715
   23loPI   GL2  358   2.556  11.740   9.480  0.0288  0.0021 -0.0835
   23loPI   C1A  359   2.384  11.289   9.420  0.1078  0.2029 -0.2265
   23loPI   C2A  360   2.260  11.103   8.999 -0.1426 -0.0874  0.2481
   23loPI   C3A  361   2.193  11.167   8.538 -0.2131  0.0372 -0.0400
   23loPI   C4A  362   2.244  11.267   8.116  0.1145 -0.0764 -0.2278
   23loPI   C5A  363   2.246  11.257   7.752 -0.1170 -0.1125 -0.4581
   23loPI   C6A  364   2.082  11.282   7.334  0.0762 -0.0483  0.2515
   23loPI   C1B  365   2.651  11.519   9.064 -0.1843  0.3058 -0.1043
   23loPI   C2B  366   2.553  11.526   8.679 -0.0033  0.0730  0.0016
   23loPI   C3B  367   2.463  11.674   8.337  0.4613  0.2926  0.2166
   23loPI   C4B  368   2.234  11.881   8.008  0.1657 -0.0109 -0.3084
   24loPI    C1  369   3.923   3.584  10.276  0.2074  0.0810 -0.0307
   24loPI    C2  370   4.051   3.267  10.485  0.1697 -0.0522 -0.2076
   24loPI    C3  371   4.315   3.513  10.311  0.1988  0.0118 -0.0743
   24loPI   PO4  372   3.718   3.516  10.227 -0.0737  0.1131  0.1132
   24loPI   GL1  373   3.617   3.287   9.818  0.0606  0.2117 -0.2367
   24loPI   GL2  374   3.720   2.897   9.850  0.2991  0.2185  0.1000
   24loPI   C1A  375   3.815   3.625   9.632 -0.1732  0.1068 -0.1518
   24loPI   C2A  376   3.938   3.546   9.236  0.1738 -0.1862  0.2245
   24loPI   C3A  377   3.920   3.725   8.773 -0.0769 -0.0682 -0.2922
   24loPI   C4A  378   4.006   3.649   8.307 -0.2006  0.3249  0.3841
   24loPI   C5A  379   3.804   3.493   7.895  0.1640 -0.3219  0.4799
   24loPI   C6A  380   3.464   3.594   7.689  0.2619 -0.1227  0.1618
   24loPI   C1B  381   3.845   2.966   9.431 -0.1052 -0.1062 -0.1051
   24loPI   C2B  382   3.793   3.087   8.994 -0.1487  0.0457  0.0845
   24loPI   C3B  383   3.867   3.099   8.570 -0.2708 -0.1667  0.2604
   24loPI   C4B  384   3.840   3.007   8.150 -0.0536 -0.2095 -0.0451
   25loPI    C1  385  16.882   3.422   9.847 -0.1935 -0.0639 -0.2525
   25loPI    C2  386  17.264   3.513   9.769 -0.1264 -0.0549  0.0709
   25loPI    C3  387  17.122   3.550  10.141 -0.4011 -0.2097 -0.0158
   25loPI   PO4  388  16.832   3.176   9.674  0.1710  0.0987 -0.2902
   25loPI   GL1  389  17.150   2.953   9.429  0.1622 -0.2647 -0.0182
   25loPI   GL2  390  17.168   3.257   9.291  0.0625 -0.0613  0.3389
   25loPI   C1A  391  17.107   2.858   9.008  0.3272 -0.3143 -0.0874
   25loPI   C2A  392  16.777   2.526   8.954 -0.1460  0.0679  0.0760
   25loPI   C3A  393  16.424   2.628   8.748  0.0103 -0.2241  0.3274
   25loPI   C4A  394  16.003   2.422   8.683 -0.0173  0.2913 -0.0010
   25loPI   C5A  395  15.645   2.219   8.580 -0.0285  0.1033  0.1336
   25loPI   C6A  396  15.482   1.869   8.561  0.3030 -0.0453  0.3506
   25loPI   C1B  397  16.945   3.327   8.998 -0.0948 -0.0806 -0.1601
   25loPI   C2B  398  16.976   3.129   8.604  0.2964 -0.2063 -0.0780
   25loPI   C3B  399  16.801   2.818   8.454  0.0048 -0.2518 -0.1153
   25loPI   C4B  400  16.804   2.488   8.352  0.2365 -0.0805  0.1333
   26loPI    C1  401  14.610   8.619  10.654  0.1530  0.0214  0.0296
   26loPI    C2  402  14.582   8.267  10.841  0.0696 -0.0532 -0.1212
   26loPI    C3  403  14.772   8.572  11.016  0.1763 -0.1844 -0.0063
   26loPI   PO4  404  14.482   8.510  10.445  0.0184 -0.1272  0.1990
   26loPI   GL1  405  14.507   8.337  10.052 -0.1373 -0.2811 -0.0485
   26loPI   GL2  406  14.805   8.511   9.994 -0.0782  0.1143  0.0627
   26loPI   C1A  407  14.493   8.425   9.591 -0.0050  0.3869  0.1432
   26loPI   C2A  408  14.439   8.466   9.096 -0.1225 -0.0586 -0.1014
   26loPI   C3A  409  14.400   8.406   8.586  0.0240  0.1517  0.0370
   26loPI   C4A  410  14.622   8.420   8.236  0.0994 -0.4062 -0.0976
   26loPI   C5A  411  14.963   8.535   7.879  0.1091 -0.0007  0.0512
   26loPI   C6A  412  15.116   8.834   7.668  0.1481  0.0732  0.2767
   26loPI   C1B  413  14.996   8.492   9.581 -0.2865 -0.1766 -0.0216
   26loPI   C2B  414  14.933   8.418   9.220 -0.3058 -0.1220  0.0450
   26loPI   C3B  415  14.903   8.441   8.749 -0.1151 -0.2031 -0.2255
   26loPI   C4B  416  15.068   8.127   8.408 -0.1897  0.0522  0.0490
   27loPI    C1  417   4.530  12.307  10.583  0.1271  0.1356  0.1723
   27loPI    C2  418   4.187  12.514  10.571  0.2457  0.3280  0.0532
   27loPI    C3  419   4.239  12.229  10.847 -0.0469  0.2312  0.0119
   27loPI   PO4  420   4.515  12.245  10.297  0.2843 -0.0398 -0.2015
   27loPI   GL1  421   4.470  11.966   9.904 -0.0349  0.0427  0.0710
   27loPI   GL2  422   4.772  11.949   9.752 -0.1587  0.0450  0.0345
   27loPI   C1A  423   4.378  12.229   9.637  0.0726  0.3887  0.2069
   27loPI   C2A  424   4.268  12.374   9.292 -0.0058  0.0630  0.0982
   27loPI   C3A  425   4.344  12.381   8.825  0.4128 -0.2569  0.2187
   27loPI   C4A  426   4.355  12.146   8.541 -0.1415 -0.0434  0.1145
   27loPI   C5A  427   4.624  11.879   8.360  0.3147 -0.2187 -0.0463
   27loPI   C6A  428   4.783  11.863   7.986 -0.1595  0.0228 -0.3113
   27loPI   C1B  429   4.669  11.903   9.342 -0.0004 -0.0735 -0.0498
   27loPI   C2B  430   4.489  11.802   8.989 -0.0706  0.1607  0.1853
   27loPI   C3B  431   4.272  11.641   8.664  0.0461 -0.1580 -0.2263
   27loPI   C4B  432   4.019  11.332   8.595  0.2956 -0.0685  0.1217
   28loPI    C1  433   9.212   3.300  10.454  0.1558 -0.0038  0.1727
   28loPI    C2  434   8.868   3.478  10.354  0.1324 -0.0817  0.1139
   28loPI    C3  435   8.918   3.333  10.724  0.1402  0.0198  0.1530
   28loPI   PO4  436   9.499   3.555  10.343  0.0279 -0.0370  0.0300
   28loPI   GL1  437   9.765   3.629  10.101  0.0222 -0.0324  0.2193
   28loPI   GL2  438   9.777   3.287   9.965  0.2667  0.1233 -0.1571
   28loPI   C1A  439   9.745   3.769   9.668 -0.2269  0.0902 -0.0960
   28loPI   C2A  440   9.668   3.685   9.255 -0.1957 -0.1919  0.1130
   28loPI   C3A  441   9.521   3.765   8.827  0.2177  0.2679 -0.4348
   28loPI   C4A  442   9.470   3.870   8.450 -0.0339  0.3089  0.2788
   28loPI   C5A  443   9.746   4.108   8.080  0.1445  0.2203 -0.2825
   28loPI   C6A  444   9.630   3.888   7.697  0.0442 -0.2583 -0.1711
   28loPI   C1B  445   9.870   3.244   9.566 -0.3606 -0.0310 -0.0756
   28loPI   C2B  446   9.815   3.249   9.151  0.0569 -0.3031 -0.0518
   28loPI   C3B  447   9.854   3.391   8.798 -0.2086  0.1371 -0.1854
   28loPI   C4B  448   9.951   3.854   8.588  0.1256  0.1543 -0.0161
   29loPI    C1  449   2.408   6.461  10.283 -0.0544  0.1210 -0.2713
   29loPI    C2  450   2.102   6.713  10.332 -0.1476 -0.0101 -0.1692
   29loPI    C3  451   2.204   6.464  10.628 -0.0261 -0.0590 -0.2520
   29loPI   PO4  452   2.502   6.584  10.056 -0.0064 -0.1663  0.0580
   29loPI   GL1  453   2.550   6.759   9.715 -0.0122  0.2828 -0.0770
   29loPI   GL2  454   2.799   6.968   9.628  0.0966 -0.0514  0.0325
   29loPI   C1A  455   2.712   6.504   9.419 -0.2018 -0.3639  0.3702
   29loPI   C2A  456   2.576   6.493   9.030 -0.3771 -0.1878  0.1474
   29loPI   C3A  457   2.299   6.851   8.891 -0.2684 -0.0547 -0.1428
   29loPI   C4A  458   1.971   6.977   8.588 -0.3291  0.2396  0.2256
   29loPI   C5A  459   1.834   6.796   8.284  0.1214 -0.2641 -0.0347
   29loPI   C6A  460   1.551   6.692   7.881 -0.0797  0.0212  0.0610
   29loPI   C1B  461   2.803   6.995   9.242 -0.3328  0.3475 -0.0470
   29loPI   C2B  462   2.766   6.980   8.822  0.4385  0.1063  0.1110
   29loPI   C3B  463   2.659   6.922   8.384  0.1550  0.2559  0.0338
   29loPI   C4B  464   2.648   6.485   8.102  0.0915 -0.0172  0.0874
   30loPI    C1  465  17.729   8.561  10.596  0.2199  0.0820  0.0821
   30loPI    C2  466  17.469   8.668  10.311  0.1132 -0.0291  0.1365
   30loPI    C3  467  17.346   8.445  10.620  0.2578 -0.0217  0.2000
   30loPI   PO4  468  17.911   8.418  10.369  0.3255 -0.1773  0.0901
   30loPI   GL1  469  18.109   8.419   9.926  0.2578  0.1997  0.4073
   30loPI   GL2  470  18.341   8.457  10.113 -0.0449 -0.0215  0.0794
   30loPI   C1A  471  17.976   8.198   9.467 -0.1245 -0.0601  0.2484
   30loPI   C2A  472  17.950   8.186   8.928  0.1182 -0.1185 -0.0641
   30loPI   C3A  473  17.816   8.183   8.544  0.2025  0.0416  0.1505
   30loPI   C4A  474  17.594   8.403   8.303  0.0784  0.0955 -0.0545
   30loPI   C5A  475  17.200   8.417   7.978 -0.1661 -0.1956  0.1826
   30loPI   C6A  476  16.770   8.367   7.997 -0.0354  0.0330 -0.0643
   30loPI   C1B  477  18.582   8.834   9.827 -0.0775  0.1584  0.0638
   30loPI   C2B  478  18.442   8.960   9.354 -0.1197  0.1259  0.0593
   30loPI   C3B  479  18.445   9.223   8.998 -0.2285 -0.0679  0.1891
   30loPI   C4B  480  18.159   9.196   8.576  0.0226  0.0615  0.0375
   31loPI    C1  481  13.392  17.708  10.326  0.2562  0.1363 -0.0069
   31loPI    C2  482  13.463  17.809  10.706 -0.1759  0.1277  0.0803
   31loPI    C3  483  13.522  17.433  10.585 -0.2184  0.0861  0.1873
   31loPI   PO4  484  13.460  17.965  10.164 -0.0432 -0.0902 -0.1830
   31loPI   GL1  485  13.693  17.853   9.897 -0.2596  0.2246  0.2279
   31loPI   GL2  486  13.619  17.584   9.893 -0.0457 -0.0347 -0.0668
   31loPI   C1A  487  13.987  17.848   9.527  0.0505 -0.1475  0.0920
   31loPI   C2A  488  14.020  18.117   9.277  0.1880  0.0932  0.0506
   31loPI   C3A  489  13.915  18.098   8.850 -0.2247  0.1104  0.1048
   31loPI   C4A  490  13.940  18.071   8.427  0.1945 -0.0437  0.1060
   31loPI   C5A  491  13.579  18.092   8.167 -0.0544  0.1192  0.1052
   31loPI   C6A  492  13.429  17.748   7.899  0.0593 -0.0828 -0.2626
   31loPI   C1B  493  13.598  17.554   9.452  0.0654  0.1866  0.0118
   31loPI   C2B  494  13.757  17.575   9.098  0.0619 -0.1997 -0.2935
   31loPI   C3B  495  13.544  17.796   8.809  0.0670 -0.3305  0.3039
   31loPI   C4B  496  13.433  17.720   8.453  0.4504 -0.0397  0.0886
   32loPI    C1  497   3.743   7.740  10.535 -0.2353 -0.0943 -0.0709
   32loPI    C2  498   3.587   7.892  10.871  0.0380 -0.0456  0.0366
   32loPI    C3  499   3.652   7.498  10.841 -0.0849 -0.0635 -0.0008
   32loPI   PO4  500   3.655   7.855  10.376  0.0462 -0.1031 -0.1442
   32loPI   GL1  501   3.779   7.822   9.880 -0.0250 -0.0465 -0.0812
   32loPI   GL2  502   3.505   7.718   9.800 -0.0115 -0.2212 -0.1042
   32loPI   C1A  503   3.982   7.822   9.532  0.1856 -0.1805 -0.0402
   32loPI   C2A  504   3.911   7.794   9.114 -0.2501  0.1751 -0.1919
   32loPI   C3A  505   3.821   7.879   8.691  0.0740  0.1967  0.3104
   32loPI   C4A  506   3.830   7.802   8.283 -0.2402  0.1221 -0.1049
   32loPI   C5A  507   3.697   7.636   7.836  0.1354 -0.0206 -0.1914
   32loPI   C6A  508   3.811   7.513   7.382  0.0064 -0.1069  0.0921
   32loPI   C1B  509   3.387   7.682   9.493 -0.0899  0.2883  0.3069
   32loPI   C2B  510   3.440   7.751   9.039 -0.2168  0.0824  0.0016
   32loPI   C3B  511   3.315   7.786   8.643  0.0336  0.0380 -0.3005
   32loPI   C4B  512   3.182   7.773   8.189  0.2023 -0.2217  0.1601
   33loPI    C1  513   2.611  11.853  10.125  0.0797 -0.0196 -0.1761
   33loPI    C2  514   2.750  12.049  10.446 -0.0143  0.1857 -0.2592
   33loPI    C3  515   2.822  11.658  10.404 -0.0105  0.1546  0.0173
   33loPI   PO4  516   2.685  11.921   9.924 -0.2425  0.0006 -0.0945
   33loPI   GL1  517   3.019  11.938   9.640 -0.1844 -0.3082 -0.0532
   33loPI   GL2  518   3.323  12.139   9.716  0.0165 -0.2514 -0.0028
   33loPI   C1A  519   2.970  11.936   9.150 -0.0522 -0.0504  0.3313
   33loPI   C2A  520   2.886  11.917   8.765 -0.0562 -0.0747 -0.1561
   33loPI   C3A  521   2.871  11.828   8.384 -0.1308 -0.0749 -0.1404
   33loPI   C4A  522   3.182  11.792   8.035 -0.1400  0.0532 -0.1202
   33loPI   C5A  523   3.460  12.067   7.842 -0.0765  0.2697  0.0942
   33loPI   C6A  524   3.715  12.377   7.762 -0.4057  0.1877  0.1336
   33loPI   C1B  525   3.241  12.339   9.387  0.0984 -0.0457  0.4105
   33loPI   C2B  526   3.240  12.462   8.949  0.0950  0.3376  0.1133
   33loPI   C3B  527   3.355  12.454   8.501  0.2951  0.2889  0.0291
   33loPI   C4B  528   3.658  12.294   8.254  0.1074  0.0977 -0.1114
   34loPI    C1  529  11.709  14.645  11.024  0.1458 -0.0827 -0.0251
   34loPI    C2  530  11.991  14.613  11.305  0.1730 -0.1642 -0.0613
   34loPI    C3  531  11.621  14.728  11.405  0.2119 -0.0832 -0.0098
   34loPI   PO4  532  11.804  14.725  10.815  0.0344 -0.1281 -0.0904
   34loPI   GL1  533  11.937  14.830  10.349 -0.2514 -0.1905 -0.3743
   34loPI   GL2  534  11.639  14.727  10.309 -0.1507 -0.0736 -0.0040
   34loPI   C1A  535  12.167  14.903   9.947  0.2049 -0.0389  0.1710
   34loPI   C2A  536  12.421  15.016   9.572  0.0648  0.0489 -0.0246
   34loPI   C3A  537  12.566  14.874   9.210  0.2072  0.2534  0.2559
   34loPI   C4A  538  12.604  14.875   8.814 -0.1963  0.1186  0.1855
   34loPI   C5A  539  12.408  14.619   8.544 -0.0607 -0.0778 -0.0301
   34loPI   C6A  540  12.104  14.319   8.408 -0.3572  0.0800  0.2488
   34loPI   C1B  541  11.650  14.585   9.870  0.0833  0.0394  0.0311
   34loPI   C2B  542  11.559  14.612   9.460 -0.2361 -0.0205 -0.0527
   34loPI   C3B  543  11.690  14.368   9.181  0.0373 -0.0255  0.0221
   34loPI   C4B  544  11.436  14.074   9.029  0.1681 -0.2148  0.1501
   35loPI    C1  545   8.415   3.259  10.629  0.1969 -0.1371 -0.0772
   35loPI    C2  546   8.114   3.198  10.885  0.0751  0.0684 -0.1689
   35loPI    C3  547   8.456   3.359  11.014  0.0248  0.1438 -0.1289
   35loPI   PO4  548   8.306   3.118  10.416 -0.2388  0.1475 -0.4195
   35loPI   GL1  549   8.441   3.275   9.961  0.0586 -0.0927 -0.1545
   35loPI   GL2  550   8.629   3.562   9.875  0.1379  0.1104  0.0879
   35loPI   C1A  551   8.446   3.117   9.524 -0.0073 -0.0967 -0.0020
   35loPI   C2A  552   8.353   3.136   9.110  0.0039  0.1544  0.0524
   35loPI   C3A  553   8.300   3.194   8.723  0.2011 -0.1328 -0.1554
   35loPI   C4A  554   8.221   2.974   8.277 -0.0005 -0.0286  0.1445
   35loPI   C5A  555   8.236   2.702   7.821 -0.2256  0.0508 -0.1293
   35loPI   C6A  556   8.596   2.810   7.669 -0.0930  0.1764  0.0207
   35loPI   C1B  557   8.707   3.574   9.369 -0.0228  0.0884  0.3392
   35loPI   C2B  558   8.734   3.615   8.953  0.0410 -0.1338  0.0694
   35loPI   C3B  559   8.685   3.506   8.497  0.1335 -0.1958  0.0114
   35loPI   C4B  560   8.638   3.153   8.140  0.0300 -0.0327 -0.2724
   36loPI    C1  561  10.518   0.579  10.597  0.0297  0.0893  0.1399
   36loPI    C2  562  10.554   0.261  10.836 -0.3116 -0.0940 -0.0458
   36loPI    C3  563  10.636   0.626  10.976 -0.0023 -0.2510  0.1951
   36loPI   PO4  564  10.569   0.490  10.403 -0.0311  0.2173 -0.2171
   36loPI   GL1  565  10.568   0.621   9.950  0.0740  0.0373  0.2363
   36loPI   GL2  566  10.579   0.321   9.993  0.1428 -0.0229 -0.0881
   36loPI   C1A  567  10.431   0.613   9.553  0.1110  0.1023  0.1364
   36loPI   C2A  568  10.434   0.693   9.154  0.1108  0.1318  0.2027
   36loPI   C3A  569  10.710   0.591   8.834  0.1999 -0.1911 -0.3548
   36loPI   C4A  570  10.721   0.718   8.322 -0.2317  0.0002  0.3499
   36loPI   C5A  571  10.959   0.839   8.042 -0.1369 -0.0952 -0.0423
   36loPI   C6A  572  11.387   0.985   7.852  0.2227  0.0979  0.1300
   36loPI   C1B  573  10.723   0.047   9.539  0.1306  0.5413 -0.2375
   36loPI   C2B  574  10.816  -0.080   9.165 -0.2872 -0.1553  0.4310
   36loPI   C3B  575  10.759  -0.231   8.621 -0.1343 -0.4264 -0.2736
   36loPI   C4B  576  10.711  -0.331   8.138  0.1629 -0.4879  0.2235
   37loPI    C1  577  15.024  15.340  10.427  0.0141  0.0756 -0.0770
   37loPI    C2  578  14.647  15.329  10.293 -0.0994 -0.1984  0.2493
   37loPI    C3  579  14.719  15.383  10.683  0.2083  0.0542  0.1616
   37loPI   PO4  580  15.138  15.137  10.240  0.1405  0.0353 -0.1005
   37loPI   GL1  581  14.991  15.088   9.898  0.1398  0.0551  0.0835
   37loPI   GL2  582  14.777  14.822   9.917 -0.2514 -0.2127 -0.0567
   37loPI   C1A  583  14.581  15.354   9.704 -0.0610  0.2745  0.2342
   37loPI   C2A  584  14.377  15.381   9.340 -0.2892  0.1480  0.1627
   37loPI   C3A  585  14.255  15.384   8.810  0.2350 -0.1653  0.0301
   37loPI   C4A  586  14.037  15.471   8.412  0.0421  0.2118 -0.0045
   37loPI   C5A  587  13.982  15.810   8.212  0.2017 -0.1550  0.1470
   37loPI   C6A  588  14.186  16.057   8.018  0.0736 -0.3138 -0.2019
   37loPI   C1B  589  14.453  14.918   9.535  0.2517 -0.1199 -0.0487
   37loPI   C2B  590  14.221  14.826   9.195 -0.3347 -0.3564  0.2470
   37loPI   C3B  591  14.173  14.661   8.879  0.2164 -0.1677  0.2342
   37loPI   C4B  592  13.977  14.465   8.507 -0.2546 -0.2452 -0.0353
   38loPI    C1  593   9.088  12.497  10.310  0.1797 -0.1490  0.1203
   38loPI    C2  594   8.959  12.241  10.031 -0.3317 -0.0602  0.2659
   38loPI    C3  595   9.071  12.106  10.391  0.2247 -0.1628  0.0642
   38loPI   PO4  596   9.039  12.734  10.231 -0.2953  0.0917  0.0546
   38loPI   GL1  597   9.093  12.881   9.852 -0.4412 -0.1233 -0.0902
   38loPI   GL2  598   8.862  12.664   9.735  0.2776 -0.3284 -0.5413
   38loPI   C1A  599   9.416  12.938   9.560 -0.0693  0.0495 -0.3459
   38loPI   C2A  600   9.420  12.859   9.175  0.1559 -0.1212  0.0313
   38loPI   C3A  601   9.557  12.970   8.672 -0.2539 -0.1254 -0.0827
   38loPI   C4A  602   9.874  12.961   8.360  0.1078 -0.0161  0.1457
   38loPI   C5A  603  10.293  13.080   8.058  0.0043  0.2960  0.3284
   38loPI   C6A  604  10.641  13.397   8.015 -0.0031 -0.1598 -0.0770
   38loPI   C1B  605   8.972  12.642   9.334  0.2841  0.1395  0.1197
   38loPI   C2B  606   8.795  12.664   9.016  0.0440  0.0072 -0.1736
   38loPI   C3B  607   8.443  12.741   8.764  0.0764  0.0469 -0.1268
   38loPI   C4B  608   8.602  12.878   8.376 -0.0420 -0.1237 -0.0820
   39loPI    C1  609   2.317   0.481  10.191 -0.0793  0.1345  0.0373
   39loPI    C2  610   1.945   0.400  10.313 -0.0612 -0.0223 -0.0096
   39loPI    C3  611   2.234   0.129  10.360  0.0275  0.0634 -0.0575
   39loPI   PO4  612   2.299   0.735  10.022  0.2057 -0.2170 -0.2024
   39loPI   GL1  613   2.025   0.833   9.756 -0.1544  0.0119  0.0653
   39loPI   GL2  614   1.924   0.473   9.802 -0.0552 -0.1852 -0.1537
   39loPI   C1A  615   1.879   0.726   9.376 -0.0785 -0.2185  0.1482
   39loPI   C2A  616   1.758   0.674   8.950  0.0804 -0.1757 -0.1226
   39loPI   C3A  617   1.649   0.839   8.614  0.1148 -0.0513 -0.0308
   39loPI   C4A  618   1.800   0.753   8.268  0.1045  0.3070 -0.1967
   39loPI   C5A  619   2.080   0.602   7.924 -0.0007  0.1689 -0.0005
   39loPI   C6A  620   2.429   0.316   7.820  0.2120  0.0258  0.0117
   39loPI   C1B  621   2.070   0.259   9.547  0.2489  0.2052 -0.2610
   39loPI   C2B  622   2.102   0.250   9.179  0.0585 -0.3502 -0.1284
   39loPI   C3B  623   2.160   0.266   8.750 -0.0257  0.0805 -0.1693
   39loPI   C4B  624   2.201   0.338   8.303 -0.4587  0.0775  0.1290
   40loPI    C1  625  17.556  12.664  10.276  0.4362 -0.0403  0.2304
   40loPI    C2  626  17.416  12.470  10.596 -0.1515 -0.0043  0.0075
   40loPI    C3  627  17.325  12.855  10.541 -0.0021  0.0064 -0.1722
   40loPI   PO4  628  17.534  12.557   9.995  0.0536  0.0187  0.0231
   40loPI   GL1  629  17.774  12.750   9.604 -0.0115 -0.0926 -0.4117
   40loPI   GL2  630  17.924  12.985   9.541 -0.1313 -0.3393 -0.1218
   40loPI   C1A  631  17.751  12.619   9.226  0.3274 -0.3298  0.0775
   40loPI   C2A  632  17.793  12.612   8.805  0.1113 -0.2847  0.2302
   40loPI   C3A  633  17.774  12.309   8.571 -0.0883  0.0519  0.0878
   40loPI   C4A  634  17.936  12.285   8.149  0.3795 -0.0635 -0.1782
   40loPI   C5A  635  18.231  12.073   7.744  0.3507 -0.0231 -0.1156
   40loPI   C6A  636  18.284  11.776   7.590  0.3107  0.2563  0.0491
   40loPI   C1B  637  17.808  13.079   9.098 -0.0894 -0.0982  0.0002
   40loPI   C2B  638  17.789  13.153   8.618 -0.2088 -0.2458  0.2607
   40loPI   C3B  639  17.748  13.178   8.149  0.0525  0.1493 -0.1368
   40loPI   C4B  640  17.754  13.483   7.944 -0.1254  0.2907  0.1199
   41loPI    C1  641   5.332  13.296  10.345 -0.0127 -0.0578 -0.1048
   41loPI    C2  642   5.312  12.898  10.378 -0.0838 -0.0302  0.2092
   41loPI    C3  643   5.222  13.130  10.692  0.1071  0.2303  0.0748
   41loPI   PO4  644   5.275  13.363  10.152 -0.0820  0.3824  0.1105
   41loPI   GL1  645   5.187  13.200   9.757  0.0998  0.1066 -0.0406
   41loPI   GL2  646   5.227  12.846   9.834  0.3320  0.2513 -0.0479
   41loPI   C1A  647   5.177  13.428   9.432  0.2279 -0.0424 -0.3100
   41loPI   C2A  648   5.095  13.688   9.087  0.1696 -0.3543 -0.0269
   41loPI   C3A  649   5.218  13.962   8.696  0.0612  0.0272  0.0952
   41loPI   C4A  650   5.197  14.093   8.223 -0.1216  0.1349 -0.0996
   41loPI   C5A  651   5.227  13.956   7.809  0.1370 -0.0142  0.1236
   41loPI   C6A  652   5.511  14.214   7.511  0.0147  0.2695  0.2347
   41loPI   C1B  653   5.117  12.865   9.324 -0.0356 -0.3773 -0.0158
   41loPI   C2B  654   5.112  12.880   8.845  0.0731  0.1826 -0.2944
   41loPI   C3B  655   5.314  13.104   8.489  0.2115 -0.1335 -0.2145
   41loPI   C4B  656   5.309  13.128   8.105 -0.1064 -0.3137 -0.0182
   42loPI    C1  657  12.270  10.381  11.113  0.1523  0.2340  0.0613
   42loPI    C2  658  12.389  10.593  11.431  0.1556  0.0853  0.1604
   42loPI    C3  659  12.121  10.300  11.475 -0.1613  0.3379 -0.0417
   42loPI   PO4  660  12.439  10.479  10.960 -0.0236  0.1182 -0.1130
   42loPI   GL1  661  12.392  10.360  10.578  0.0847  0.1948 -0.0754
   42loPI   GL2  662  12.408  10.514  10.347  0.0475  0.1466  0.0671
   42loPI   C1A  663  12.468  10.027  10.302  0.3074 -0.1547  0.0474
   42loPI   C2A  664  12.525   9.792  10.048 -0.0797  0.1637 -0.0318
   42loPI   C3A  665  12.671   9.864   9.675  0.0468 -0.0082 -0.1090
   42loPI   C4A  666  12.667   9.804   9.233 -0.1320 -0.3492 -0.0583
   42loPI   C5A  667  12.597   9.694   8.878  0.0856 -0.1614 -0.0731
   42loPI   C6A  668  12.537   9.771   8.419 -0.0205  0.1881 -0.0926
   42loPI   C1B  669  12.444  10.348   9.912 -0.0350  0.0257 -0.0517
   42loPI   C2B  670  12.419  10.259   9.469 -0.0645 -0.2663 -0.0356
   42loPI   C3B  671  12.422  10.230   9.051  0.0765 -0.2872 -0.1185
   42loPI   C4B  672  12.234  10.138   8.626 -0.0349 -0.0043 -0.1309
   43loPI    C1  673   9.111  13.820  10.739  0.2013 -0.1743  0.1314
   43loPI    C2  674   8.730  13.928  10.793  0.1785 -0.1782 -0.0179
   43loPI    C3  675   9.014  14.069  11.036  0.0795 -0.1910  0.1062
   43loPI   PO4  676   9.101  13.818  10.490 -0.0856 -0.1547 -0.1678
   43loPI   GL1  677   9.337  13.675  10.150 -0.2308  0.0841 -0.2666
   43loPI   GL2  678   9.605  13.610  10.330 -0.1896  0.1577 -0.1072
   43loPI   C1A  679   9.449  13.410   9.846 -0.1563 -0.1372  0.0685
   43loPI   C2A  680   9.582  13.409   9.406  0.1322  0.0509 -0.0662
   43loPI   C3A  681   9.797  13.424   9.098 -0.2300  0.2474 -0.0418
   43loPI   C4A  682   9.924  13.358   8.661 -0.2248 -0.1214 -0.2160
   43loPI   C5A  683   9.839  13.576   8.269 -0.2131  0.0279  0.0769
   43loPI   C6A  684   9.563  13.899   8.180  0.0346  0.0049 -0.2673
   43loPI   C1B  685   9.782  13.852  10.044  0.1218  0.0832 -0.0954
   43loPI   C2B  686   9.569  13.892   9.579 -0.1834 -0.2130 -0.2548
   43loPI   C3B  687   9.635  13.921   9.154  0.1427 -0.0152  0.0137
   43loPI   C4B  688   9.587  13.895   8.734 -0.1141  0.1279  0.0306
   44loPI    C1  689   1.842  11.464  10.123  0.1889 -0.0367  0.0895
   44loPI    C2  690   1.632  11.328  10.435  0.0698  0.1571  0.0959
   44loPI    C3  691   1.859  11.655  10.474 -0.0515  0.2605 -0.0559
   44loPI   PO4  692   1.651  11.466   9.974 -0.0378 -0.0376 -0.3203
   44loPI   GL1  693   1.672  11.536   9.565 -0.2394 -0.3539  0.1627
   44loPI   GL2  694   1.903  11.716   9.511 -0.0253 -0.0644  0.0471
   44loPI   C1A  695   1.572  11.562   9.132 -0.1067 -0.1809  0.1113
   44loPI   C2A  696   1.460  11.653   8.683  0.1162  0.2902 -0.2048
   44loPI   C3A  697   1.155  11.776   8.366  0.3200 -0.2929  0.1854
   44loPI   C4A  698   0.932  11.973   8.047  0.1610  0.2301  0.0671
   44loPI   C5A  699   0.689  12.037   7.704  0.0741 -0.3803  0.2056
   44loPI   C6A  700   0.530  12.147   7.407  0.3396  0.1907  0.0017
   44loPI   C1B  701   2.110  11.602   9.141  0.3584 -0.0376 -0.0004
   44loPI   C2B  702   1.993  11.573   8.804  0.0013 -0.1241  0.0771
   44loPI   C3B  703   1.974  11.665   8.470 -0.0952  0.0108  0.0058
   44loPI   C4B  704   1.633  11.805   8.238 -0.1179 -0.1234 -0.0301
   45loPI    C1  705  17.806  15.650  10.456  0.2048  0.3729  0.0541
   45loPI    C2  706  17.722  15.944  10.713 -0.2587  0.1785  0.1342
   45loPI    C3  707  17.674  15.562  10.823 -0.0926  0.0833 -0.1167
   45loPI   PO4  708  17.761  15.656  10.208 -0.1651  0.5224 -0.0463
   45loPI   GL1  709  17.760  15.587   9.783 -0.4525  0.3241 -0.0191
   45loPI   GL2  710  18.040  15.507   9.602  0.2727 -0.1450  0.1221
   45loPI   C1A  711  17.498  15.458   9.461  0.2200 -0.1399 -0.0383
   45loPI   C2A  712  17.110  15.272   9.336  0.2193  0.0876  0.2271
   45loPI   C3A  713  16.915  15.368   9.030 -0.1413 -0.1885  0.1106
   45loPI   C4A  714  16.908  15.430   8.550 -0.0038 -0.4698  0.1721
   45loPI   C5A  715  16.940  15.402   8.211  0.1623  0.0556 -0.1635
   45loPI   C6A  716  16.516  15.408   7.898 -0.0263  0.1011  0.2125
   45loPI   C1B  717  17.934  15.564   9.181  0.0177 -0.0363 -0.2561
   45loPI   C2B  718  18.053  15.757   8.830 -0.1689 -0.0956 -0.2082
   45loPI   C3B  719  18.086  15.915   8.416  0.0174  0.2224 -0.3940
   45loPI   C4B  720  18.118  16.007   7.952 -0.0347  0.1138  0.0885
   46loPI    C1  721   5.030  13.751  10.366 -0.2811 -0.2167  0.1460
   46loPI    C2  722   4.851  13.947  10.665 -0.0074 -0.0958  0.2341
   46loPI    C3  723   4.990  13.576  10.724 -0.1323 -0.1494  0.1962
   46loPI   PO4  724   4.929  13.942  10.171  0.0825 -0.0309 -0.2501
   46loPI   GL1  725   5.107  14.307   9.959  0.2458  0.0881  0.1933
   46loPI   GL2  726   5.071  14.550   9.759  0.2274  0.3717 -0.1274
   46loPI   C1A  727   5.088  14.114   9.522 -0.0258 -0.4965  0.0112
   46loPI   C2A  728   5.025  14.240   9.114  0.1529  0.2463  0.2491
   46loPI   C3A  729   4.936  14.446   8.752 -0.1101 -0.0727 -0.4286
   46loPI   C4A  730   4.905  14.487   8.315 -0.0968  0.1807 -0.1227
   46loPI   C5A  731   4.882  14.443   7.924 -0.1085  0.1322 -0.0649
   46loPI   C6A  732   4.960  14.414   7.518  0.0109  0.1460  0.1233
   46loPI   C1B  733   5.374  14.596   9.363  0.0772 -0.1540 -0.1582
   46loPI   C2B  734   5.436  14.451   8.898 -0.0428  0.2183  0.0586
   46loPI   C3B  735   5.513  14.400   8.466 -0.2573 -0.2450  0.2753
   46loPI   C4B  736   5.366  14.454   7.951 -0.1533  0.3030 -0.3372
   47loPI    C1  737  11.235   2.054  10.871 -0.0412  0.0021 -0.1274
   47loPI    C2  738  11.448   2.352  11.031  0.0136 -0.1697  0.1255
   47loPI    C3  739  11.061   2.311  11.123  0.0181 -0.2049  0.1289
   47loPI   PO4  740  11.267   2.133  10.591  0.1232  0.0231  0.0339
   47loPI   GL1  741  11.012   2.239  10.192 -0.0759  0.1692 -0.1452
   47loPI   GL2  742  11.115   1.930  10.147 -0.2676  0.0051 -0.1796
   47loPI   C1A  743  10.825   2.444   9.878  0.2002  0.1365 -0.3548
   47loPI   C2A  744  10.880   2.473   9.438  0.2789  0.1899 -0.2669
   47loPI   C3A  745  10.742   2.606   9.109  0.3414 -0.1537  0.0657
   47loPI   C4A  746  10.634   2.638   8.700  0.1667  0.2972  0.0688
   47loPI   C5A  747  10.516   2.540   8.244 -0.2718 -0.1791  0.1498
   47loPI   C6A  748  10.227   2.507   8.029  0.1167 -0.0281 -0.1377
   47loPI   C1B  749  11.180   2.114   9.669  0.0437  0.1314 -0.2366
   47loPI   C2B  750  11.233   2.174   9.278 -0.0846 -0.0989  0.1163
   47loPI   C3B  751  11.156   2.400   8.880 -0.0992 -0.4018 -0.0918
   47loPI   C4B  752  10.956   2.390   8.453 -0.0765  0.0186 -0.1694
   48loPI    C1  753   8.114   2.181  10.595 -0.0624  0.0840  0.0078
   48loPI    C2  754   8.351   2.060  10.893 -0.0069 -0.2203 -0.1560
   48loPI    C3  755   7.979   2.181  10.972  0.0999 -0.0288  0.0674
   48loPI   PO4  756   8.240   2.210  10.426  0.2814 -0.0932  0.1099
   48loPI   GL1  757   8.214   2.430  10.067 -0.2545  0.1385 -0.0569
   48loPI   GL2  758   8.227   1.993   9.963 -0.2271 -0.2240 -0.0943
   48loPI   C1A  759   7.917   2.363   9.731  0.1245  0.0377 -0.0351
   48loPI   C2A  760   7.991   2.400   9.321  0.0112  0.1884 -0.0784
   48loPI   C3A  761   7.941   2.252   8.903 -0.1177 -0.0649 -0.5350
   48loPI   C4A  762   7.849   1.929   8.642  0.0785  0.1156 -0.0096
   48loPI   C5A  763   7.818   1.565   8.304 -0.2311  0.1102 -0.1354
   48loPI   C6A  764   7.958   1.246   7.941 -0.4794  0.1869  0.1829
   48loPI   C1B  765   8.417   2.270   9.608 -0.1396 -0.1271  0.2041
   48loPI   C2B  766   8.450   2.643   9.338 -0.2282 -0.4586  0.0223
   48loPI   C3B  767   8.324   2.664   8.897 -0.1020 -0.2571  0.1071
   48loPI   C4B  768   8.163   2.437   8.498 -0.1871  0.3041 -0.1409
   49loPI    C1  769   8.553  15.484  10.516 -0.0325 -0.2463  0.0574
   49loPI    C2  770   8.253  15.679  10.695  0.0668 -0.0018 -0.0381
   49loPI    C3  771   8.438  15.379  10.884 -0.1323 -0.0493  0.0838
   49loPI   PO4  772   8.558  15.564  10.336  0.1720 -0.1042  0.2400
   49loPI   GL1  773   8.714  15.538   9.920  0.0488 -0.1368  0.0402
   49loPI   GL2  774   8.939  15.465   9.728 -0.1722 -0.0444  0.0604
   49loPI   C1A  775   8.518  15.702   9.427 -0.4506  0.0050  0.1302
   49loPI   C2A  776   8.088  15.643   9.266 -0.2869 -0.1516 -0.2503
   49loPI   C3A  777   7.871  15.712   8.934  0.1434  0.0740  0.4322
   49loPI   C4A  778   7.753  15.986   8.669  0.0013 -0.1526  0.0872
   49loPI   C5A  779   7.740  16.218   8.338 -0.0391 -0.3991 -0.0831
   49loPI   C6A  780   7.548  16.372   7.999 -0.0915  0.2213  0.1499
   49loPI   C1B  781   8.975  15.291   9.414  0.0994  0.0821 -0.0597
   49loPI   C2B  782   9.071  15.136   9.164  0.0702  0.2382  0.2041
   49loPI   C3B  783   8.881  15.123   8.768 -0.3435 -0.1233 -0.0024
   49loPI   C4B  784   8.756  14.970   8.353 -0.1680  0.1839 -0.0287
   50loPI    C1  785   7.469  14.319  10.494  0.1105  0.2354 -0.0680
   50loPI    C2  786   7.469  14.285  10.893  0.1799  0.0292 -0.0841
   50loPI    C3  787   7.794  14.421  10.703  0.1510  0.1163 -0.0717
   50loPI   PO4  788   7.326  14.480  10.393 -0.0789 -0.0699  0.0387
   50loPI   GL1  789   7.304  14.640  10.081 -0.2148 -0.0875 -0.1794
   50loPI   GL2  790   7.366  14.332   9.871  0.2141 -0.1374 -0.3278
   50loPI   C1A  791   7.281  14.819   9.572 -0.1505  0.2982 -0.0285
   50loPI   C2A  792   7.171  14.847   9.178  0.1465  0.0930 -0.0562
   50loPI   C3A  793   7.194  15.013   8.708  0.4426 -0.3404  0.1416
   50loPI   C4A  794   7.126  15.091   8.263  0.2228 -0.2267 -0.1453
   50loPI   C5A  795   7.069  15.355   7.981 -0.2926 -0.2244 -0.0130
   50loPI   C6A  796   6.815  15.708   7.899 -0.2113  0.2358  0.0970
   50loPI   C1B  797   7.370  14.356   9.437  0.2093  0.2117 -0.0797
   50loPI   C2B  798   7.463  14.461   8.997 -0.0472  0.1581  0.2226
   50loPI   C3B  799   7.531  14.471   8.650 -0.0500 -0.1720  0.0034
   50loPI   C4B  800   7.512  14.631   8.247  0.1069 -0.1723  0.1802
   51loPI    C1  801  17.572  15.175  10.419  0.1406 -0.1263  0.0717
   51loPI    C2  802  17.286  15.453  10.379  0.1395 -0.1640 -0.2068
   51loPI    C3  803  17.316  15.243  10.719 -0.0047  0.0147 -0.0819
   51loPI   PO4  804  17.490  14.970  10.223  0.1430  0.1571 -0.0460
   51loPI   GL1  805  17.561  14.758   9.885  0.1656 -0.0623 -0.0677
   51loPI   GL2  806  17.281  14.974   9.787  0.2328 -0.0019  0.0017
   51loPI   C1A  807  17.893  14.931   9.537  0.0232  0.0460 -0.0271
   51loPI   C2A  808  18.034  15.030   9.153  0.0428 -0.0245  0.0393
   51loPI   C3A  809  17.963  15.225   8.740  0.3158  0.3329  0.0050
   51loPI   C4A  810  17.871  15.410   8.443  0.2363 -0.0786  0.0541
   51loPI   C5A  811  18.158  15.546   8.130  0.0560 -0.1836  0.1623
   51loPI   C6A  812  18.191  15.680   7.572 -0.4905 -0.0643  0.0679
   51loPI   C1B  813  17.378  14.849   9.393  0.3914 -0.0538  0.2501
   51loPI   C2B  814  17.531  15.084   9.053  0.0729 -0.1147  0.0858
   51loPI   C3B  815  17.508  15.454   8.887 -0.0187  0.0312  0.1969
   51loPI   C4B  816  17.427  15.558   8.536 -0.1090 -0.0465 -0.0792
   52loPI    C1  817  18.058  17.941  10.381  0.0008  0.0423 -0.0390
   52loPI    C2  818  17.870  17.632  10.552 -0.0989 -0.0203 -0.2576
   52loPI    C3  819  18.270  17.641  10.540 -0.0937 -0.0851 -0.1506
   52loPI   PO4  820  17.861  18.044  10.231  0.1499  0.3249 -0.2333
   52loPI   GL1  821  17.714  17.913   9.886  0.1577  0.0795 -0.2762
   52loPI   GL2  822  17.906  18.064   9.725 -0.0793 -0.1031 -0.1550
   52loPI   C1A  823  17.421  18.103   9.522  0.0457 -0.1387 -0.0721
   52loPI   C2A  824  17.242  17.978   9.101 -0.1824 -0.3217 -0.0538
   52loPI   C3A  825  17.052  18.070   8.777  0.0607  0.0993 -0.0950
   52loPI   C4A  826  16.924  17.902   8.335 -0.0495 -0.2486 -0.1542
   52loPI   C5A  827  16.897  17.829   7.949 -0.1268 -0.0432  0.0248
   52loPI   C6A  828  16.618  17.765   7.637  0.0574  0.2412  0.2619
   52loPI   C1B  829  17.870  17.989   9.390  0.1012  0.1047  0.2503
   52loPI   C2B  830  17.781  18.182   9.037 -0.1152  0.0279 -0.2957
   52loPI   C3B  831  17.714  18.090   8.616 -0.1731 -0.3004  0.0406
   52loPI   C4B  832  17.793  18.131   8.192  0.1105 -0.0837  0.1576
   53loPI    C1  833  11.822  11.239  10.980 -0.0283 -0.0532  0.1813
   53loPI    C2  834  11.772  11.613  11.112  0.1173 -0.0215  0.1484
   53loPI    C3  835  12.018  11.364  11.306  0.2875  0.0077 -0.0266
   53loPI   PO4  836  11.711  11.236  10.724  0.0091  0.1719  0.1514
   53loPI   GL1  837  11.618  11.064  10.418  0.0497 -0.1932  0.3683
   53loPI   GL2  838  11.573  11.351  10.263  0.0793 -0.0022 -0.1065
   53loPI   C1A  839  11.497  10.892  10.020 -0.3087 -0.1059 -0.1494
   53loPI   C2A  840  11.604  10.739   9.551  0.1569  0.1467 -0.3040
   53loPI   C3A  841  11.476  10.625   9.123 -0.1933 -0.1328  0.0157
   53loPI   C4A  842  11.483  10.594   8.697 -0.0921  0.0361  0.3149
   53loPI   C5A  843  11.781  10.512   8.359  0.2010 -0.0049 -0.0778
   53loPI   C6A  844  11.703  10.372   7.958  0.1856  0.1492 -0.1751
   53loPI   C1B  845  11.526  11.422   9.870 -0.0231 -0.0187  0.0946
   53loPI   C2B  846  11.388  11.424   9.358 -0.0393 -0.2968 -0.2202
   53loPI   C3B  847  11.534  11.504   8.966 -0.0023 -0.3361 -0.5485
   53loPI   C4B  848  11.661  11.439   8.502  0.0427  0.0918 -0.0606
   54loPI    C1  849  13.625   7.552  10.393  0.1604  0.2342 -0.0748
   54loPI    C2  850  13.993   7.590  10.545  0.0774 -0.1446  0.2369
   54loPI    C3  851  13.673   7.646  10.778 -0.0607 -0.1091  0.0412
   54loPI   PO4  852  13.644   7.574  10.098 -0.2649 -0.0852 -0.0340
   54loPI   GL1  853  13.752   7.794   9.738  0.0884 -0.1979 -0.0374
   54loPI   GL2  854  13.693   8.108   9.967 -0.3539 -0.1893 -0.2416
   54loPI   C1A  855  13.652   8.029   9.337  0.2056  0.1768 -0.1749
   54loPI   C2A  856  13.626   8.004   8.896 -0.1303  0.1378  0.1467
   54loPI   C3A  857  13.522   7.863   8.479 -0.1060 -0.2049  0.1291
   54loPI   C4A  858  13.575   7.614   8.031 -0.2231 -0.2006  0.1267
   54loPI   C5A  859  13.504   7.245   7.809 -0.1944  0.0386  0.1166
   54loPI   C6A  860  13.639   6.889   7.696  0.3833 -0.1031 -0.3243
   54loPI   C1B  861  13.554   8.431   9.675 -0.1012 -0.4037  0.0388
   54loPI   C2B  862  13.534   8.513   9.225  0.1140  0.2347 -0.2283
   54loPI   C3B  863  13.392   8.452   8.811  0.1513  0.0521  0.1435
   54loPI   C4B  864  13.246   8.341   8.376  0.1564  0.1000 -0.0909
   55loPI    C1  865   6.704   4.694  10.208  0.3219  0.0445 -0.0229
   55loPI    C2  866   6.449   4.652  10.513  0.0401 -0.0270 -0.2641
   55loPI    C3  867   6.600   5.012  10.427  0.0073  0.0193 -0.1309
   55loPI   PO4  868   6.594   4.620   9.982 -0.0506 -0.1607  0.3079
   55loPI   GL1  869   6.224   4.571   9.686  0.0549 -0.0054 -0.1978
   55loPI   GL2  870   6.480   4.652   9.495 -0.1636 -0.1544  0.1651
   55loPI   C1A  871   5.980   4.655   9.345  0.0341 -0.0151  0.0122
   55loPI   C2A  872   5.987   4.722   8.951 -0.1565  0.0023  0.1231
   55loPI   C3A  873   5.976   4.598   8.531  0.0082 -0.0839  0.2063
   55loPI   C4A  874   5.966   4.419   8.193  0.1160  0.2816  0.1039
   55loPI   C5A  875   5.629   4.328   7.888 -0.2020 -0.0351  0.1231
   55loPI   C6A  876   5.418   4.353   7.437  0.0444  0.0919  0.1758
   55loPI   C1B  877   6.445   4.651   9.073  0.2158  0.0851 -0.0936
   55loPI   C2B  878   6.474   4.587   8.652 -0.4414 -0.0430  0.0654
   55loPI   C3B  879   6.414   4.628   8.312 -0.0080 -0.2103  0.0098
   55loPI   C4B  880   6.491   5.138   8.030 -0.1267 -0.0478  0.0518
   56loPI    C1  881   8.503  12.153  10.469  0.1103 -0.1057  0.0456
   56loPI    C2  882   8.710  11.971  10.759  0.1304  0.2245  0.2430
   56loPI    C3  883   8.759  12.363  10.693 -0.2152  0.2471  0.0979
   56loPI   PO4  884   8.543  12.002  10.274  0.0830 -0.3014  0.0683
   56loPI   GL1  885   8.664  11.753   9.878 -0.2083 -0.2303  0.0597
   56loPI   GL2  886   8.644  11.444   9.800  0.0313  0.1361 -0.1265
   56loPI   C1A  887   8.353  11.807   9.586  0.2313  0.0435  0.1971
   56loPI   C2A  888   8.284  11.784   9.128 -0.1358 -0.2584  0.1194
   56loPI   C3A  889   8.304  11.611   8.706 -0.0152 -0.0797  0.3666
   56loPI   C4A  890   8.269  11.446   8.259 -0.0255  0.2819 -0.2062
   56loPI   C5A  891   8.004  11.642   7.886  0.3635 -0.4141  0.0468
   56loPI   C6A  892   8.018  11.896   7.610 -0.0916 -0.3054 -0.0038
   56loPI   C1B  893   8.774  11.607   9.342  0.0663  0.1416  0.0650
   56loPI   C2B  894   8.780  11.688   8.983  0.1358  0.2711  0.1780
   56loPI   C3B  895   8.777  11.426   8.611  0.1016  0.2623  0.0832
   56loPI   C4B  896   8.755  11.303   8.220 -0.5848  0.1821  0.1432
   57loPI    C1  897   2.882   7.484  10.523  0.2307 -0.2850  0.0182
   57loPI    C2  898   3.032   7.116  10.471  0.3566 -0.2255 -0.0436
   57loPI    C3  899   3.268   7.412  10.602  0.2990 -0.1259 -0.1627
   57loPI   PO4  900   2.751   7.569  10.226 -0.1541  0.0356  0.2332
   57loPI   GL1  901   2.714   7.909   9.978 -0.1174  0.0750 -0.0593
   57loPI   GL2  902   3.008   7.957   9.677 -0.1287 -0.3413 -0.1380
   57loPI   C1A  903   2.611   8.239   9.586  0.3278  0.2032  0.1933
   57loPI   C2A  904   2.505   8.191   9.138 -0.1348 -0.1326 -0.0743
   57loPI   C3A  905   2.581   8.278   8.766  0.0942 -0.2258 -0.1967
   57loPI   C4A  906   2.463   8.201   8.514 -0.0793  0.1843 -0.1195
   57loPI   C5A  907   2.541   8.361   8.106 -0.1516  0.3712 -0.1285
   57loPI   C6A  908   2.616   8.410   7.738  0.1030  0.1758 -0.0131
   57loPI   C1B  909   2.932   8.053   9.296 -0.2490  0.2169 -0.4229
   57loPI   C2B  910   3.029   8.065   8.947 -0.2522  0.0883 -0.2839
   57loPI   C3B  911   2.992   8.142   8.532 -0.0900 -0.0600 -0.0499
   57loPI   C4B  912   3.039   8.282   8.113  0.2313 -0.0758 -0.1207
   58loPI    C1  913  13.783  11.383  10.488 -0.1303  0.1320 -0.2760
   58loPI    C2  914  13.408  11.405  10.624  0.0063  0.1055  0.1189
   58loPI    C3  915  13.650  11.113  10.752  0.1117  0.0172 -0.2683
   58loPI   PO4  916  13.770  11.566  10.225 -0.0035 -0.3204 -0.0702
   58loPI   GL1  917  14.118  11.658  10.020 -0.3075  0.0675  0.3510
   58loPI   GL2  918  14.445  11.701   9.954  0.0494 -0.2742 -0.2571
   58loPI   C1A  919  14.224  11.655   9.524 -0.0149  0.2374 -0.0525
   58loPI   C2A  920  14.232  11.667   9.069 -0.1597  0.0093  0.1689
   58loPI   C3A  921  14.101  11.502   8.684  0.0722  0.1352  0.1231
   58loPI   C4A  922  13.970  11.594   8.224  0.2141 -0.0271  0.1697
   58loPI   C5A  923  13.775  11.903   8.016 -0.2884 -0.0893 -0.1880
   58loPI   C6A  924  13.511  12.069   7.660  0.4094  0.2130 -0.0687
   58loPI   C1B  925  14.744  11.718   9.639  0.2088  0.2723 -0.1457
   58loPI   C2B  926  14.739  11.743   9.171  0.2889  0.0564 -0.2026
   58loPI   C3B  927  14.644  11.492   8.749 -0.0807  0.1020  0.1018
   58loPI   C4B  928  14.620  11.485   8.286  0.0156 -0.1720 -0.1996
   59loPI    C1  929   5.697  15.604  10.705 -0.2592  0.1097 -0.1554
   59loPI    C2  930   5.488  15.270  10.776  0.0820 -0.0909 -0.0710
   59loPI    C3  931   5.623  15.491  11.081  0.4117 -0.2325 -0.1092
   59loPI   PO4  932   5.770  15.569  10.442  0.2097  0.1897 -0.1156
   59loPI   GL1  933   5.783  15.421   9.973 -0.0385  0.1896 -0.1178
   59loPI   GL2  934   6.088  15.419   9.847 -0.1929 -0.2345 -0.0544
   59loPI   C1A  935   5.470  15.466   9.716  0.3239  0.1671 -0.0992
   59loPI   C2A  936   5.387  15.424   9.229 -0.1831  0.0583  0.2444
   59loPI   C3A  937   5.449  15.336   8.819 -0.0687  0.0898  0.0356
   59loPI   C4A  938   5.416  15.298   8.334  0.0005  0.2033 -0.0250
   59loPI   C5A  939   5.652  15.180   7.948  0.0574 -0.3425  0.0797
   59loPI   C6A  940   6.098  15.042   7.898 -0.3597 -0.1971  0.2003
   59loPI   C1B  941   5.902  15.408   9.417 -0.1953  0.2314 -0.0482
   59loPI   C2B  942   5.931  15.360   8.924 -0.1257 -0.0754 -0.1005
   59loPI   C3B  943   5.946  15.381   8.492  0.0709  0.2499  0.0774
   59loPI   C4B  944   6.026  15.515   8.091 -0.2564 -0.1784 -0.1467
   60loPI    C1  945   3.388  16.451  10.380  0.1804  0.1133 -0.0243
   60loPI    C2  946   3.621  16.435  10.704 -0.0391  0.0165  0.1316
   60loPI    C3  947   3.263  16.256  10.707 -0.1490  0.2284 -0.0770
   60loPI   PO4  948   3.484  16.699  10.273  0.1760 -0.2985  0.1392
   60loPI   GL1  949   3.309  16.786   9.885 -0.0276  0.1430 -0.1873
   60loPI   GL2  950   3.109  16.826   9.711  0.1890  0.3569  0.0007
   60loPI   C1A  951   3.504  16.653   9.458 -0.0110  0.0615 -0.0547
   60loPI   C2A  952   3.496  16.634   8.985  0.2306  0.2463  0.3810
   60loPI   C3A  953   3.551  16.711   8.540 -0.0624  0.0428 -0.0389
   60loPI   C4A  954   3.498  16.755   8.139  0.0829 -0.1063 -0.1800
   60loPI   C5A  955   3.428  16.930   7.612  0.0127  0.2097  0.0140
   60loPI   C6A  956   3.349  17.265   7.259  0.3844 -0.0822  0.0695
   60loPI   C1B  957   3.194  16.975   9.243 -0.0287  0.0524  0.1925
   60loPI   C2B  958   3.269  17.125   8.810 -0.0544 -0.3197  0.0517
   60loPI   C3B  959   3.278  17.172   8.393 -0.0411  0.0804  0.2205
   60loPI   C4B  960   3.228  17.241   7.952  0.0339  0.2801  0.0935
   61loPI    C1  961  16.017   1.206  10.544  0.0474  0.1798 -0.3006
   61loPI    C2  962  15.906   1.382  10.886 -0.0710  0.0128 -0.2522
   61loPI    C3  963  16.279   1.244  10.844 -0.0775 -0.0329 -0.1619
   61loPI   PO4  964  15.820   1.226  10.378  0.1271  0.2968 -0.1618
   61loPI   GL1  965  15.801   1.098  10.026  0.1937 -0.2155 -0.2345
   61loPI   GL2  966  15.903   1.374   9.902  0.0525  0.3729 -0.0045
   61loPI   C1A  967  15.612   1.129   9.568 -0.1589 -0.2096  0.0501
   61loPI   C2A  968  15.416   1.236   9.182  0.0875 -0.0322  0.0496
   61loPI   C3A  969  15.393   1.406   8.723 -0.1038  0.3298  0.1727
   61loPI   C4A  970  15.771   1.466   8.407 -0.2174  0.1122  0.2092
   61loPI   C5A  971  15.717   1.335   8.098  0.1981  0.0600  0.1242
   61loPI   C6A  972  15.602   0.915   7.840  0.1750 -0.0421  0.1693
   61loPI   C1B  973  15.814   1.500   9.382 -0.4785 -0.0725  0.1471
   61loPI   C2B  974  15.831   1.397   8.954  0.3307  0.0932 -0.1415
   61loPI   C3B  975  15.714   1.015   8.683  0.0618 -0.2020  0.1382
   61loPI   C4B  976  15.785   0.846   8.316  0.0354 -0.1260 -0.1068
   62loPI    C1  977  15.996   3.106  10.222 -0.0357  0.2842 -0.1572
   62loPI    C2  978  15.704   3.318  10.395  0.0673  0.2856  0.0171
   62loPI    C3  979  16.075   3.326  10.547  0.0606 -0.0632  0.0614
   62loPI   PO4  980  15.855   3.030   9.974  0.0450 -0.3060 -0.0331
   62loPI   GL1  981  15.731   3.186   9.643 -0.3136  0.1979  0.0262
   62loPI   GL2  982  15.992   3.381   9.535 -0.1683 -0.1641 -0.0353
   62loPI   C1A  983  15.468   2.960   9.238 -0.1647 -0.5106  0.1315
   62loPI   C2A  984  15.437   2.822   8.780  0.1797 -0.0701 -0.0364
   62loPI   C3A  985  15.493   2.692   8.411 -0.0639 -0.3354  0.0461
   62loPI   C4A  986  15.744   2.671   8.120  0.1005  0.1966 -0.2030
   62loPI   C5A  987  15.898   2.360   7.938 -0.0809 -0.2594  0.0431
   62loPI   C6A  988  16.235   2.185   7.724 -0.0227  0.3014 -0.0398
   62loPI   C1B  989  15.720   3.381   9.153  0.0635  0.0479  0.0503
   62loPI   C2B  990  15.602   3.301   8.692  0.4559  0.1656  0.1229
   62loPI   C3B  991  15.636   3.176   8.360 -0.3789 -0.0284  0.1459
   62loPI   C4B  992  15.872   3.126   7.988 -0.0596  0.1387 -0.1320
   63loPI    C1  993   0.322   5.531  10.260  0.0808  0.1349  0.1138
   63loPI    C2  994   0.538   5.358  10.549 -0.0745 -0.1679  0.0533
   63loPI    C3  995   0.142   5.303  10.535 -0.1067  0.0757 -0.0553
   63loPI   PO4  996   0.486   5.513   9.923 -0.0228 -0.0351 -0.2715
   63loPI   GL1  997   0.527   5.711   9.566 -0.0677 -0.1071 -0.0707
   63loPI   GL2  998   0.447   5.453   9.381 -0.1399 -0.3755  0.0972
   63loPI   C1A  999   0.838   5.807   9.235  0.0863 -0.1724  0.1464
   63loPI   C2A 1000   0.984   5.866   8.811  0.1645 -0.2936 -0.0468
   63loPI   C3A 1001   0.947   5.968   8.431 -0.1828  0.0517  0.0967
   63loPI   C4A 1002   1.118   6.039   8.089 -0.2877  0.1848 -0.2302
   63loPI   C5A 1003   1.509   6.058   7.914 -0.0691  0.2616 -0.0063
   63loPI   C6A 1004   1.834   5.780   7.909  0.0659 -0.5096 -0.2156
   63loPI   C1B 1005   0.464   5.595   8.959  0.1739 -0.0565 -0.1993
   63loPI   C2B 1006   0.496   5.696   8.562 -0.0696  0.1461 -0.0282
   63loPI   C3B 1007   0.271   5.840   8.207  0.3011  0.1787 -0.1638
   63loPI   C4B 1008   0.187   6.116   7.945 -0.2673  0.1167  0.1312
   64loPI    C1 1009   6.729   4.213  10.498 -0.0070 -0.2237 -0.0064
   64loPI    C2 1010   6.344   4.175  10.598 -0.0733  0.0366 -0.1532
   64loPI    C3 1011   6.624   3.969  10.796 -0.2516  0.1324  0.2056
   64loPI   PO4 1012   6.750   4.146  10.204 -0.0341 -0.1137 -0.0095
   64loPI   GL1 1013   6.989   4.249   9.845 -0.1739 -0.1080 -0.0453
   64loPI   GL2 1014   7.201   4.640   9.880  0.3843 -0.2528 -0.1070
   64loPI   C1A 1015   7.216   4.250   9.419  0.1539  0.1177 -0.1943
   64loPI   C2A 1016   7.489   4.304   9.052 -0.3339 -0.2564  0.0964
   64loPI   C3A 1017   7.562   4.256   8.658 -0.1405  0.0608  0.0878
   64loPI   C4A 1018   7.463   4.312   8.203 -0.0259  0.1635 -0.0947
   64loPI   C5A 1019   7.294   4.253   7.777  0.1096 -0.0632  0.4761
   64loPI   C6A 1020   6.884   4.519   7.684  0.2022  0.2425  0.0384
   64loPI   C1B 1021   6.999   4.739   9.549  0.2635  0.2157  0.1798
   64loPI   C2B 1022   6.831   4.897   9.215  0.1690  0.1948 -0.0760
   64loPI   C3B 1023   6.845   4.919   8.794 -0.0881 -0.0021  0.1386
   64loPI   C4B 1024   6.729   4.979   8.420 -0.1748 -0.0778 -0.0325
   65loPI    C1 1025   2.130  15.850  10.072  0.0795 -0.2371 -0.0241
   65loPI    C2 1026   2.331  15.972  10.396  0.1314 -0.0533 -0.1242
   65loPI    C3 1027   2.128  15.627  10.404  0.4217 -0.2252 -0.0104
   65loPI   PO4 1028   2.029  16.091   9.976  0.0580 -0.1884  0.3047
   65loPI   GL1 1029   1.768  16.031   9.594 -0.0435  0.0369 -0.2324
   65loPI   GL2 1030   1.562  15.728   9.639 -0.0757 -0.1165 -0.1581
   65loPI   C1A 1031   1.908  15.875   9.295 -0.0062 -0.2961  0.2290
   65loPI   C2A 1032   1.937  15.885   8.864 -0.2259  0.0132  0.0343
   65loPI   C3A 1033   1.800  15.949   8.404  0.1008  0.3061 -0.1168
   65loPI   C4A 1034   1.495  15.979   8.068 -0.0026 -0.1347  0.0492
   65loPI   C5A 1035   1.548  16.109   7.652 -0.2494  0.1678  0.1504
   65loPI   C6A 1036   1.199  16.291   7.352 -0.0055 -0.1616 -0.0842
   65loPI   C1B 1037   1.478  15.957   9.153  0.0998  0.3040  0.0620
   65loPI   C2B 1038   1.444  15.837   8.770  0.0377  0.1244  0.1094
   65loPI   C3B 1039   1.531  15.528   8.308  0.0155 -0.2508  0.0667
   65loPI   C4B 1040   1.308  15.476   7.920  0.0145  0.0271  0.0454
   66loPI    C1 1041   1.360  18.194  10.235  0.0933 -0.2222  0.0340
   66loPI    C2 1042   1.083  17.932  10.113 -0.2720  0.3142 -0.3344
   66loPI    C3 1043   1.005  18.176  10.420  0.0455  0.0398 -0.0279
   66loPI   PO4 1044   1.487  18.252   9.972  0.0506  0.0990 -0.1536
   66loPI   GL1 1045   1.573  18.458   9.663  0.3565 -0.0321  0.2146
   66loPI   GL2 1046   1.511  18.772   9.712  0.2971  0.0840 -0.0700
   66loPI   C1A 1047   1.425  18.234   9.252 -0.0329 -0.1614  0.0359
   66loPI   C2A 1048   1.457  18.246   8.892 -0.0430  0.1555  0.1484
   66loPI   C3A 1049   1.461  18.415   8.562  0.0875  0.2712  0.0644
   66loPI   C4A 1050   1.521  18.325   8.126 -0.2427 -0.2554 -0.0479
   66loPI   C5A 1051   1.794  18.152   7.772 -0.2119  0.0152 -0.0798
   66loPI   C6A 1052   2.074  18.088   7.417 -0.0179 -0.1269 -0.0673
   66loPI   C1B 1053   1.606  18.746   9.299 -0.3108 -0.1582  0.3182
   66loPI   C2B 1054   1.593  18.729   8.915  0.0652 -0.2117  0.1192
   66loPI   C3B 1055   1.719  18.882   8.524 -0.1401 -0.2024  0.0016
   66loPI   C4B 1056   1.580  18.791   8.154 -0.0986  0.0968  0.0149
   67loPI    C1 1057   3.647  12.811  10.576  0.0644 -0.0729  0.0456
   67loPI    C2 1058   3.263  12.885  10.659  0.0949 -0.0477  0.1678
   67loPI    C3 1059   3.550  13.085  10.851  0.1707 -0.1199  0.1307
   67loPI   PO4 1060   3.630  12.671  10.329  0.0296 -0.2246 -0.3196
   67loPI   GL1 1061   3.588  12.834   9.962 -0.1248 -0.1070  0.0287
   67loPI   GL2 1062   3.429  12.675   9.849 -0.1291  0.1092 -0.1139
   67loPI   C1A 1063   3.746  13.161   9.604  0.0783  0.2669 -0.0180
   67loPI   C2A 1064   3.758  13.314   9.247 -0.1514 -0.1283 -0.1163
   67loPI   C3A 1065   3.859  13.414   8.828 -0.0948  0.2199 -0.6279
   67loPI   C4A 1066   3.946  13.488   8.402 -0.0757 -0.0318 -0.0897
   67loPI   C5A 1067   3.750  13.805   8.125  0.0078  0.0945  0.1541
   67loPI   C6A 1068   3.812  13.838   7.759  0.0206  0.3027  0.0546
   67loPI   C1B 1069   3.494  12.780   9.419 -0.1417 -0.2515  0.1480
   67loPI   C2B 1070   3.565  12.896   8.898  0.1376 -0.2362 -0.0607
   67loPI   C3B 1071   3.628  12.929   8.429 -0.2853 -0.0773 -0.0476
   67loPI   C4B 1072   3.671  12.847   8.105  0.0940 -0.1504 -0.0021
   68loPI    C1 1073  12.535   4.068  10.745  0.0918  0.3693 -0.0590
   68loPI    C2 1074  12.925   4.011  10.675  0.0795  0.1259  0.0592
   68loPI    C3 1075  12.787   4.010  11.050 -0.0318  0.2388  0.0194
   68loPI   PO4 1076  12.506   4.300  10.624  0.1921 -0.1385 -0.2072
   68loPI   GL1 1077  12.151   4.329  10.302 -0.5072  0.1568  0.0256
   68loPI   GL2 1078  12.347   4.407   9.995  0.2453  0.1328 -0.1965
   68loPI   C1A 1079  12.000   4.004  10.001 -0.0952  0.1393 -0.1108
   68loPI   C2A 1080  11.995   3.948   9.622  0.0846  0.1142 -0.3091
   68loPI   C3A 1081  12.045   3.996   9.176 -0.1021  0.0962 -0.0256
   68loPI   C4A 1082  12.268   3.710   8.858  0.3220  0.2004  0.0093
   68loPI   C5A 1083  12.301   3.544   8.380  0.2283  0.2525 -0.0669
   68loPI   C6A 1084  12.338   3.530   7.967  0.0515  0.0395 -0.3820
   68loPI   C1B 1085  12.489   4.356   9.606 -0.0218 -0.0002 -0.1304
   68loPI   C2B 1086  12.460   4.307   9.223 -0.0439 -0.1943  0.1133
   68loPI   C3B 1087  12.406   4.210   8.755 -0.1832  0.1527  0.1225
   68loPI   C4B 1088  12.388   4.058   8.409  0.0578  0.2133  0.0841
   69loPI    C1 1089   2.685   0.312  10.535 -0.1957 -0.0092  0.0956
   69loPI    C2 1090   2.640  -0.073  10.634  0.2148 -0.0913 -0.0171
   69loPI    C3 1091   2.949   0.136  10.778  0.0427  0.1750 -0.0262
   69loPI   PO4 1092   2.788   0.260  10.194 -0.2130  0.1658  0.0801
   69loPI   GL1 1093   2.840   0.181   9.720  0.1105  0.0731 -0.0908
   69loPI   GL2 1094   3.006   0.351   9.588  0.0499  0.1863 -0.4537
   69loPI   C1A 1095   2.943  -0.107   9.365 -0.3467  0.1246 -0.2721
   69loPI   C2A 1096   2.910  -0.111   8.931 -0.1467  0.5490  0.2013
   69loPI   C3A 1097   3.001  -0.010   8.504  0.0789  0.3288 -0.2343
   69loPI   C4A 1098   3.045  -0.088   7.980  0.0077  0.0757 -0.0138
   69loPI   C5A 1099   3.140   0.069   7.682 -0.1880 -0.0394  0.0431
   69loPI   C6A 1100   3.209   0.283   7.239  0.0007  0.1357 -0.1197
   69loPI   C1B 1101   2.841   0.382   9.246 -0.1791  0.0182 -0.1179
   69loPI   C2B 1102   2.634   0.287   8.994  0.0062  0.0534 -0.0294
   69loPI   C3B 1103   2.684   0.415   8.616  0.0306 -0.0047 -0.0524
   69loPI   C4B 1104   2.777   0.370   8.216  0.0697 -0.1990 -0.1523
   70loPI    C1 1105   4.932   0.331  10.470  0.0273 -0.1046  0.0427
   70loPI    C2 1106   4.855   0.123  10.803  0.0866  0.0706  0.1670
   70loPI    C3 1107   5.174   0.363  10.787  0.1042  0.0355 -0.0294
   70loPI   PO4 1108   4.734   0.337  10.281  0.2336 -0.0601  0.0750
   70loPI   GL1 1109   4.527   0.306   9.826 -0.1570  0.0714  0.1121
   70loPI   GL2 1110   4.424   0.014   9.691  0.2137 -0.1715 -0.0142
   70loPI   C1A 1111   4.349   0.387   9.428  0.0290  0.0828  0.0366
   70loPI   C2A 1112   4.331   0.398   9.059  0.0368  0.0601 -0.1555
   70loPI   C3A 1113   4.290   0.398   8.608 -0.2166  0.0396 -0.1989
   70loPI   C4A 1114   4.246   0.342   8.165 -0.2737 -0.2943 -0.0036
   70loPI   C5A 1115   4.485   0.349   7.796 -0.1641 -0.1369 -0.0846
   70loPI   C6A 1116   4.524   0.179   7.487 -0.0749  0.0687  0.0331
   70loPI   C1B 1117   4.530  -0.051   9.278  0.1425  0.1558 -0.0095
   70loPI   C2B 1118   4.490   0.007   8.857  0.1321  0.1324 -0.0441
   70loPI   C3B 1119   4.502  -0.009   8.424 -0.0294 -0.0398 -0.0855
   70loPI   C4B 1120   4.572  -0.113   8.007  0.1622  0.2614 -0.2000
   71loPI    C1 1121   4.060   5.387  10.534  0.0415  0.0733  0.0038
   71loPI    C2 1122   4.376   5.560  10.709  0.0485  0.1739 -0.1064
   71loPI    C3 1123   4.208   5.236  10.874  0.2127  0.1161 -0.0505
   71loPI   PO4 1124   4.120   5.388  10.295  0.0688 -0.2763  0.0172
   71loPI   GL1 1125   4.144   4.952   9.975 -0.0476 -0.1413 -0.0800
   71loPI   GL2 1126   3.905   5.210   9.832 -0.1740  0.1599  0.1476
   71loPI   C1A 1127   4.148   4.680   9.713 -0.0149  0.0023 -0.0445
   71loPI   C2A 1128   4.047   4.633   9.371  0.0028  0.0642  0.1361
   71loPI   C3A 1129   4.098   4.741   8.983 -0.0591  0.2740  0.3772
   71loPI   C4A 1130   4.158   4.727   8.541  0.1121 -0.0070  0.2338
   71loPI   C5A 1131   4.259   4.618   8.147 -0.0643  0.4102 -0.0685
   71loPI   C6A 1132   4.164   4.212   7.947  0.0255 -0.1416 -0.0084
   71loPI   C1B 1133   4.057   5.142   9.520  0.0126  0.0076 -0.3510
   71loPI   C2B 1134   4.085   5.186   9.134 -0.1681  0.0923  0.1465
   71loPI   C3B 1135   4.235   5.234   8.767  0.1035  0.0700 -0.0323
   71loPI   C4B 1136   4.281   5.159   8.386 -0.1475 -0.0490  0.0725
   72loPI    C1 1137   7.433   1.741  10.348  0.0129  0.1701 -0.0327
   72loPI    C2 1138   7.627   1.973  10.609  0.1189 -0.1838  0.2108
   72loPI    C3 1139   7.272   1.817  10.707 -0.0700  0.0718 -0.0485
   72loPI   PO4 1140   7.518   1.833  10.095 -0.2950 -0.2714 -0.2174
   72loPI   GL1 1141   7.766   1.761   9.807 -0.1101  0.0482 -0.2603
   72loPI   GL2 1142   7.713   1.980   9.591 -0.2284  0.1844  0.3923
   72loPI   C1A 1143   7.731   1.468   9.464  0.1454 -0.3275  0.3860
   72loPI   C2A 1144   7.791   1.010   9.320  0.1300  0.0466  0.0191
   72loPI   C3A 1145   7.881   0.562   9.191 -0.1042 -0.4292  0.1025
   72loPI   C4A 1146   7.938   0.431   8.761  0.3672  0.1988 -0.3122
   72loPI   C5A 1147   7.766   0.471   8.267  0.0224 -0.0800 -0.2990
   72loPI   C6A 1148   7.651   0.239   7.897  0.1323  0.2210 -0.2021
   72loPI   C1B 1149   8.171   1.929   9.238 -0.1761  0.1423 -0.1047
   72loPI   C2B 1150   8.282   1.810   8.859 -0.2440 -0.1804  0.2444
   72loPI   C3B 1151   8.268   1.355   8.685 -0.0149 -0.0651  0.1540
   72loPI   C4B 1152   8.257   1.036   8.426  0.0440 -0.3041 -0.2217
   73loPI    C1 1153   5.983   1.761  10.630  0.1828  0.1537 -0.0505
   73loPI    C2 1154   5.785   2.097  10.541 -0.0487  0.0088 -0.0925
   73loPI    C3 1155   5.655   1.860  10.836  0.2502  0.0741  0.0970
   73loPI   PO4 1156   6.055   1.661  10.440  0.0310  0.0916  0.0782
   73loPI   GL1 1157   6.081   1.850  10.067  0.1646 -0.1536 -0.0951
   73loPI   GL2 1158   5.767   1.891   9.949  0.0619  0.1277  0.0866
   73loPI   C1A 1159   6.174   1.935   9.653 -0.2704  0.0330  0.0484
   73loPI   C2A 1160   6.057   1.937   9.288 -0.3137  0.1495 -0.1205
   73loPI   C3A 1161   5.985   1.899   8.763 -0.2530  0.1563 -0.0415
   73loPI   C4A 1162   5.937   1.749   8.344  0.0362  0.0689  0.1917
   73loPI   C5A 1163   6.180   1.707   7.918  0.2727  0.5451  0.0223
   73loPI   C6A 1164   6.451   1.376   7.654 -0.0234  0.2874 -0.0648
   73loPI   C1B 1165   5.594   2.052   9.553  0.1840  0.1490  0.0802
   73loPI   C2B 1166   5.512   2.255   9.168 -0.4655  0.3645  0.3174
   73loPI   C3B 1167   5.579   2.164   8.714 -0.3487 -0.2172  0.1105
   73loPI   C4B 1168   5.518   1.952   8.355  0.2011  0.0312 -0.1520
   74loPI    C1 1169   0.127  12.756  10.155  0.1496 -0.0612 -0.1384
   74loPI    C2 1170   0.099  12.810  10.550  0.1166 -0.2822 -0.1092
   74loPI    C3 1171  -0.051  12.480  10.383 -0.0061 -0.1186 -0.3269
   74loPI   PO4 1172   0.379  12.750  10.073  0.2231  0.0239 -0.0027
   74loPI   GL1 1173   0.575  12.477   9.709 -0.1088 -0.0834  0.1119
   74loPI   GL2 1174   0.474  12.846   9.584  0.2547  0.1686 -0.0698
   74loPI   C1A 1175   0.610  12.306   9.338  0.0747  0.3090 -0.4104
   74loPI   C2A 1176   0.645  12.289   8.936 -0.0429 -0.0937  0.3914
   74loPI   C3A 1177   0.623  12.599   8.626 -0.1108  0.0082 -0.1598
   74loPI   C4A 1178   0.740  12.903   8.273  0.3679 -0.2034  0.0897
   74loPI   C5A 1179   0.764  12.938   7.848  0.1063  0.3188  0.0278
   74loPI   C6A 1180   0.490  12.919   7.581  0.2169 -0.0966 -0.1364
   74loPI   C1B 1181   0.539  12.789   9.106  0.0202 -0.0469  0.0254
   74loPI   C2B 1182   0.588  13.079   8.720 -0.1041 -0.1161 -0.4129
   74loPI   C3B 1183   0.414  13.279   8.272 -0.0954  0.1448 -0.1869
   74loPI   C4B 1184   0.512  13.364   7.878 -0.0781 -0.0153  0.0498
   75loPI    C1 1185   1.755  10.024  10.574  0.1848  0.1848  0.0167
   75loPI    C2 1186   1.863   9.850  10.918 -0.0232  0.0250  0.0029
   75loPI    C3 1187   1.500  10.014  10.881  0.1045  0.3022 -0.0455
   75loPI   PO4 1188   1.932   9.920  10.370  0.0312  0.2127 -0.2482
   75loPI   GL1 1189   2.164   9.930   9.958 -0.1699 -0.1037 -0.0765
   75loPI   GL2 1190   1.961  10.067   9.882  0.0818 -0.0579 -0.1863
   75loPI   C1A 1191   2.419   9.833   9.488  0.1967 -0.0349 -0.0077
   75loPI   C2A 1192   2.458   9.904   9.128  0.0052  0.1591 -0.0105
   75loPI   C3A 1193   2.284   9.882   8.797  0.0997 -0.2714 -0.1158
   75loPI   C4A 1194   2.072   9.845   8.393 -0.0229 -0.3533 -0.1628
   75loPI   C5A 1195   2.055   9.557   8.119 -0.0339 -0.3570  0.3128
   75loPI   C6A 1196   2.193   9.356   7.829  0.1728  0.2169 -0.0237
   75loPI   C1B 1197   1.938  10.175   9.500  0.1679  0.0646 -0.0206
   75loPI   C2B 1198   2.009  10.252   8.974 -0.0863 -0.1711 -0.1148
   75loPI   C3B 1199   2.173  10.330   8.553  0.0019 -0.0387 -0.2045
   75loPI   C4B 1200   2.397  10.709   8.513 -0.0344  0.0425  0.0802
   76loPI    C1 1201   0.596  18.094  10.791  0.2554 -0.2783 -0.1055
   76loPI    C2 1202   0.977  18.058  10.909  0.2932  0.1651 -0.0743
   76loPI    C3 1203   0.824  18.420  10.833 -0.0333 -0.0321 -0.3923
   76loPI   PO4 1204   0.496  17.928  10.525  0.0762  0.2688 -0.1175
   76loPI   GL1 1205   0.426  17.940   9.933 -0.0232 -0.0271  0.0010
   76loPI   GL2 1206   0.582  17.792  10.046 -0.1156  0.1713  0.2052
   76loPI   C1A 1207   0.470  18.111   9.506 -0.2453 -0.0488 -0.0272
   76loPI   C2A 1208   0.330  18.072   9.140 -0.2224 -0.0604  0.0813
   76loPI   C3A 1209   0.097  17.949   8.801  0.0780  0.0835  0.4332
   76loPI   C4A 1210   0.314  17.910   8.427  0.1408  0.0595  0.0556
   76loPI   C5A 1211   0.598  18.247   8.197  0.0952  0.0276  0.0496
   76loPI   C6A 1212   0.986  18.156   7.912  0.0817 -0.0150  0.0478
   76loPI   C1B 1213   0.813  17.775   9.669  0.1063 -0.0300 -0.0003
   76loPI   C2B 1214   0.736  17.764   9.262 -0.1454  0.1440  0.3264
   76loPI   C3B 1215   0.650  17.632   8.887 -0.0240 -0.2700  0.0101
   76loPI   C4B 1216   0.767  17.711   8.445 -0.2856  0.3096  0.1342
   77loPI    C1 1217   6.245   9.994  10.505  0.1390 -0.0543  0.1670
   77loPI    C2 1218   6.397  10.327  10.665  0.2437  0.0269 -0.0947
   77loPI    C3 1219   6.110  10.352  10.388  0.1021 -0.1095  0.0378
   77loPI   PO4 1220   6.541   9.905  10.364  0.0781 -0.0099 -0.0500
   77loPI   GL1 1221   6.637   9.999   9.928  0.2283 -0.1391 -0.2041
   77loPI   GL2 1222   6.390  10.333   9.961 -0.1932 -0.1388  0.0405
   77loPI   C1A 1223   6.496   9.893   9.514 -0.2828 -0.1624  0.1602
   77loPI   C2A 1224   6.648   9.702   9.148  0.0289  0.2653 -0.2948
   77loPI   C3A 1225   6.635   9.864   8.742 -0.0116  0.0877  0.1521
   77loPI   C4A 1226   6.742  10.130   8.492 -0.1448 -0.0756  0.2001
   77loPI   C5A 1227   6.900  10.203   8.041  0.0922 -0.1549  0.0384
   77loPI   C6A 1228   7.106  10.464   7.742  0.1548 -0.0869  0.1359
   77loPI   C1B 1229   6.338  10.602   9.612  0.1124 -0.2459 -0.1548
   77loPI   C2B 1230   6.408  10.307   9.181 -0.0447  0.3709 -0.4277
   77loPI   C3B 1231   6.128  10.098   8.823  0.0542 -0.0693 -0.0673
   77loPI   C4B 1232   6.208  10.101   8.333  0.1665 -0.1095 -0.1009
   78loPI    C1 1233  12.907   9.986  10.586 -0.2274  0.2352  0.0625
   78loPI    C2 1234  12.648   9.695  10.679  0.1079 -0.0722  0.0579
   78loPI    C3 1235  12.636  10.044  10.874 -0.1785 -0.1548  0.1936
   78loPI   PO4 1236  13.115   9.851  10.505 -0.2754  0.0311  0.1303
   78loPI   GL1 1237  13.200   9.900  10.049  0.0100 -0.1712  0.1579
   78loPI   GL2 1238  13.464   9.983  10.163 -0.1561 -0.1667 -0.1269
   78loPI   C1A 1239  13.227   9.850   9.561 -0.0524 -0.1774 -0.0157
   78loPI   C2A 1240  13.154   9.810   9.217 -0.0885 -0.1048 -0.0293
   78loPI   C3A 1241  13.167   9.747   8.744  0.0008 -0.4242 -0.2388
   78loPI   C4A 1242  13.069   9.630   8.360 -0.0018  0.1732 -0.1226
   78loPI   C5A 1243  12.733   9.558   8.033  0.0449 -0.0317 -0.0431
   78loPI   C6A 1244  12.581   9.666   7.648 -0.0031  0.0993  0.0003
   78loPI   C1B 1245  13.718   9.913   9.787 -0.0253 -0.2165 -0.0825
   78loPI   C2B 1246  13.682   9.851   9.357  0.1624  0.0477  0.1063
   78loPI   C3B 1247  13.671   9.805   8.942  0.4572  0.0317 -0.2564
   78loPI   C4B 1248  13.656   9.729   8.536  0.1200  0.0471  0.0221
   79loPI    C1 1249   3.057  15.221  10.423 -0.0141 -0.2386 -0.0165
   79loPI    C2 1250   2.992  14.878  10.618 -0.3391 -0.1582  0.0223
   79loPI    C3 1251   2.786  15.206  10.716  0.2815  0.1686  0.2883
   79loPI   PO4 1252   2.996  15.205  10.191  0.0673 -0.1210  0.2423
   79loPI   GL1 1253   3.143  15.038   9.809 -0.0315  0.0344  0.1069
   79loPI   GL2 1254   3.472  15.098   9.949  0.0173  0.2338 -0.1165
   79loPI   C1A 1255   3.242  15.289   9.513 -0.2276 -0.1666  0.3219
   79loPI   C2A 1256   3.320  15.278   8.966 -0.0791 -0.1004 -0.0487
   79loPI   C3A 1257   3.367  15.425   8.538  0.1789  0.1156  0.0339
   79loPI   C4A 1258   3.333  15.418   8.100 -0.0408  0.2473  0.2370
   79loPI   C5A 1259   3.255  15.394   7.690 -0.3026 -0.0669 -0.0312
   79loPI   C6A 1260   3.202  15.156   7.327 -0.2343 -0.1044  0.0425
   79loPI   C1B 1261   3.787  15.141   9.605  0.1550  0.1032  0.0031
   79loPI   C2B 1262   3.798  15.274   9.132 -0.2222  0.2902  0.2031
   79loPI   C3B 1263   3.899  15.306   8.687  0.0522 -0.1221 -0.0431
   79loPI   C4B 1264   3.803  15.419   8.241 -0.3338  0.1824  0.0097
   80loPI    C1 1265   1.019   6.748  10.532  0.1379  0.0296  0.1612
   80loPI    C2 1266   0.822   6.404  10.585  0.0895  0.0157 -0.0979
   80loPI    C3 1267   0.680   6.742  10.744 -0.0329 -0.0300 -0.1090
   80loPI   PO4 1268   1.129   6.790  10.289 -0.0301 -0.1121 -0.0130
   80loPI   GL1 1269   1.321   7.038   9.888 -0.0088 -0.0024 -0.0718
   80loPI   GL2 1270   1.223   6.685   9.780 -0.3849 -0.0262 -0.1093
   80loPI   C1A 1271   1.365   7.180   9.507  0.3656 -0.1790 -0.4545
   80loPI   C2A 1272   1.402   7.276   9.138 -0.0513  0.0191 -0.4083
   80loPI   C3A 1273   1.392   7.420   8.654 -0.0581  0.0357  0.2965
   80loPI   C4A 1274   1.188   7.618   8.230  0.1855 -0.1104 -0.5648
   80loPI   C5A 1275   1.222   8.004   8.083  0.0393 -0.1005  0.1832
   80loPI   C6A 1276   1.169   8.210   7.654  0.1876  0.0030 -0.2052
   80loPI   C1B 1277   1.274   6.677   9.413  0.3853  0.2091  0.1295
   80loPI   C2B 1278   1.168   6.837   9.052 -0.2799  0.1576 -0.1794
   80loPI   C3B 1279   0.984   7.012   8.736 -0.3668  0.0760  0.1627
   80loPI   C4B 1280   0.807   7.138   8.381 -0.3645  0.1951  0.1039
   81loPI    C1 1281  10.180  18.493  10.993 -0.0385 -0.2913  0.2506
   81loPI    C2 1282  10.398  18.283  10.732  0.1127  0.2116 -0.0420
   81loPI    C3 1283  10.532  18.339  11.105  0.0939 -0.1577  0.0247
   81loPI   PO4 1284  10.081  18.666  10.819  0.2562 -0.1405 -0.2924
   81loPI   GL1 1285  10.278  18.680  10.443 -0.0107 -0.3318  0.0619
   81loPI   GL2 1286  10.238  18.398  10.275  0.1170 -0.1003  0.0630
   81loPI   C1A 1287  10.096  18.809   9.992 -0.0881  0.0667 -0.0845
   81loPI   C2A 1288  10.260  18.666   9.624 -0.0946  0.0984  0.0085
   81loPI   C3A 1289  10.407  18.809   9.191 -0.1850 -0.1111  0.2816
   81loPI   C4A 1290  10.547  18.721   8.779  0.1279  0.3465 -0.1408
   81loPI   C5A 1291  10.545  18.712   8.338 -0.1176 -0.1764  0.2267
   81loPI   C6A 1292  10.507  18.579   7.859  0.1893  0.0943  0.1372
   81loPI   C1B 1293   9.880  18.362  10.000  0.0770 -0.0480  0.1050
   81loPI   C2B 1294   9.752  18.394   9.612 -0.2451 -0.1153 -0.0296
   81loPI   C3B 1295   9.952  18.499   9.294  0.1296  0.2177 -0.2658
   81loPI   C4B 1296   9.900  18.576   8.804  0.1311  0.2057 -0.1823
   82loPI    C1 1297  13.153   4.411  10.971  0.1054 -0.1549 -0.0062
   82loPI    C2 1298  13.141   4.747  11.188 -0.1357 -0.1757  0.0156
   82loPI    C3 1299  12.947   4.421  11.314  0.0198 -0.2958 -0.0528
   82loPI   PO4 1300  13.116   4.565  10.689 -0.1776 -0.4341  0.0190
   82loPI   GL1 1301  12.976   4.586  10.349  0.1021 -0.1030  0.1832
   82loPI   GL2 1302  12.824   4.318  10.180  0.0165  0.1993  0.3230
   82loPI   C1A 1303  13.277   4.340  10.038 -0.0842  0.0707  0.1005
   82loPI   C2A 1304  13.463   4.392   9.671  0.0113 -0.2018 -0.3119
   82loPI   C3A 1305  13.362   4.420   9.326  0.1151  0.1536 -0.1434
   82loPI   C4A 1306  13.322   4.476   8.899 -0.1723 -0.2901  0.0397
   82loPI   C5A 1307  13.098   4.704   8.551  0.0550  0.1916  0.1047
   82loPI   C6A 1308  13.042   4.641   8.170  0.1760 -0.1149 -0.1112
   82loPI   C1B 1309  12.810   4.616   9.833  0.0409  0.0587  0.0703
   82loPI   C2B 1310  12.861   4.696   9.367  0.0398 -0.1241  0.0011
   82loPI   C3B 1311  12.855   4.497   8.905 -0.0174  0.1717 -0.0997
   82loPI   C4B 1312  12.972   4.209   8.583  0.3378  0.3643 -0.2227
   83loPI    C1 1313  10.177   4.217  10.905 -0.0128  0.0212 -0.1334
   83loPI    C2 1314  10.246   3.923  11.168 -0.3704  0.0457 -0.0084
   83loPI    C3 1315  10.515   4.215  11.120 -0.1621 -0.1249  0.1046
   83loPI   PO4 1316  10.124   4.048  10.623 -0.1375 -0.3061 -0.3383
   83loPI   GL1 1317  10.092   3.999  10.186 -0.2042  0.3879  0.0651
   83loPI   GL2 1318   9.855   4.144   9.984 -0.2552  0.0966  0.4126
   83loPI   C1A 1319  10.281   3.798   9.861 -0.0995  0.0895 -0.0968
   83loPI   C2A 1320  10.231   3.606   9.412  0.0618  0.2867  0.2963
   83loPI   C3A 1321  10.128   3.678   9.064  0.0699 -0.1310  0.0943
   83loPI   C4A 1322  10.372   3.471   8.814 -0.4030  0.2583 -0.2039
   83loPI   C5A 1323  10.508   3.596   8.399  0.0926 -0.1660 -0.0084
   83loPI   C6A 1324  10.366   3.575   7.979 -0.3820 -0.1159  0.1484
   83loPI   C1B 1325   9.609   4.231   9.607 -0.0493 -0.0577  0.3583
   83loPI   C2B 1326   9.522   4.393   9.206 -0.0797 -0.0389  0.0181
   83loPI   C3B 1327   9.416   4.370   8.792 -0.0210  0.0587 -0.0945
   83loPI   C4B 1328   9.399   4.454   8.363  0.1663  0.0810 -0.0737
   84loPI    C1 1329  14.019   4.807  10.514  0.0179 -0.0225  0.1088
   84loPI    C2 1330  14.178   4.466  10.379 -0.0371 -0.1220  0.2924
   84loPI    C3 1331  14.367   4.677  10.661 -0.0770 -0.0781  0.2865
   84loPI   PO4 1332  13.950   4.931  10.265  0.2647 -0.2989  0.1484
   84loPI   GL1 1333  14.096   5.116   9.856 -0.0243 -0.2334  0.0737
   84loPI   GL2 1334  14.296   4.935   9.683  0.2606  0.0567 -0.0063
   84loPI   C1A 1335  13.950   5.461   9.526  0.2219  0.0350 -0.0123
   84loPI   C2A 1336  14.038   5.737   9.117 -0.3060  0.0945  0.3284
   84loPI   C3A 1337  13.930   5.458   8.718  0.0069  0.0736  0.3592
   84loPI   C4A 1338  13.641   5.361   8.462  0.1515 -0.0709 -0.0461
   84loPI   C5A 1339  13.664   5.363   8.077 -0.0787  0.0376 -0.1443
   84loPI   C6A 1340  13.374   5.549   7.859  0.1488  0.2101 -0.0159
   84loPI   C1B 1341  14.167   5.006   9.243  0.0943  0.0503  0.1023
   84loPI   C2B 1342  14.130   4.961   8.729  0.0443  0.3027 -0.1802
   84loPI   C3B 1343  14.017   4.951   8.326 -0.0888  0.1411 -0.0668
   84loPI   C4B 1344  14.134   4.983   7.919 -0.0426 -0.3456  0.0189
   85loPI    C1 1345  14.723   5.588  10.324  0.0446  0.2111 -0.1908
   85loPI    C2 1346  14.572   5.685  10.682  0.4344  0.0288  0.0284
   85loPI    C3 1347  14.409   5.835  10.349 -0.1554 -0.0764  0.2587
   85loPI   PO4 1348  14.699   5.331  10.267 -0.1078 -0.0072 -0.2857
   85loPI   GL1 1349  14.709   5.279   9.791 -0.2471  0.0280 -0.0040
   85loPI   GL2 1350  14.449   5.453   9.812 -0.0320 -0.0108  0.0259
   85loPI   C1A 1351  14.720   5.024   9.453 -0.0794 -0.0658 -0.1008
   85loPI   C2A 1352  14.605   4.873   9.121 -0.1010  0.0543  0.2444
   85loPI   C3A 1353  14.563   4.787   8.644  0.0004 -0.2371  0.1963
   85loPI   C4A 1354  14.462   4.673   8.276  0.0843  0.0450 -0.0543
   85loPI   C5A 1355  14.500   4.576   7.912  0.0444 -0.1687 -0.0485
   85loPI   C6A 1356  14.628   4.517   7.535 -0.0170 -0.1862  0.0324
   85loPI   C1B 1357  14.403   5.435   9.354 -0.0852 -0.0900  0.2111
   85loPI   C2B 1358  14.422   5.440   8.906 -0.0397  0.1553  0.0668
   85loPI   C3B 1359  14.426   5.279   8.476 -0.0080  0.2431  0.3274
   85loPI   C4B 1360  14.223   5.531   8.116  0.2480 -0.1617 -0.0336
   86loPI    C1 1361  13.288   2.174  10.838 -0.2739 -0.0760 -0.1453
   86loPI    C2 1362  12.959   2.186  11.066 -0.0829  0.1200  0.1271
   86loPI    C3 1363  13.243   1.913  11.138 -0.0552  0.1352  0.0759
   86loPI   PO4 1364  13.195   2.158  10.611  0.0898  0.2361  0.1522
   86loPI   GL1 1365  13.079   2.036  10.158 -0.1478  0.1213  0.2410
   86loPI   GL2 1366  13.187   1.760  10.197  0.2521 -0.5098  0.0503
   86loPI   C1A 1367  13.009   1.952   9.690  0.3077 -0.0711  0.3142
   86loPI   C2A 1368  13.430   1.825   9.444  0.0243 -0.0158 -0.0434
   86loPI   C3A 1369  13.548   1.419   9.364 -0.0776  0.0324  0.3906
   86loPI   C4A 1370  13.808   1.309   9.061 -0.0811  0.2685 -0.3034
   86loPI   C5A 1371  14.045   0.857   8.962  0.0889  0.1139  0.4077
   86loPI   C6A 1372  13.954   0.468   9.113  0.1210 -0.2142 -0.2346
   86loPI   C1B 1373  13.172   1.446   9.807  0.3698  0.0689 -0.1251
   86loPI   C2B 1374  13.001   1.509   9.397 -0.2046 -0.3263  0.0290
   86loPI   C3B 1375  12.831   1.534   8.986  0.0461  0.2797  0.0083
   86loPI   C4B 1376  12.969   1.471   8.597 -0.3639 -0.0272 -0.2036
   87loPI    C1 1377  11.167  14.505  10.616  0.0326 -0.2492 -0.2568
   87loPI    C2 1378  11.257  14.408  10.993  0.1070 -0.1146 -0.2397
   87loPI    C3 1379  10.877  14.401  10.871  0.0549  0.0777 -0.0934
   87loPI   PO4 1380  11.355  14.283  10.440 -0.0646  0.1096 -0.0280
   87loPI   GL1 1381  11.424  14.015  10.110 -0.4260 -0.1209 -0.2806
   87loPI   GL2 1382  11.686  14.155  10.065  0.2007 -0.0323  0.4363
   87loPI   C1A 1383  11.293  13.771   9.865 -0.2662  0.1454  0.1399
   87loPI   C2A 1384  11.316  13.739   9.345  0.0284 -0.2247  0.0317
   87loPI   C3A 1385  11.593  13.645   8.835 -0.3717  0.1835  0.1400
   87loPI   C4A 1386  11.613  13.299   8.564  0.1338  0.1654 -0.2383
   87loPI   C5A 1387  11.865  13.186   8.292  0.1235  0.1465 -0.1598
   87loPI   C6A 1388  12.083  13.341   7.946  0.4173 -0.1131 -0.1565
   87loPI   C1B 1389  11.645  14.068   9.629  0.3805  0.1691 -0.3811
   87loPI   C2B 1390  11.823  13.888   9.239 -0.1656  0.1533  0.0743
   87loPI   C3B 1391  12.172  13.523   9.205  0.5012 -0.1377 -0.0881
   87loPI   C4B 1392  12.079  13.307   8.824  0.2888  0.0243 -0.0273
   88loPI    C1 1393  13.097  15.474  10.646  0.1006 -0.1250 -0.1533
   88loPI    C2 1394  13.445  15.282  10.693  0.0188 -0.2174  0.0920
   88loPI    C3 1395  13.318  15.536  10.975 -0.0457 -0.0757 -0.0632
   88loPI   PO4 1396  13.094  15.533  10.343  0.0765 -0.4888 -0.0503
   88loPI   GL1 1397  12.983  15.901  10.086  0.0058 -0.0203 -0.0876
   88loPI   GL2 1398  13.023  16.124   9.918 -0.0499  0.2246 -0.1770
   88loPI   C1A 1399  13.169  15.742   9.670 -0.1928  0.4473  0.2307
   88loPI   C2A 1400  13.136  15.723   9.205 -0.0286 -0.0172 -0.0500
   88loPI   C3A 1401  13.101  15.662   8.745  0.0243 -0.1580  0.2667
   88loPI   C4A 1402  13.125  16.021   8.473  0.2405 -0.1177  0.1854
   88loPI   C5A 1403  13.368  16.223   8.208  0.0335  0.1557 -0.2042
   88loPI   C6A 1404  13.234  16.399   7.800 -0.1372 -0.1237 -0.1077
   88loPI   C1B 1405  12.782  16.039   9.554 -0.0289 -0.0023  0.1439
   88loPI   C2B 1406  12.631  15.833   9.057 -0.1095  0.2838  0.4850
   88loPI   C3B 1407  12.651  15.879   8.597  0.3274  0.1454 -0.0007
   88loPI   C4B 1408  12.335  16.089   8.331 -0.2647  0.0496 -0.1615
   89loPI    C1 1409   0.111  18.165  10.391 -0.2750 -0.2782 -0.2912
   89loPI    C2 1410  -0.221  18.292  10.575 -0.0418 -0.0761 -0.0014
   89loPI    C3 1411  -0.007  17.993  10.732 -0.0737 -0.1932 -0.1776
   89loPI   PO4 1412   0.035  18.153  10.135 -0.0088 -0.0938  0.1519
   89loPI   GL1 1413  -0.228  17.866   9.993  0.0680  0.0210 -0.0328
   89loPI   GL2 1414  -0.322  17.593  10.051 -0.5033  0.0102 -0.0588
   89loPI   C1A 1415  -0.061  17.993   9.538 -0.2280 -0.0219 -0.3795
   89loPI   C2A 1416  -0.261  18.186   9.160 -0.1000  0.0642  0.0369
   89loPI   C3A 1417  -0.346  18.422   8.825 -0.1648 -0.1014  0.0642
   89loPI   C4A 1418  -0.404  18.442   8.429  0.0918 -0.0866 -0.0038
   89loPI   C5A 1419  -0.465  18.567   8.017  0.3100  0.1117  0.1354
   89loPI   C6A 1420  -0.385  18.496   7.642 -0.3083 -0.0949  0.2063
   89loPI   C1B 1421  -0.398  17.568   9.624 -0.1191 -0.0091  0.0813
   89loPI   C2B 1422  -0.340  17.705   9.241 -0.0251 -0.0088  0.4198
   89loPI   C3B 1423  -0.401  17.870   8.767 -0.2697 -0.3767 -0.0230
   89loPI   C4B 1424  -0.310  17.992   8.358  0.2213  0.2857  0.0317
   90loPI    C1 1425  12.695   5.861  10.838 -0.0772  0.0119  0.1937
   90loPI    C2 1426  12.574   5.488  10.919 -0.1589  0.0251  0.1343
   90loPI    C3 1427  12.586   5.763  11.210  0.3291 -0.1380  0.2787
   90loPI   PO4 1428  12.865   5.755  10.620 -0.1063 -0.2009  0.1582
   90loPI   GL1 1429  13.171   5.765  10.277 -0.3209 -0.1366 -0.2108
   90loPI   GL2 1430  13.079   5.408  10.211  0.3373  0.1590 -0.2877
   90loPI   C1A 1431  13.276   5.929   9.880  0.0598 -0.1876 -0.0133
   90loPI   C2A 1432  13.231   6.085   9.411  0.1823 -0.0469  0.0125
   90loPI   C3A 1433  13.156   5.989   9.008  0.2118 -0.0268 -0.0368
   90loPI   C4A 1434  13.172   5.956   8.601 -0.1618  0.0925 -0.2083
   90loPI   C5A 1435  13.075   6.335   8.308  0.2291  0.0413 -0.0950
   90loPI   C6A 1436  12.830   6.393   7.890  0.1991 -0.0167 -0.2574
   90loPI   C1B 1437  12.962   5.506   9.785  0.0433  0.1075 -0.1941
   90loPI   C2B 1438  12.885   5.197   9.495 -0.0928 -0.2325 -0.1859
   90loPI   C3B 1439  12.854   5.085   9.019 -0.2169  0.3718 -0.2489
   90loPI   C4B 1440  12.845   5.133   8.600  0.0460  0.0522 -0.1439
   91loPI    C1 1441  13.343  14.537  10.469 -0.1645  0.0453 -0.1290
   91loPI    C2 1442  12.956  14.630  10.435 -0.1454  0.1081 -0.1769
   91loPI    C3 1443  13.178  14.801  10.720 -0.1468  0.0919 -0.1660
   91loPI   PO4 1444  13.391  14.372  10.213  0.1402  0.1096 -0.2483
   91loPI   GL1 1445  13.264  14.438   9.737  0.1729 -0.0041 -0.0129
   91loPI   GL2 1446  13.135  14.690   9.815 -0.0843 -0.1989  0.0152
   91loPI   C1A 1447  13.230  14.498   9.284  0.0307 -0.0277 -0.3315
   91loPI   C2A 1448  13.077  14.529   8.880 -0.1789 -0.3339 -0.0028
   91loPI   C3A 1449  12.894  14.568   8.456  0.2508  0.2595  0.2381
   91loPI   C4A 1450  12.974  14.390   8.025 -0.1666 -0.0214 -0.2301
   91loPI   C5A 1451  13.087  14.191   7.609 -0.1077  0.0777 -0.0728
   91loPI   C6A 1452  12.932  13.806   7.504  0.0300 -0.2874  0.1914
   91loPI   C1B 1453  12.789  14.557   9.492 -0.4118 -0.0033  0.0131
   91loPI   C2B 1454  12.652  14.366   9.118 -0.2904 -0.1238  0.0314
   91loPI   C3B 1455  12.547  14.148   8.662 -0.4180  0.1374  0.3107
   91loPI   C4B 1456  12.540  14.244   8.165  0.1037  0.1042  0.1046
   92loPI    C1 1457   3.539  17.260  10.283 -0.0985  0.0536  0.0968
   92loPI    C2 1458   3.290  17.256   9.970 -0.1807 -0.0849  0.1631
   92loPI    C3 1459   3.169  17.114  10.324 -0.0141 -0.1348  0.2011
   92loPI   PO4 1460   3.760  17.171  10.218 -0.1884  0.0560 -0.2221
   92loPI   GL1 1461   3.768  17.043   9.799  0.1921  0.0885 -0.1015
   92loPI   GL2 1462   4.123  17.072   9.834 -0.0047 -0.0681 -0.0964
   92loPI   C1A 1463   3.592  17.137   9.476 -0.0186  0.3011  0.0452
   92loPI   C2A 1464   3.681  17.071   9.118 -0.2153  0.1657  0.0130
   92loPI   C3A 1465   3.735  17.163   8.680  0.1924 -0.1853  0.1337
   92loPI   C4A 1466   3.775  17.148   8.366 -0.0487  0.2394 -0.1894
   92loPI   C5A 1467   3.763  17.211   7.873 -0.1724  0.0920 -0.0972
   92loPI   C6A 1468   3.846  17.299   7.391  0.2273 -0.0450  0.0568
   92loPI   C1B 1469   4.197  17.085   9.457 -0.1666 -0.1691 -0.1218
   92loPI   C2B 1470   4.170  17.129   9.004  0.2714  0.1692 -0.1929
   92loPI   C3B 1471   4.254  17.122   8.593  0.3957  0.1907 -0.0315
   92loPI   C4B 1472   4.257  17.226   8.166  0.3578 -0.1144 -0.2690
   93loPI    C1 1473  11.656   6.489  10.448 -0.0340 -0.1067  0.1226
   93loPI    C2 1474  11.934   6.764  10.536 -0.1159  0.0212 -0.0144
   93loPI    C3 1475  11.946   6.404  10.711  0.2376 -0.0361 -0.1478
   93loPI   PO4 1476  11.672   6.511  10.160 -0.4009  0.0958 -0.0901
   93loPI   GL1 1477  11.840   6.253   9.841  0.0120 -0.4539 -0.2436
   93loPI   GL2 1478  12.196   6.138   9.767 -0.2604 -0.0366  0.1979
   93loPI   C1A 1479  11.765   5.852   9.662  0.3675  0.0124 -0.3279
   93loPI   C2A 1480  11.549   5.721   9.277  0.0584 -0.0875 -0.2545
   93loPI   C3A 1481  11.397   5.708   8.834 -0.1012  0.0696 -0.0155
   93loPI   C4A 1482  11.331   5.990   8.494 -0.1908 -0.1037  0.1404
   93loPI   C5A 1483  11.420   6.370   8.270 -0.1623  0.1069 -0.2216
   93loPI   C6A 1484  11.805   6.630   8.225  0.1409 -0.2093  0.0668
   93loPI   C1B 1485  12.081   6.187   9.345  0.0313  0.0063 -0.0500
   93loPI   C2B 1486  12.162   6.355   8.986  0.1185 -0.1081  0.2634
   93loPI   C3B 1487  11.771   6.548   8.762 -0.2952  0.1510 -0.0219
   93loPI   C4B 1488  11.351   6.483   8.900  0.0841  0.1684  0.0001
   94loPI    C1 1489  16.107   7.006   9.990  0.0321 -0.0622 -0.0318
   94loPI    C2 1490  16.090   7.356  10.184  0.0125 -0.0133 -0.1215
   94loPI    C3 1491  15.762   7.129  10.149 -0.0067  0.0236 -0.1812
   94loPI   PO4 1492  16.278   7.014   9.768  0.0971  0.0634 -0.2110
   94loPI   GL1 1493  16.233   6.831   9.371 -0.0294 -0.1316 -0.1516
   94loPI   GL2 1494  16.354   7.163   9.351 -0.1449  0.0553 -0.2919
   94loPI   C1A 1495  16.279   6.935   8.919 -0.0147  0.2203  0.1132
   94loPI   C2A 1496  16.215   6.869   8.523  0.1267 -0.2356 -0.3534
   94loPI   C3A 1497  16.210   6.841   8.117  0.1794  0.0487  0.2523
   94loPI   C4A 1498  16.533   7.092   7.897 -0.0119  0.0480 -0.2607
   94loPI   C5A 1499  16.883   7.086   7.704 -0.1435 -0.4245  0.2776
   94loPI   C6A 1500  17.086   7.128   7.354  0.1528 -0.0028 -0.1421
   94loPI   C1B 1501  16.556   7.500   9.120  0.3205  0.1509 -0.1016
   94loPI   C2B 1502  16.682   7.745   8.804 -0.0552 -0.2047  0.1604
   94loPI   C3B 1503  16.421   7.710   8.384 -0.0399  0.3435  0.0568
   94loPI   C4B 1504  16.535   7.541   8.035 -0.3804 -0.1608 -0.0880
   95loPI    C1 1505  18.537  17.103  10.464 -0.1865 -0.4419 -0.0143
   95loPI    C2 1506  18.723  16.796  10.288  0.1250 -0.3081  0.0753
   95loPI    C3 1507  18.607  16.767  10.670  0.0004 -0.3753  0.0327
   95loPI   PO4 1508  18.386  17.208  10.235  0.1225  0.0886 -0.3519
   95loPI   GL1 1509  18.304  17.092   9.750 -0.0174  0.2167 -0.1598
   95loPI   GL2 1510  18.384  16.831   9.761 -0.0507  0.1684 -0.1668
   95loPI   C1A 1511  18.469  17.196   9.416  0.2698  0.0513  0.1200
   95loPI   C2A 1512  18.401  17.204   9.073 -0.0671  0.1387 -0.0348
   95loPI   C3A 1513  18.315  17.374   8.745  0.2455  0.1660 -0.1628
   95loPI   C4A 1514  18.486  17.573   8.286 -0.4426  0.0573 -0.1689
   95loPI   C5A 1515  18.614  17.799   7.967 -0.1331 -0.2327 -0.0686
   95loPI   C6A 1516  18.681  18.078   7.527 -0.3477  0.1952  0.1468
   95loPI   C1B 1517  18.277  16.742   9.352 -0.0051 -0.0239 -0.2032
   95loPI   C2B 1518  18.245  16.701   8.987 -0.2057  0.0333  0.0139
   95loPI   C3B 1519  18.305  16.631   8.497  0.0776 -0.0987  0.0537
   95loPI   C4B 1520  18.406  16.232   8.279 -0.0127 -0.1330 -0.2717
   96loPI    C1 1521   9.956   7.992  10.760 -0.0841  0.1936  0.1492
   96loPI    C2 1522   9.658   7.922  11.019 -0.1631 -0.1714 -0.0344
   96loPI    C3 1523  10.018   7.757  11.078 -0.1686 -0.2193 -0.1315
   96loPI   PO4 1524   9.830   8.000  10.514  0.2787 -0.0539  0.1039
   96loPI   GL1 1525   9.904   7.793  10.062  0.0930 -0.0069 -0.3084
   96loPI   GL2 1526   9.630   7.536   9.884 -0.2223 -0.1807 -0.0720
   96loPI   C1A 1527  10.097   7.935   9.657 -0.2672  0.2521  0.1402
   96loPI   C2A 1528  10.166   7.907   9.258  0.3654  0.0931 -0.0083
   96loPI   C3A 1529  10.194   7.766   8.893 -0.0470  0.0540  0.2500
   96loPI   C4A 1530  10.250   7.357   8.772  0.0021  0.1036  0.0432
   96loPI   C5A 1531  10.249   7.071   8.347  0.2118 -0.1453 -0.1307
   96loPI   C6A 1532  10.330   7.148   7.940  0.2061 -0.1922  0.1077
   96loPI   C1B 1533   9.497   7.373   9.567  0.3542 -0.0019  0.1108
   96loPI   C2B 1534   9.366   7.254   9.159 -0.0373  0.3335 -0.1155
   96loPI   C3B 1535   9.454   7.193   8.726  0.2604  0.0232 -0.2199
   96loPI   C4B 1536   9.443   7.374   8.303 -0.0995 -0.0077 -0.3209
   97loPI    C1 1537   1.652  12.736  10.291  0.0651  0.0080  0.2375
   97loPI    C2 1538   1.252  12.722  10.280  0.0612  0.1388  0.1897
   97loPI    C3 1539   1.448  12.617  10.613 -0.0111  0.0432  0.2024
   97loPI   PO4 1540   1.622  12.521  10.015  0.0932  0.1124 -0.1819
   97loPI   GL1 1541   1.857  12.735   9.725  0.3055 -0.1432 -0.0895
   97loPI   GL2 1542   1.849  12.329   9.635 -0.0393  0.2807  0.1205
   97loPI   C1A 1543   1.868  12.917   9.243  0.1213 -0.0363  0.2632
   97loPI   C2A 1544   1.964  12.879   8.838 -0.1458 -0.0297  0.2554
   97loPI   C3A 1545   2.086  13.036   8.508 -0.1745  0.2958  0.2823
   97loPI   C4A 1546   2.199  13.421   8.541 -0.2395 -0.3028  0.0558
   97loPI   C5A 1547   1.936  13.647   8.337 -0.0384  0.0683  0.0385
   97loPI   C6A 1548   1.881  13.605   7.885 -0.2168  0.2921  0.1143
   97loPI   C1B 1549   1.957  12.487   9.296  0.3043  0.1500  0.0301
   97loPI   C2B 1550   2.215  12.434   9.003 -0.0022 -0.2289  0.2168
   97loPI   C3B 1551   2.311  12.576   8.539  0.1325 -0.0066 -0.2512
   97loPI   C4B 1552   2.183  12.620   8.146 -0.1155  0.0236 -0.1149
   98loPI    C1 1553  15.816   4.332   9.913  0.0196  0.1784 -0.0426
   98loPI    C2 1554  15.563   4.199  10.193  0.0537  0.1602 -0.0203
   98loPI    C3 1555  15.489   4.127   9.806  0.0511  0.1113 -0.0108
   98loPI   PO4 1556  16.091   4.309   9.902  0.0493  0.1459  0.2501
   98loPI   GL1 1557  16.352   4.094   9.600  0.1508 -0.1152 -0.0175
   98loPI   GL2 1558  16.076   3.879   9.621  0.2061 -0.2916 -0.0490
   98loPI   C1A 1559  16.227   4.212   9.167  0.3757  0.2531  0.1016
   98loPI   C2A 1560  16.080   4.547   8.925  0.0703  0.0438 -0.2103
   98loPI   C3A 1561  15.974   4.514   8.479 -0.3672  0.0013 -0.1567
   98loPI   C4A 1562  15.784   4.438   8.091 -0.0247  0.2194  0.0614
   98loPI   C5A 1563  15.518   4.473   7.665  0.3117  0.1492 -0.0164
   98loPI   C6A 1564  15.073   4.294   7.492 -0.1878  0.2696  0.0082
   98loPI   C1B 1565  16.019   3.789   9.174 -0.1338 -0.2264  0.1458
   98loPI   C2B 1566  16.022   3.494   8.724 -0.0137 -0.0716  0.0950
   98loPI   C3B 1567  15.836   3.603   8.306 -0.1282  0.0888 -0.1973
   98loPI   C4B 1568  15.702   3.845   7.920  0.0124 -0.0224 -0.0772
   99loPI    C1 1569   2.906   5.941  10.443 -0.1356  0.1633  0.1255
   99loPI    C2 1570   2.672   5.858  10.757 -0.1279 -0.1486  0.0523
   99loPI    C3 1571   2.974   5.614  10.662 -0.1331 -0.0602 -0.2014
   99loPI   PO4 1572   2.763   6.090  10.253  0.4092 -0.1185  0.1757
   99loPI   GL1 1573   2.547   6.107   9.973 -0.1791 -0.0109 -0.2030
   99loPI   GL2 1574   2.287   5.754   9.812  0.0173  0.2856 -0.2472
   99loPI   C1A 1575   2.700   6.049   9.563  0.0641 -0.0089  0.1541
   99loPI   C2A 1576   2.648   6.030   9.098  0.0990  0.2480 -0.0310
   99loPI   C3A 1577   2.475   6.059   8.748 -0.1591 -0.0588  0.1100
   99loPI   C4A 1578   2.507   5.919   8.266  0.1453 -0.0932 -0.1886
   99loPI   C5A 1579   2.359   5.870   7.926  0.2175  0.1408  0.1690
   99loPI   C6A 1580   2.194   5.757   7.536  0.1989  0.0774  0.2158
   99loPI   C1B 1581   2.304   5.487   9.473 -0.3610 -0.1443 -0.2382
   99loPI   C2B 1582   2.402   5.436   9.057 -0.1589  0.4184  0.1686
   99loPI   C3B 1583   2.453   5.517   8.603  0.0603 -0.0070  0.0528
   99loPI   C4B 1584   2.386   5.412   8.166  0.1131 -0.0557 -0.3565
  100loPI    C1 1585  14.103   2.281  10.147 -0.1133  0.0293 -0.1068
  100loPI    C2 1586  14.309   2.094  10.434 -0.0691 -0.0892 -0.2151
  100loPI    C3 1587  14.055   1.888  10.204 -0.2056  0.0306 -0.1730
  100loPI   PO4 1588  13.968   2.443  10.231  0.0583  0.0085 -0.3076
  100loPI   GL1 1589  13.508   2.312  10.068 -0.2424 -0.1258 -0.0864
  100loPI   GL2 1590  13.620   1.993   9.950  0.0395  0.2707  0.0948
  100loPI   C1A 1591  13.304   2.427   9.725 -0.0395  0.2561  0.2107
  100loPI   C2A 1592  13.261   2.336   9.284 -0.1299  0.4155  0.1926
  100loPI   C3A 1593  13.314   2.439   8.885 -0.0992 -0.3867  0.2004
  100loPI   C4A 1594  13.408   2.515   8.459  0.1507 -0.1379 -0.1949
  100loPI   C5A 1595  13.752   2.445   8.153  0.0101 -0.0684  0.0058
  100loPI   C6A 1596  14.060   2.188   7.970 -0.0498 -0.0232 -0.0072
  100loPI   C1B 1597  13.817   2.273   9.589 -0.2642  0.0783 -0.0658
  100loPI   C2B 1598  13.762   2.116   9.151  0.1417 -0.1302  0.2138
  100loPI   C3B 1599  13.691   1.932   8.790  0.1667 -0.0060 -0.0680
  100loPI   C4B 1600  13.552   1.558   8.595  0.0768 -0.0241 -0.1901
  101loPI    C1 1601   3.848  14.867  10.477 -0.1740 -0.1611  0.0672
  101loPI    C2 1602   3.485  14.992  10.590 -0.2081  0.0321 -0.2442
  101loPI    C3 1603   3.724  14.808  10.853 -0.4856  0.0046 -0.0063
  101loPI   PO4 1604   3.780  14.765  10.250  0.3901  0.2329 -0.0762
  101loPI   GL1 1605   3.873  14.660   9.795  0.0425  0.1736 -0.1396
  101loPI   GL2 1606   3.575  14.580   9.855  0.1242 -0.0287 -0.0523
  101loPI   C1A 1607   3.993  14.824   9.327 -0.0200  0.0306 -0.0084
  101loPI   C2A 1608   4.134  14.842   8.941 -0.1631 -0.0481 -0.1572
  101loPI   C3A 1609   4.219  14.942   8.588 -0.1705 -0.2869  0.0896
  101loPI   C4A 1610   4.181  15.009   8.106  0.3305  0.2309  0.2167
  101loPI   C5A 1611   4.199  15.203   7.706 -0.1558  0.1513  0.1545
  101loPI   C6A 1612   4.405  15.298   7.387 -0.3583 -0.0179  0.4088
  101loPI   C1B 1613   3.435  14.739   9.595 -0.0101  0.1995 -0.1204
  101loPI   C2B 1614   3.504  14.845   9.129 -0.1902  0.0564 -0.0103
  101loPI   C3B 1615   3.698  14.830   8.673  0.1757  0.0132 -0.0323
  101loPI   C4B 1616   3.635  14.962   8.284  0.0129 -0.1441 -0.3033
  102loPI    C1 1617  15.849   0.750  10.438  0.0505  0.0883  0.0987
  102loPI    C2 1618  15.645   0.558  10.723  0.0596 -0.2296 -0.1033
  102loPI    C3 1619  16.003   0.717  10.805 -0.0813 -0.0330  0.1440
  102loPI   PO4 1620  15.837   0.567  10.198  0.0600  0.0220  0.0568
  102loPI   GL1 1621  15.928   0.626   9.814 -0.2567 -0.1404 -0.2416
  102loPI   GL2 1622  16.195   0.658   9.769  0.0095  0.1818 -0.0424
  102loPI   C1A 1623  15.661   0.633   9.524 -0.1955 -0.0328  0.1020
  102loPI   C2A 1624  15.553   0.416   9.201 -0.0539  0.2479 -0.3507
  102loPI   C3A 1625  15.347   0.495   8.793  0.0281 -0.1640  0.4973
  102loPI   C4A 1626  15.366   0.555   8.399 -0.0121 -0.1769 -0.0206
  102loPI   C5A 1627  15.660   0.465   8.024  0.0134  0.1441  0.2885
  102loPI   C6A 1628  15.937   0.558   7.785 -0.2679  0.1562  0.0891
  102loPI   C1B 1629  16.173   0.453   9.405  0.0963 -0.0542  0.2229
  102loPI   C2B 1630  16.029   0.216   9.077  0.0310 -0.0231  0.0670
  102loPI   C3B 1631  15.935  -0.148   8.885  0.0610 -0.0660 -0.0295
  102loPI   C4B 1632  15.911  -0.430   8.588 -0.0321 -0.2475  0.0675
  103loPI    C1 1633   0.698   8.729  10.629 -0.0346 -0.2158  0.0679
  103loPI    C2 1634   0.350   8.832  10.799  0.0539  0.0035  0.1193
  103loPI    C3 1635   0.681   8.802  11.022  0.1429  0.1582  0.0100
  103loPI   PO4 1636   0.660   8.570  10.440 -0.3353 -0.0991  0.0693
  103loPI   GL1 1637   0.769   8.201  10.119 -0.1367 -0.0431 -0.1817
  103loPI   GL2 1638   0.951   8.428   9.955 -0.3938  0.1732 -0.0251
  103loPI   C1A 1639   0.604   8.238   9.655  0.1029  0.3785  0.2608
  103loPI   C2A 1640   0.607   8.448   9.224 -0.0508 -0.0434  0.0262
  103loPI   C3A 1641   0.555   8.556   8.783  0.3370  0.1133 -0.1944
  103loPI   C4A 1642   0.523   8.705   8.394 -0.0919 -0.0200 -0.0109
  103loPI   C5A 1643   0.355   8.855   8.070  0.4400  0.1823  0.4108
  103loPI   C6A 1644   0.269   9.057   7.599 -0.1275  0.0225 -0.1014
  103loPI   C1B 1645   0.992   8.553   9.576 -0.0442 -0.0865  0.0276
  103loPI   C2B 1646   1.229   8.736   9.283 -0.1044  0.4706  0.0535
  103loPI   C3B 1647   1.374   8.811   8.810 -0.0332  0.0592 -0.0564
  103loPI   C4B 1648   1.420   8.892   8.385 -0.1933  0.1394  0.2487
  104loPI    C1 1649   3.712  15.372  10.397  0.0218 -0.1942  0.1942
  104loPI    C2 1650   4.111  15.358  10.401  0.0287 -0.0742  0.0073
  104loPI    C3 1651   3.910  15.247  10.073 -0.0730  0.2637 -0.0491
  104loPI   PO4 1652   3.499  15.459  10.374  0.0208 -0.0912  0.0363
  104loPI   GL1 1653   3.266  15.578  10.039  0.0106  0.0867  0.2130
  104loPI   GL2 1654   3.043  15.669   9.841 -0.1657 -0.1093 -0.2382
  104loPI   C1A 1655   3.472  15.754   9.680  0.0336  0.1486  0.0271
  104loPI   C2A 1656   3.496  15.730   9.268 -0.1196 -0.1915  0.3237
  104loPI   C3A 1657   3.523  15.832   8.862  0.1709 -0.0386 -0.1099
  104loPI   C4A 1658   3.558  15.837   8.379  0.2220 -0.2133 -0.0254
  104loPI   C5A 1659   3.623  15.805   7.950 -0.0145 -0.0579 -0.0598
  104loPI   C6A 1660   3.812  15.520   7.577 -0.0491  0.0744  0.0870
  104loPI   C1B 1661   2.956  15.721   9.478  0.0911  0.0897  0.0099
  104loPI   C2B 1662   2.965  15.742   8.972 -0.0789 -0.1685 -0.0948
  104loPI   C3B 1663   3.050  15.837   8.542  0.2641  0.0416 -0.1362
  104loPI   C4B 1664   2.996  15.883   8.139 -0.0443  0.0159  0.0634
  105loPI    C1 1665   9.264   4.336  10.740  0.1652 -0.0201  0.1714
  105loPI    C2 1666   9.068   4.173  11.048  0.1788  0.0591  0.2222
  105loPI    C3 1667   9.451   4.078  10.982  0.0725 -0.2397  0.0125
  105loPI   PO4 1668   9.069   4.382  10.442 -0.3566 -0.0101 -0.2690
  105loPI   GL1 1669   8.981   4.368  10.062  0.2438 -0.1034  0.2928
  105loPI   GL2 1670   9.269   4.395   9.865  0.2345 -0.2462  0.3286
  105loPI   C1A 1671   8.845   4.032   9.798 -0.3980  0.1031 -0.0577
  105loPI   C2A 1672   8.585   4.130   9.382 -0.1716  0.3669  0.0251
  105loPI   C3A 1673   8.569   4.170   8.938 -0.0789 -0.0209 -0.1428
  105loPI   C4A 1674   8.497   4.057   8.525 -0.0692  0.0755 -0.0635
  105loPI   C5A 1675   8.371   3.846   8.048  0.1058 -0.1875 -0.1715
  105loPI   C6A 1676   8.245   4.023   7.609  0.2005  0.0086 -0.2178
  105loPI   C1B 1677   8.951   4.461   9.551  0.0856 -0.1934 -0.1414
  105loPI   C2B 1678   8.895   4.472   9.150  0.1350  0.0026  0.0782
  105loPI   C3B 1679   8.918   4.551   8.672 -0.2103 -0.0687  0.2655
  105loPI   C4B 1680   8.807   4.432   8.205 -0.0441  0.1497  0.0997
  106loPI    C1 1681   2.822   9.596  10.773  0.5086 -0.0130 -0.0283
  106loPI    C2 1682   2.773   9.967  10.913 -0.1340 -0.0506 -0.1257
  106loPI    C3 1683   2.964   9.694  11.134  0.0813  0.2553  0.0739
  106loPI   PO4 1684   2.871   9.658  10.474  0.1187  0.2031  0.1803
  106loPI   GL1 1685   2.721   9.325  10.060 -0.2792 -0.0810 -0.1561
  106loPI   GL2 1686   3.042   9.537  10.017 -0.3624  0.0750 -0.2288
  106loPI   C1A 1687   2.682   9.367   9.629 -0.3507  0.0137 -0.0281
  106loPI   C2A 1688   2.739   9.483   9.226  0.1764 -0.1970 -0.1672
  106loPI   C3A 1689   2.755   9.695   8.751  0.0147 -0.4108 -0.0927
  106loPI   C4A 1690   2.968   9.506   8.379 -0.2124  0.1617 -0.2702
  106loPI   C5A 1691   2.890   9.637   7.965 -0.1477  0.1297  0.0884
  106loPI   C6A 1692   2.837  10.041   7.726 -0.1790  0.0968  0.0924
  106loPI   C1B 1693   3.179   9.457   9.594 -0.1631 -0.0283  0.1969
  106loPI   C2B 1694   3.255   9.531   9.121  0.2019  0.2702 -0.0868
  106loPI   C3B 1695   3.349   9.515   8.677  0.1260  0.0336  0.2484
  106loPI   C4B 1696   3.395   9.676   8.230 -0.0667 -0.0535  0.1397
  107loPI    C1 1697   3.055   5.267  10.264  0.1710  0.0026 -0.0087
  107loPI    C2 1698   3.218   5.132  10.604 -0.0699 -0.2318  0.0169
  107loPI    C3 1699   2.820   5.144  10.564 -0.0475  0.1076 -0.1349
  107loPI   PO4 1700   3.194   5.452  10.211 -0.2281  0.1633  0.1293
  107loPI   GL1 1701   3.151   5.860   9.951  0.4074  0.0427 -0.1593
  107loPI   GL2 1702   3.364   6.053   9.984 -0.1357 -0.2918 -0.1202
  107loPI   C1A 1703   3.279   5.779   9.417  0.2372  0.1023  0.1064
  107loPI   C2A 1704   3.466   5.847   9.052  0.1008 -0.4266  0.0330
  107loPI   C3A 1705   3.354   5.916   8.644  0.0748 -0.2186 -0.1546
  107loPI   C4A 1706   3.066   6.068   8.400 -0.0680  0.1814 -0.1835
  107loPI   C5A 1707   2.907   6.051   7.983 -0.1900  0.2093  0.2627
  107loPI   C6A 1708   2.973   5.862   7.528 -0.1498 -0.0433 -0.3022
  107loPI   C1B 1709   3.258   6.231   9.569 -0.0264 -0.1887 -0.0629
  107loPI   C2B 1710   3.108   6.222   9.169  0.2367  0.0450 -0.0380
  107loPI   C3B 1711   3.034   6.350   8.792  0.0329 -0.2981  0.0442
  107loPI   C4B 1712   2.903   6.566   8.551  0.0919 -0.0985 -0.0105
  108loPI    C1 1713   4.636   4.946  10.539 -0.1874  0.2157  0.0591
  108loPI    C2 1714   4.711   5.243  10.797  0.0522  0.0899  0.1376
  108loPI    C3 1715   4.567   4.894  10.930 -0.0620  0.1096  0.0677
  108loPI   PO4 1716   4.517   5.151  10.321 -0.2542  0.0946 -0.1801
  108loPI   GL1 1717   4.628   5.127   9.949 -0.1384 -0.0689  0.3521
  108loPI   GL2 1718   4.706   4.863   9.719 -0.0650 -0.1187  0.0197
  108loPI   C1A 1719   4.717   5.332   9.556 -0.2187  0.1090  0.1845
  108loPI   C2A 1720   4.725   5.425   9.073  0.1275  0.1086 -0.2829
  108loPI   C3A 1721   4.658   5.405   8.673 -0.4018  0.1985 -0.0205
  108loPI   C4A 1722   4.678   5.277   8.208  0.0173  0.1608  0.0194
  108loPI   C5A 1723   4.370   5.229   7.907 -0.4205 -0.1562  0.1740
  108loPI   C6A 1724   4.388   4.828   7.747  0.2433  0.2079  0.2510
  108loPI   C1B 1725   4.514   4.885   9.361  0.0203  0.0592 -0.2081
  108loPI   C2B 1726   4.560   4.931   8.857 -0.0978  0.0210  0.1103
  108loPI   C3B 1727   4.632   4.864   8.451  0.1827 -0.1146  0.0523
  108loPI   C4B 1728   4.757   4.722   8.037  0.1801  0.0369  0.0332
  109loPI    C1 1729  16.873   4.928   9.972 -0.0014 -0.0453  0.0969
  109loPI    C2 1730  16.994   5.290   9.852 -0.2013  0.0217  0.0925
  109loPI    C3 1731  16.977   5.204  10.242 -0.3230  0.0775  0.0998
  109loPI   PO4 1732  16.981   4.739   9.741 -0.0496  0.1845  0.0667
  109loPI   GL1 1733  17.076   4.756   9.397 -0.0209  0.0356 -0.3482
  109loPI   GL2 1734  17.138   5.067   9.356 -0.0113  0.0507  0.0636
  109loPI   C1A 1735  17.082   4.798   8.948 -0.2134  0.3126  0.0113
  109loPI   C2A 1736  17.128   4.848   8.492 -0.0869 -0.2508 -0.0042
  109loPI   C3A 1737  16.743   4.669   8.203 -0.0514 -0.3542 -0.2658
  109loPI   C4A 1738  16.839   4.644   7.694 -0.0501 -0.1978 -0.3078
  109loPI   C5A 1739  16.912   4.609   7.229  0.1110  0.0631  0.1172
  109loPI   C6A 1740  17.035   4.836   6.859  0.3087  0.0490  0.1739
  109loPI   C1B 1741  17.211   5.254   8.874  0.2499  0.0753  0.0398
  109loPI   C2B 1742  17.215   5.504   8.510  0.0780  0.0866 -0.0827
  109loPI   C3B 1743  17.344   5.847   8.304  0.1968  0.0018 -0.0487
  109loPI   C4B 1744  17.516   6.121   8.033 -0.2341 -0.2211 -0.4032
  110loPI    C1 1745   1.987  18.257  10.528  0.1660  0.2627 -0.3225
  110loPI    C2 1746   2.194  18.492  10.777  0.0038  0.1175 -0.0463
  110loPI    C3 1747   2.322  18.121  10.698 -0.1410  0.0313  0.1166
  110loPI   PO4 1748   1.863  18.365  10.405  0.0639  0.0300  0.2716
  110loPI   GL1 1749   1.980  18.533   9.971  0.2495 -0.2231 -0.2068
  110loPI   GL2 1750   2.370  18.690   9.888  0.1007 -0.1382 -0.2699
  110loPI   C1A 1751   2.048  18.328   9.632  0.0321 -0.0876 -0.3211
  110loPI   C2A 1752   1.967  18.378   9.253  0.2796  0.1317  0.3813
  110loPI   C3A 1753   1.933  18.384   8.817 -0.3259  0.3477 -0.2118
  110loPI   C4A 1754   1.972  18.465   8.414 -0.1222  0.0740  0.1026
  110loPI   C5A 1755   1.985  18.631   7.958 -0.0722 -0.1740  0.0324
  110loPI   C6A 1756   1.743  18.665   7.626 -0.1248  0.0280  0.1599
  110loPI   C1B 1757   2.473  18.574   9.450 -0.1094 -0.1925 -0.0229
  110loPI   C2B 1758   2.396  18.442   9.077 -0.0674  0.0519  0.1111
  110loPI   C3B 1759   2.478  18.526   8.587 -0.0310 -0.4559 -0.0722
  110loPI   C4B 1760   2.511  18.538   8.194  0.1395 -0.1864  0.1101
  111loPI    C1 1761  15.464   6.655  10.502  0.0609 -0.1276  0.0400
  111loPI    C2 1762  15.173   6.435  10.668 -0.1912  0.1110 -0.0783
  111loPI    C3 1763  15.390   6.683  10.895 -0.4388  0.3293 -0.0752
  111loPI   PO4 1764  15.340   6.874  10.300 -0.0529  0.0078 -0.0024
  111loPI   GL1 1765  14.933   6.775  10.046 -0.0371 -0.3549  0.2246
  111loPI   GL2 1766  14.937   6.570  10.249  0.0003 -0.2651 -0.1108
  111loPI   C1A 1767  14.977   6.961   9.595 -0.1259 -0.1163  0.2773
  111loPI   C2A 1768  14.858   6.989   9.134  0.2650 -0.0371 -0.4867
  111loPI   C3A 1769  14.595   7.146   8.820  0.0093  0.2906  0.0637
  111loPI   C4A 1770  14.616   6.917   8.490 -0.2002  0.1347 -0.0262
  111loPI   C5A 1771  14.359   6.733   8.098  0.0571 -0.2548 -0.0451
  111loPI   C6A 1772  14.119   6.764   7.684  0.3395 -0.3369  0.0395
  111loPI   C1B 1773  14.954   6.428   9.713 -0.0355 -0.0840 -0.2260
  111loPI   C2B 1774  15.162   6.485   9.391  0.2889  0.1494 -0.2385
  111loPI   C3B 1775  15.328   6.787   9.124 -0.0980  0.1219 -0.0477
  111loPI   C4B 1776  15.763   7.008   8.918  0.1077 -0.1073  0.1502
  112loPI    C1 1777   1.160   0.167  10.557  0.3965  0.0884 -0.0159
  112loPI    C2 1778   1.344  -0.169  10.675  0.2675  0.0045 -0.0518
  112loPI    C3 1779   1.238   0.108  10.945  0.2574 -0.0427 -0.0072
  112loPI   PO4 1780   1.051   0.109  10.309  0.0315  0.2032 -0.1486
  112loPI   GL1 1781   1.027  -0.158   9.867  0.2577 -0.2177 -0.0555
  112loPI   GL2 1782   1.092  -0.405   9.674  0.0452 -0.0589  0.0462
  112loPI   C1A 1783   0.703  -0.019   9.616  0.0374 -0.0015 -0.2401
  112loPI   C2A 1784   0.467   0.299   9.427 -0.0479  0.0003  0.0446
  112loPI   C3A 1785   0.315   0.329   9.074 -0.1102 -0.2057  0.0525
  112loPI   C4A 1786   0.069   0.296   8.594  0.1065 -0.0391  0.0470
  112loPI   C5A 1787  -0.033   0.404   8.279  0.1755 -0.0564 -0.2725
  112loPI   C6A 1788   0.058   0.268   7.789 -0.0812  0.0666 -0.2644
  112loPI   C1B 1789   0.934  -0.360   9.267 -0.0113 -0.0748 -0.2309
  112loPI   C2B 1790   0.619  -0.096   9.081 -0.0523  0.1999  0.0429
  112loPI   C3B 1791   0.583   0.128   8.582 -0.0711 -0.0600 -0.2952
  112loPI   C4B 1792   0.424   0.140   8.099  0.0549  0.1088  0.1746
  113loPI    C1 1793  14.425   0.567  10.327  0.0362 -0.1118  0.2382
  113loPI    C2 1794  14.288   0.866  10.555  0.0280 -0.0022  0.0912
  113loPI    C3 1795  14.668   0.748  10.589  0.0431  0.0538  0.1195
  113loPI   PO4 1796  14.340   0.643  10.114 -0.0919  0.0520  0.2782
  113loPI   GL1 1797  14.591   0.714   9.779 -0.2562 -0.1043 -0.0994
  113loPI   GL2 1798  14.850   0.801   9.673  0.0639  0.0089  0.1228
  113loPI   C1A 1799  14.653   0.431   9.394 -0.1041 -0.1591 -0.3240
  113loPI   C2A 1800  14.449   0.352   9.032  0.0509 -0.1875  0.1679
  113loPI   C3A 1801  14.176   0.397   8.712 -0.1151 -0.2613  0.0318
  113loPI   C4A 1802  13.847   0.433   8.363 -0.1301  0.0929  0.1192
  113loPI   C5A 1803  13.661   0.266   8.064  0.1325  0.1789 -0.3128
  113loPI   C6A 1804  13.823  -0.177   7.845  0.1688 -0.0136  0.0415
  113loPI   C1B 1805  15.140   0.817   9.431  0.1342 -0.2532  0.0597
  113loPI   C2B 1806  15.080   0.881   9.009 -0.3310 -0.0008 -0.1289
  113loPI   C3B 1807  15.176   0.986   8.650  0.0197  0.2827 -0.1042
  113loPI   C4B 1808  15.326   1.130   8.239 -0.0270  0.0244  0.0039
  114loPI    C1 1809   9.979  10.594  10.805 -0.2196 -0.3984  0.1699
  114loPI    C2 1810   9.660  10.512  11.032 -0.1829 -0.1528  0.3145
  114loPI    C3 1811   9.968  10.716  11.186 -0.0569 -0.1847  0.1084
  114loPI   PO4 1812  10.170  10.336  10.731 -0.1079  0.0072  0.0404
  114loPI   GL1 1813  10.130  10.137  10.286 -0.0503 -0.1613 -0.0356
  114loPI   GL2 1814   9.898   9.853  10.330 -0.2613 -0.3579 -0.0866
  114loPI   C1A 1815  10.207  10.147   9.843  0.1447 -0.2809 -0.0057
  114loPI   C2A 1816  10.248  10.147   9.347  0.1404  0.3248  0.1237
  114loPI   C3A 1817  10.274  10.006   8.947 -0.1110  0.0585  0.1567
  114loPI   C4A 1818  10.246   9.897   8.533 -0.2388  0.0239  0.0730
  114loPI   C5A 1819  10.287   9.708   8.182 -0.2115 -0.2254 -0.3277
  114loPI   C6A 1820  10.446   9.287   8.101  0.0109 -0.0400  0.0608
  114loPI   C1B 1821  10.045   9.712   9.915  0.2160 -0.1568 -0.2713
  114loPI   C2B 1822   9.991   9.682   9.447  0.1648 -0.0818 -0.0992
  114loPI   C3B 1823  10.050   9.507   9.083 -0.0166  0.2193  0.2805
  114loPI   C4B 1824  10.076   9.456   8.645  0.3289  0.0799  0.0168
  115loPI    C1 1825   4.194   0.898  10.319 -0.0262 -0.0704  0.1291
  115loPI    C2 1826   4.248   0.522  10.193 -0.2534 -0.0755  0.0424
  115loPI    C3 1827   3.945   0.609  10.440 -0.1122  0.0251  0.1819
  115loPI   PO4 1828   4.289   1.108  10.065  0.2017 -0.0536  0.3440
  115loPI   GL1 1829   4.544   1.205   9.731  0.1383  0.1914  0.1332
  115loPI   GL2 1830   4.811   1.439   9.642 -0.0792  0.1191  0.0064
  115loPI   C1A 1831   4.490   0.948   9.406 -0.3487  0.2226  0.1154
  115loPI   C2A 1832   4.193   0.883   9.110  0.0427  0.0699 -0.1840
  115loPI   C3A 1833   3.962   0.877   8.662 -0.0451  0.0199  0.2539
  115loPI   C4A 1834   4.022   0.818   8.259 -0.0767  0.1171 -0.0740
  115loPI   C5A 1835   3.923   1.040   7.873 -0.2695  0.0530 -0.0302
  115loPI   C6A 1836   3.824   1.412   7.723  0.2886 -0.2007 -0.1220
  115loPI   C1B 1837   4.802   1.340   9.255  0.1244  0.2323  0.3289
  115loPI   C2B 1838   4.449   1.271   8.924 -0.0604 -0.2442 -0.1869
  115loPI   C3B 1839   4.285   1.264   8.509  0.1068  0.2321  0.3473
  115loPI   C4B 1840   4.364   1.289   8.080 -0.3123 -0.1226 -0.2389
  116loPI    C1 1841   4.453  13.635  10.581  0.3766 -0.0463  0.0228
  116loPI    C2 1842   4.300  14.003  10.608  0.3239 -0.0634 -0.0388
  116loPI    C3 1843   4.268  13.750  10.916  0.0989 -0.1165 -0.1039
  116loPI   PO4 1844   4.310  13.515  10.393 -0.3119 -0.0633  0.3057
  116loPI   GL1 1845   4.286  13.329   9.927 -0.2008  0.0553  0.1211
  116loPI   GL2 1846   4.098  13.643   9.743 -0.1153 -0.0043 -0.1222
  116loPI   C1A 1847   4.657  13.369   9.574  0.0919 -0.2625 -0.1202
  116loPI   C2A 1848   4.778  13.291   9.089  0.1204  0.2168 -0.0884
  116loPI   C3A 1849   4.848  13.380   8.659 -0.0202 -0.0635 -0.1035
  116loPI   C4A 1850   4.967  13.634   8.365 -0.0023 -0.1509  0.0915
  116loPI   C5A 1851   4.963  13.587   7.965  0.2470  0.0165  0.0171
  116loPI   C6A 1852   4.997  13.264   7.680  0.1081 -0.4637  0.0872
  116loPI   C1B 1853   4.107  13.713   9.301 -0.3111  0.0833 -0.1840
  116loPI   C2B 1854   4.103  13.860   8.918  0.1528 -0.1692  0.0461
  116loPI   C3B 1855   4.151  13.946   8.472 -0.0652  0.1948  0.0345
  116loPI   C4B 1856   4.184  14.087   8.079 -0.1826  0.1223  0.3089
  117loPI    C1 1857  17.827  11.730  10.485  0.0841 -0.0735 -0.0400
  117loPI    C2 1858  17.438  11.689  10.403  0.0686  0.0353 -0.0229
  117loPI    C3 1859  17.558  11.953  10.679  0.1612  0.0687 -0.0945
  117loPI   PO4 1860  17.879  11.744  10.256  0.1042 -0.0630 -0.1244
  117loPI   GL1 1861  17.965  12.030   9.885 -0.0549 -0.0436  0.0225
  117loPI   GL2 1862  17.709  12.253   9.622 -0.0163 -0.0532  0.0012
  117loPI   C1A 1863  17.889  11.648   9.568 -0.1033 -0.0556 -0.1615
  117loPI   C2A 1864  17.663  11.588   9.145  0.0929  0.0392 -0.1819
  117loPI   C3A 1865  17.412  11.681   8.809  0.3033 -0.0163 -0.3066
  117loPI   C4A 1866  17.087  11.796   8.481 -0.1179 -0.3188  0.2066
  117loPI   C5A 1867  16.875  12.073   8.126 -0.0556 -0.0240 -0.0192
  117loPI   C6A 1868  16.580  12.346   8.034 -0.1368  0.2110  0.3212
  117loPI   C1B 1869  17.849  12.084   9.248 -0.1596  0.1547  0.1045
  117loPI   C2B 1870  17.944  11.893   8.830 -0.0697 -0.1398 -0.1366
  117loPI   C3B 1871  18.109  11.878   8.409 -0.2876  0.0152 -0.0632
  117loPI   C4B 1872  18.396  11.973   8.192  0.0909  0.0793 -0.0903
  118loPI    C1 1873  11.781  18.013  10.679  0.1269  0.2483  0.3115
  118loPI    C2 1874  12.083  17.799  10.830 -0.0151 -0.0474  0.1846
  118loPI    C3 1875  11.705  17.707  10.925 -0.0848  0.0476  0.0040
  118loPI   PO4 1876  11.855  18.087  10.377  0.0263  0.2964 -0.1083
  118loPI   GL1 1877  11.756  17.935  10.004  0.0681  0.0963 -0.3257
  118loPI   GL2 1878  11.406  17.994  10.106 -0.1973  0.1549 -0.0671
  118loPI   C1A 1879  11.562  18.286   9.652 -0.1238 -0.0749 -0.1049
  118loPI   C2A 1880  11.788  18.740   9.568 -0.1303  0.1459  0.1071
  118loPI   C3A 1881  11.741  19.081   9.240  0.2988  0.2571 -0.0628
  118loPI   C4A 1882  11.586  19.192   8.840 -0.0112  0.3978 -0.0315
  118loPI   C5A 1883  11.646  19.251   8.491 -0.0518  0.1979  0.0364
  118loPI   C6A 1884  11.340  19.389   8.325  0.1749  0.0702 -0.2885
  118loPI   C1B 1885  11.172  17.774   9.865  0.0775  0.0387 -0.1462
  118loPI   C2B 1886  11.132  17.607   9.411  0.1273 -0.0199 -0.1962
  118loPI   C3B 1887  10.760  17.826   9.144  0.0133  0.0744  0.1811
  118loPI   C4B 1888  10.602  17.884   8.709  0.1164  0.2023  0.1379
  119loPI    C1 1889   9.236   0.281  10.670  0.2432 -0.2283 -0.0199
  119loPI    C2 1890   8.890   0.143  10.816  0.0597  0.0627 -0.1698
  119loPI    C3 1891   9.115   0.391  11.035  0.2365 -0.2200 -0.0247
  119loPI   PO4 1892   9.301   0.112  10.503  0.1880  0.0865 -0.1057
  119loPI   GL1 1893   9.382  -0.062  10.080 -0.0762  0.0454  0.0547
  119loPI   GL2 1894   9.223  -0.076   9.786  0.1475  0.0963 -0.2535
  119loPI   C1A 1895   9.597   0.226   9.837  0.1530  0.0340  0.1525
  119loPI   C2A 1896   9.554   0.242   9.353  0.1838 -0.1887 -0.2963
  119loPI   C3A 1897   9.381   0.199   8.978  0.0228 -0.2063  0.0958
  119loPI   C4A 1898   9.366   0.039   8.546 -0.4191 -0.1148  0.2162
  119loPI   C5A 1899   9.559  -0.121   8.188  0.1234  0.0232 -0.0687
  119loPI   C6A 1900   9.868  -0.433   7.978 -0.1544 -0.1895 -0.2297
  119loPI   C1B 1901   9.306  -0.184   9.379 -0.2008  0.0785 -0.3399
  119loPI   C2B 1902   9.490  -0.292   8.913  0.0537 -0.3810  0.2451
  119loPI   C3B 1903   9.593  -0.490   8.607 -0.0775  0.0523  0.2414
  119loPI   C4B 1904   9.703  -0.815   8.302 -0.0137  0.0433 -0.1064
  120loPI    C1 1905   7.100   4.915  10.476  0.2426  0.0914  0.0256
  120loPI    C2 1906   6.911   5.062  10.797 -0.2344  0.1683 -0.2803
  120loPI    C3 1907   6.890   4.671  10.714  0.1830  0.0864 -0.0319
  120loPI   PO4 1908   7.080   5.006  10.289 -0.0510  0.1222 -0.3298
  120loPI   GL1 1909   6.852   5.068   9.891 -0.3269  0.0784 -0.0034
  120loPI   GL2 1910   6.671   5.056   9.703  0.0015  0.1093 -0.1693
  120loPI   C1A 1911   7.229   5.172   9.574  0.1797 -0.2386  0.1853
  120loPI   C2A 1912   7.227   5.294   9.171  0.5288  0.2158  0.2822
  120loPI   C3A 1913   7.144   5.296   8.814  0.0496 -0.0631 -0.1145
  120loPI   C4A 1914   7.182   5.316   8.353  0.0574  0.1739 -0.1610
  120loPI   C5A 1915   6.933   5.404   8.030  0.1115  0.0003  0.0764
  120loPI   C6A 1916   6.825   5.292   7.608  0.2028  0.1335 -0.4818
  120loPI   C1B 1917   6.727   5.363   9.480  0.1232 -0.0539  0.1998
  120loPI   C2B 1918   6.699   5.438   9.044 -0.1316 -0.1252  0.1117
  120loPI   C3B 1919   6.695   5.469   8.644  0.1173 -0.1418 -0.1831
  120loPI   C4B 1920   6.587   5.624   8.249  0.3415 -0.0340  0.0909
  121loPI    C1 1921   6.623   7.414  10.524 -0.4351  0.0334 -0.2700
  121loPI    C2 1922   6.254   7.334  10.656 -0.4013  0.1697 -0.0890
  121loPI    C3 1923   6.545   7.419  10.916 -0.1832 -0.1729 -0.2139
  121loPI   PO4 1924   6.613   7.327  10.283 -0.3305  0.0427  0.0682
  121loPI   GL1 1925   6.849   7.255   9.926  0.1503  0.0154 -0.0112
  121loPI   GL2 1926   6.775   7.559   9.808 -0.1902  0.1567 -0.1928
  121loPI   C1A 1927   7.201   7.237   9.570 -0.2367  0.0564 -0.0168
  121loPI   C2A 1928   7.076   7.236   9.170  0.0187  0.2428  0.0670
  121loPI   C3A 1929   7.017   7.122   8.687  0.1467 -0.0910 -0.0755
  121loPI   C4A 1930   6.896   7.081   8.238 -0.1034  0.0995  0.0372
  121loPI   C5A 1931   6.790   6.907   7.810  0.1683 -0.0464  0.1559
  121loPI   C6A 1932   6.898   6.825   7.484  0.1640  0.0676  0.1708
  121loPI   C1B 1933   6.930   7.686   9.536  0.2480 -0.1924 -0.2113
  121loPI   C2B 1934   6.937   7.685   9.128  0.1187  0.0583 -0.1935
  121loPI   C3B 1935   6.923   7.667   8.703 -0.3308 -0.1838  0.3954
  121loPI   C4B 1936   6.895   7.678   8.335 -0.1976 -0.2456  0.1749
  122loPI    C1 1937   9.658   8.955  11.042 -0.0374  0.0673 -0.1208
  122loPI    C2 1938   9.408   9.135  11.298 -0.0023 -0.0840  0.0214
  122loPI    C3 1939   9.799   9.114  11.381 -0.0060 -0.2258  0.0059
  122loPI   PO4 1940   9.519   9.072  10.784  0.2496 -0.2185 -0.0627
  122loPI   GL1 1941   9.380   9.070  10.371  0.0307 -0.1545 -0.0692
  122loPI   GL2 1942   9.670   9.346  10.309  0.0436 -0.1654  0.0156
  122loPI   C1A 1943   9.359   9.161   9.945 -0.0615 -0.1030  0.0362
  122loPI   C2A 1944   9.287   9.111   9.503 -0.0468  0.0892 -0.0357
  122loPI   C3A 1945   9.262   9.064   9.048 -0.1719 -0.3704  0.1036
  122loPI   C4A 1946   9.330   8.984   8.601 -0.0569 -0.0463  0.0448
  122loPI   C5A 1947   9.394   9.038   8.228 -0.1750 -0.1021 -0.0527
  122loPI   C6A 1948   9.130   9.368   7.858  0.0590 -0.1969  0.2053
  122loPI   C1B 1949   9.828   9.257   9.841 -0.2667  0.0978 -0.1575
  122loPI   C2B 1950   9.785   9.178   9.392 -0.2713  0.4681  0.3439
  122loPI   C3B 1951   9.816   9.086   8.930  0.0731 -0.0787 -0.0301
  122loPI   C4B 1952   9.837   9.019   8.464  0.3331 -0.0910 -0.2527
  123loPI    C1 1953   2.149  12.616  10.152  0.2135 -0.0601  0.0647
  123loPI    C2 1954   2.027  12.509  10.518 -0.1402 -0.0005 -0.0323
  123loPI    C3 1955   2.204  12.863  10.461  0.3731 -0.2161  0.1630
  123loPI   PO4 1956   2.131  12.357  10.053  0.1502 -0.0680  0.3107
  123loPI   GL1 1957   2.414  12.257   9.771  0.1088  0.2001 -0.0705
  123loPI   GL2 1958   2.369  12.584   9.584 -0.1022  0.1370 -0.0269
  123loPI   C1A 1959   2.234  12.068   9.310  0.1334 -0.0820 -0.3658
  123loPI   C2A 1960   2.428  11.948   8.975  0.0913 -0.0709 -0.0705
  123loPI   C3A 1961   2.453  12.096   8.601  0.0206  0.0130  0.2027
  123loPI   C4A 1962   2.506  12.200   8.251 -0.0678  0.0781 -0.1056
  123loPI   C5A 1963   2.725  12.005   7.882  0.1520 -0.0125 -0.0167
  123loPI   C6A 1964   2.941  12.104   7.614 -0.2942 -0.1930  0.1252
  123loPI   C1B 1965   2.485  12.776   9.213  0.4063  0.2018 -0.0245
  123loPI   C2B 1966   2.464  12.984   8.857  0.1280  0.2449  0.1258
  123loPI   C3B 1967   2.591  13.009   8.428 -0.0051 -0.0372 -0.2368
  123loPI   C4B 1968   2.578  12.967   8.054  0.1506  0.3076 -0.1446
  124loPI    C1 1969  10.750  17.164  10.733  0.1145  0.0318  0.1210
  124loPI    C2 1970  10.367  17.107  10.634  0.1266 -0.0859  0.1395
  124loPI    C3 1971  10.519  16.927  10.957  0.2510 -0.2055  0.0156
  124loPI   PO4 1972  10.862  17.129  10.524 -0.3344  0.0492  0.0151
  124loPI   GL1 1973  10.763  16.882  10.183 -0.0793  0.3864  0.1212
  124loPI   GL2 1974  10.589  17.004  10.110 -0.3334 -0.2546 -0.2107
  124loPI   C1A 1975  10.950  16.820   9.774 -0.0092 -0.1220 -0.0690
  124loPI   C2A 1976  10.948  16.741   9.318 -0.1079 -0.1583 -0.2091
  124loPI   C3A 1977  10.845  16.933   8.936  0.0176  0.0743  0.3388
  124loPI   C4A 1978  10.818  17.220   8.533  0.5862 -0.0013  0.0224
  124loPI   C5A 1979  10.468  17.497   8.389 -0.1133 -0.0798  0.1397
  124loPI   C6A 1980  10.014  17.326   8.402  0.1914  0.0304  0.1944
  124loPI   C1B 1981  10.802  17.377   9.864  0.0419  0.0412  0.1279
  124loPI   C2B 1982  10.584  17.625   9.586  0.0794 -0.1005  0.1033
  124loPI   C3B 1983  10.270  17.757   9.207 -0.1592  0.1438 -0.1994
  124loPI   C4B 1984  10.118  17.410   8.914  0.3045  0.2658 -0.0532
  125loPI    C1 1985   3.755   2.481  10.325 -0.0266  0.0401 -0.0920
  125loPI    C2 1986   3.594   2.344   9.985  0.0721 -0.0491 -0.1034
  125loPI    C3 1987   3.376   2.353  10.321 -0.0543  0.1232 -0.1881
  125loPI   PO4 1988   3.911   2.640  10.281  0.1146 -0.1937 -0.1839
  125loPI   GL1 1989   4.248   2.626  10.032  0.1241  0.2992  0.1230
  125loPI   GL2 1990   4.066   2.393   9.867  0.1560 -0.0528  0.0195
  125loPI   C1A 1991   4.333   2.804   9.583 -0.2988 -0.0398 -0.0396
  125loPI   C2A 1992   4.182   2.688   9.076 -0.4989  0.3742 -0.0345
  125loPI   C3A 1993   4.323   2.818   8.674  0.0233  0.1683 -0.0223
  125loPI   C4A 1994   4.207   2.534   8.293  0.2586 -0.1321  0.2193
  125loPI   C5A 1995   4.117   2.689   7.868  0.2621 -0.0359  0.3011
  125loPI   C6A 1996   4.023   2.763   7.480  0.1819 -0.2092  0.2436
  125loPI   C1B 1997   4.181   2.286   9.471  0.0469  0.2877 -0.2346
  125loPI   C2B 1998   4.397   2.171   9.053 -0.0714  0.2328  0.0419
  125loPI   C3B 1999   4.437   2.040   8.579  0.1832 -0.3292 -0.1460
  125loPI   C4B 2000   4.524   1.671   8.392  0.1383  0.2179 -0.1774
  126loPI    C1 2001  14.518   3.737  10.691 -0.1047 -0.1197  0.0977
  126loPI    C2 2002  14.906   3.757  10.783 -0.0441 -0.1939 -0.1337
  126loPI    C3 2003  14.634   3.706  11.072  0.1129 -0.0889  0.0350
  126loPI   PO4 2004  14.479   3.561  10.471  0.0272  0.1088 -0.1596
  126loPI   GL1 2005  14.519   3.643  10.019  0.0782  0.2012  0.2060
  126loPI   GL2 2006  14.734   3.496   9.893  0.0978 -0.0945  0.0278
  126loPI   C1A 2007  14.312   3.645   9.569 -0.0130  0.3655  0.0399
  126loPI   C2A 2008  14.070   3.597   9.106 -0.0268 -0.1461 -0.1102
  126loPI   C3A 2009  13.757   3.546   8.850  0.0137  0.1814 -0.0070
  126loPI   C4A 2010  13.629   3.343   8.511  0.0861 -0.3748 -0.1018
  126loPI   C5A 2011  13.803   3.068   8.249  0.0027  0.0627 -0.2276
  126loPI   C6A 2012  13.903   2.903   8.553 -0.2930 -0.0986  0.3363
  126loPI   C1B 2013  14.829   3.572   9.414 -0.1216  0.2796  0.0955
  126loPI   C2B 2014  15.211   3.596   9.104 -0.0915  0.0945 -0.0105
  126loPI   C3B 2015  15.588   3.779   8.837 -0.0385 -0.0532  0.3697
  126loPI   C4B 2016  15.980   4.021   8.552  0.1562 -0.0905 -0.3025
  127loPI    C1 2017  16.762   3.934   9.861 -0.1143  0.0820 -0.0381
  127loPI    C2 2018  16.450   4.021  10.096 -0.0287  0.4162 -0.0428
  127loPI    C3 2019  16.784   3.871  10.256 -0.2672 -0.1679 -0.0674
  127loPI   PO4 2020  16.881   4.209   9.683  0.1561 -0.0924  0.0676
  127loPI   GL1 2021  16.949   4.289   9.142 -0.1571  0.0141  0.1793
  127loPI   GL2 2022  16.636   4.403   9.232  0.0043  0.0294 -0.1462
  127loPI   C1A 2023  17.244   4.379   8.794 -0.1973  0.0163 -0.1125
  127loPI   C2A 2024  17.517   4.516   8.407  0.1359 -0.1312 -0.0232
  127loPI   C3A 2025  17.746   4.649   8.094 -0.1245  0.1031  0.2187
  127loPI   C4A 2026  17.957   4.561   7.655 -0.0965  0.0862 -0.0164
  127loPI   C5A 2027  18.162   4.348   7.367 -0.1513 -0.0290  0.0435
  127loPI   C6A 2028  18.620   4.138   7.150  0.1271  0.0729 -0.2379
  127loPI   C1B 2029  16.638   4.608   8.843  0.3298 -0.0228  0.1338
  127loPI   C2B 2030  16.397   4.772   8.569  0.0360 -0.1098 -0.0100
  127loPI   C3B 2031  16.264   4.717   8.049  0.5048  0.0693 -0.1307
  127loPI   C4B 2032  15.950   4.707   7.702  0.0352 -0.1761  0.0593
  128loPI    C1 2033   7.303  15.598  10.398  0.0659 -0.1402 -0.0083
  128loPI    C2 2034   7.035  15.611  10.101 -0.0601 -0.0874  0.1067
  128loPI    C3 2035   7.102  15.936  10.325 -0.2073 -0.2188  0.3468
  128loPI   PO4 2036   7.499  15.451  10.239  0.2322 -0.0303  0.3133
  128loPI   GL1 2037   7.480  15.409   9.791  0.0658 -0.0611 -0.2887
  128loPI   GL2 2038   7.803  15.584   9.797  0.0182  0.0807 -0.2497
  128loPI   C1A 2039   7.540  15.201   9.425  0.0834 -0.0917 -0.0881
  128loPI   C2A 2040   7.525  15.297   9.026  0.0069  0.1309  0.0034
  128loPI   C3A 2041   7.596  15.498   8.588  0.0838 -0.1119  0.0107
  128loPI   C4A 2042   7.350  15.756   8.210 -0.0368 -0.3359 -0.0878
  128loPI   C5A 2043   7.144  16.095   8.090 -0.0743 -0.1994 -0.0114
  128loPI   C6A 2044   6.650  16.182   7.885  0.0700  0.2851  0.2003
  128loPI   C1B 2045   7.740  15.993   9.468 -0.1597  0.1473 -0.1049
  128loPI   C2B 2046   7.600  16.126   9.158 -0.2406  0.3810 -0.0629
  128loPI   C3B 2047   7.522  16.413   8.805  0.0003 -0.0183  0.2765
  128loPI   C4B 2048   7.287  16.497   8.471 -0.0339 -0.0249 -0.1690
  129loPI    C1 2049   5.221  11.809  10.441 -0.2636 -0.3873 -0.1469
  129loPI    C2 2050   5.008  12.114  10.587 -0.0507 -0.1970 -0.2273
  129loPI    C3 2051   5.036  11.773  10.794 -0.1912 -0.1202 -0.0792
  129loPI   PO4 2052   5.169  11.889  10.171  0.0700  0.1443 -0.1558
  129loPI   GL1 2053   5.280  11.898   9.763 -0.1454 -0.3399 -0.1719
  129loPI   GL2 2054   5.590  12.015   9.658  0.3842 -0.0535 -0.1872
  129loPI   C1A 2055   5.401  11.698   9.342  0.1917 -0.2129  0.0013
  129loPI   C2A 2056   5.490  11.443   9.035  0.2665 -0.1486  0.4252
  129loPI   C3A 2057   5.527  11.209   8.670  0.0572  0.1104  0.0906
  129loPI   C4A 2058   5.388  11.229   8.191 -0.4460  0.1821  0.0977
  129loPI   C5A 2059   5.132  11.098   7.806  0.0781  0.0855  0.1193
  129loPI   C6A 2060   4.829  10.815   7.872  0.0072  0.1453 -0.1476
  129loPI   C1B 2061   5.740  12.112   9.259 -0.0098 -0.2784  0.0287
  129loPI   C2B 2062   5.879  12.295   8.788  0.1016 -0.2738 -0.3069
  129loPI   C3B 2063   6.210  12.777   8.663 -0.1555 -0.0652  0.2017
  129loPI   C4B 2064   6.263  13.087   8.177  0.2126 -0.0117  0.0535
  130loPI    C1 2065  17.377   9.390  10.477  0.1067 -0.0660 -0.0607
  130loPI    C2 2066  17.629   9.084  10.531  0.1088 -0.0365  0.1019
  130loPI    C3 2067  17.236   9.032  10.586  0.0943 -0.0442 -0.0053
  130loPI   PO4 2068  17.212   9.536  10.184  0.3655  0.1903 -0.0918
  130loPI   GL1 2069  17.291   9.587   9.762  0.3079  0.1597 -0.1780
  130loPI   GL2 2070  17.138   9.315   9.724 -0.2625  0.0940  0.4354
  130loPI   C1A 2071  17.373  10.063   9.582 -0.1429 -0.0790  0.1797
  130loPI   C2A 2072  17.095  10.316   9.242 -0.0405  0.0095 -0.5083
  130loPI   C3A 2073  16.995  10.317   8.878 -0.3592 -0.0092 -0.0896
  130loPI   C4A 2074  16.967  10.251   8.408  0.1736 -0.3420 -0.1957
  130loPI   C5A 2075  17.026  10.251   8.023 -0.0315  0.0748  0.0333
  130loPI   C6A 2076  17.297  10.210   7.734 -0.2593 -0.1071 -0.1381
  130loPI   C1B 2077  17.033   9.343   9.212 -0.1708  0.1514  0.3828
  130loPI   C2B 2078  16.977   9.388   8.768  0.1819  0.0861  0.1800
  130loPI   C3B 2079  17.170   9.313   8.349  0.0446  0.1538  0.0258
  130loPI   C4B 2080  17.381   9.296   7.961 -0.1023 -0.0074 -0.0399
  131loPI    C1 2081   7.603  12.284  10.247 -0.0276 -0.2606 -0.0795
  131loPI    C2 2082   7.498  12.010  10.518 -0.0589 -0.2189 -0.0493
  131loPI    C3 2083   7.316  12.366  10.513 -0.0529 -0.2167 -0.1202
  131loPI   PO4 2084   7.610  12.143  10.016 -0.3522  0.2131  0.0327
  131loPI   GL1 2085   7.414  12.290   9.592 -0.0184  0.1556 -0.0838
  131loPI   GL2 2086   7.295  12.106   9.598 -0.2230 -0.2979 -0.3423
  131loPI   C1A 2087   7.641  12.545   9.268 -0.2078 -0.0125 -0.1356
  131loPI   C2A 2088   7.548  12.919   9.042  0.2964  0.1130 -0.0120
  131loPI   C3A 2089   7.595  13.134   8.694 -0.1263  0.2074 -0.2355
  131loPI   C4A 2090   7.613  13.023   8.279 -0.1808  0.1170 -0.1481
  131loPI   C5A 2091   7.504  13.076   7.822 -0.1287  0.0107 -0.2495
  131loPI   C6A 2092   7.260  13.414   7.487  0.3265 -0.3296 -0.0184
  131loPI   C1B 2093   7.265  12.132   9.163  0.1089  0.0208  0.1878
  131loPI   C2B 2094   7.419  12.211   8.773  0.0636  0.1210  0.1470
  131loPI   C3B 2095   7.551  12.055   8.357 -0.6382 -0.2200  0.2023
  131loPI   C4B 2096   7.495  11.673   8.096 -0.2676 -0.1025 -0.1941
  132loPI    C1 2097  14.240  10.764  10.565  0.1481 -0.2722 -0.2660
  132loPI    C2 2098  14.585  10.933  10.678 -0.0460  0.0797 -0.1848
  132loPI    C3 2099  14.456  10.600  10.859  0.1624  0.0465 -0.0946
  132loPI   PO4 2100  14.095  10.975  10.525  0.2160  0.1214  0.1776
  132loPI   GL1 2101  13.998  11.122  10.094  0.3114  0.0105 -0.1967
  132loPI   GL2 2102  13.849  11.299   9.726 -0.0640 -0.0406  0.0361
  132loPI   C1A 2103  14.204  10.925   9.765 -0.1580  0.0276 -0.3864
  132loPI   C2A 2104  14.286  10.735   9.426  0.2315  0.3693  0.2063
  132loPI   C3A 2105  14.144  10.672   8.979  0.0515  0.1802 -0.1227
  132loPI   C4A 2106  14.149  10.692   8.486 -0.0507 -0.1490  0.0000
  132loPI   C5A 2107  14.204  10.601   8.023  0.1145  0.0607 -0.1097
  132loPI   C6A 2108  14.052  10.445   7.618  0.0604  0.3865 -0.0821
  132loPI   C1B 2109  13.973  11.214   9.367  0.1169  0.2899 -0.0930
  132loPI   C2B 2110  13.953  11.166   9.008  0.4436  0.0452 -0.2689
  132loPI   C3B 2111  13.778  11.092   8.569 -0.0034 -0.1313 -0.0228
  132loPI   C4B 2112  13.726  10.953   8.198  0.2084  0.1462  0.0250
  133loPI    C1 2113   7.377   6.790  10.964 -0.0013  0.0723 -0.0567
  133loPI    C2 2114   7.551   7.076  11.184 -0.0460  0.1335 -0.1006
  133loPI    C3 2115   7.267   6.845  11.345  0.1141 -0.0038 -0.0120
  133loPI   PO4 2116   7.275   6.849  10.794 -0.0362 -0.2010  0.1929
  133loPI   GL1 2117   7.459   6.814  10.353  0.2461 -0.2819  0.0249
  133loPI   GL2 2118   7.672   6.991  10.146 -0.0285  0.0946 -0.0704
  133loPI   C1A 2119   7.515   6.428  10.011 -0.2141  0.2699  0.0658
  133loPI   C2A 2120   7.563   6.091   9.590  0.0176 -0.1980 -0.2732
  133loPI   C3A 2121   7.326   6.156   9.192 -0.0963  0.1744  0.2295
  133loPI   C4A 2122   7.348   6.147   8.733 -0.0710 -0.1656  0.0404
  133loPI   C5A 2123   7.258   6.231   8.301 -0.1268 -0.0344 -0.4202
  133loPI   C6A 2124   6.792   6.126   8.238  0.4231  0.0380 -0.2272
  133loPI   C1B 2125   7.264   6.854   9.877  0.1246 -0.0923  0.0530
  133loPI   C2B 2126   7.233   6.601   9.618  0.0636  0.2260  0.2344
  133loPI   C3B 2127   7.222   6.728   9.171 -0.0561  0.1073  0.2515
  133loPI   C4B 2128   7.223   6.642   8.739  0.1508 -0.1889  0.0376
  134loPI    C1 2129   6.784  13.825  10.388 -0.0822 -0.2679 -0.0571
  134loPI    C2 2130   6.556  13.604  10.632 -0.1783 -0.0383  0.0634
  134loPI    C3 2131   6.681  13.966  10.747 -0.4163  0.1724 -0.3165
  134loPI   PO4 2132   6.722  13.747  10.179  0.2005 -0.0056  0.3103
  134loPI   GL1 2133   6.582  14.016   9.883  0.4579 -0.1879  0.1365
  134loPI   GL2 2134   6.843  14.190   9.866 -0.0811 -0.0415  0.1347
  134loPI   C1A 2135   6.544  13.897   9.427  0.3856 -0.0457  0.1228
  134loPI   C2A 2136   6.543  14.088   9.041  0.2618  0.0767 -0.0126
  134loPI   C3A 2137   6.270  14.078   8.663 -0.1572 -0.3946  0.2889
  134loPI   C4A 2138   6.322  13.985   8.253  0.0114  0.1552 -0.2044
  134loPI   C5A 2139   6.251  13.789   7.803  0.1870 -0.0105 -0.1991
  134loPI   C6A 2140   6.008  13.545   7.604 -0.0564 -0.0295  0.1141
  134loPI   C1B 2141   6.854  14.358   9.414  0.0091  0.3744 -0.1275
  134loPI   C2B 2142   6.907  14.398   9.084 -0.1500 -0.1754  0.2722
  134loPI   C3B 2143   6.927  14.580   8.641  0.0079  0.2352 -0.2575
  134loPI   C4B 2144   7.059  14.344   8.237  0.1043  0.0160 -0.1023
  135loPI    C1 2145  10.742  16.493  10.817 -0.0659  0.0213 -0.0422
  135loPI    C2 2146  10.995  16.312  11.070  0.0802  0.0175 -0.1895
  135loPI    C3 2147  10.659  16.480  11.208  0.1591  0.0158  0.0068
  135loPI   PO4 2148  10.802  16.269  10.609  0.0027 -0.2068 -0.0920
  135loPI   GL1 2149  10.737  16.359  10.183  0.2382 -0.0894  0.2083
  135loPI   GL2 2150  10.542  16.179  10.121 -0.0307  0.4772 -0.0294
  135loPI   C1A 2151  10.931  16.330   9.742  0.0726 -0.0269  0.0187
  135loPI   C2A 2152  10.974  16.165   9.325 -0.1885 -0.1147  0.1302
  135loPI   C3A 2153  11.102  16.463   8.933 -0.1562  0.3683 -0.2483
  135loPI   C4A 2154  11.392  16.583   8.554 -0.1227 -0.2800 -0.0592
  135loPI   C5A 2155  11.596  16.377   8.203 -0.1237 -0.1376 -0.2183
  135loPI   C6A 2156  11.848  15.852   8.254  0.0674  0.2025 -0.0427
  135loPI   C1B 2157  10.498  16.571   9.856 -0.0337  0.3543  0.2059
  135loPI   C2B 2158  10.514  16.396   9.425 -0.1442 -0.1445  0.2365
  135loPI   C3B 2159  10.654  16.404   8.997  0.0473  0.2219 -0.0109
  135loPI   C4B 2160  10.676  16.674   8.545  0.1178 -0.0733  0.0389
  136loPI    C1 2161  15.093   0.409  10.382 -0.0464 -0.1986 -0.0020
  136loPI    C2 2162  14.956   0.725  10.178  0.0859 -0.0813  0.0892
  136loPI    C3 2163  14.790   0.365  10.125  0.0298 -0.0250 -0.1231
  136loPI   PO4 2164  15.338   0.445  10.341  0.0526 -0.0777 -0.1182
  136loPI   GL1 2165  15.524   0.328   9.922  0.1049 -0.2347 -0.0702
  136loPI   GL2 2166  15.200   0.319   9.869 -0.1932  0.3084 -0.3587
  136loPI   C1A 2167  15.688   0.094   9.624 -0.1462  0.0592 -0.0379
  136loPI   C2A 2168  15.896  -0.181   9.373 -0.0390  0.1860  0.1064
  136loPI   C3A 2169  16.313  -0.333   9.165  0.0519 -0.1178 -0.3157
  136loPI   C4A 2170  16.535  -0.293   8.814  0.1473  0.0230  0.0918
  136loPI   C5A 2171  16.425  -0.546   8.509 -0.0624 -0.2280 -0.1951
  136loPI   C6A 2172  16.415  -0.416   7.989  0.1366 -0.2137  0.1021
  136loPI   C1B 2173  15.122   0.263   9.455 -0.0664 -0.3254 -0.1933
  136loPI   C2B 2174  15.055   0.371   9.183  0.1004 -0.0976 -0.1296
  136loPI   C3B 2175  14.882   0.237   8.861 -0.1789  0.0722 -0.1498
  136loPI   C4B 2176  15.062   0.110   8.526  0.1669 -0.0804  0.1090
  137loPI    C1 2177   0.408  13.851   9.888  0.0268 -0.2538  0.2016
  137loPI    C2 2178   0.346  14.208  10.059  0.1663 -0.1772  0.0943
  137loPI    C3 2179   0.462  14.187   9.677  0.3448 -0.3313  0.1553
  137loPI   PO4 2180   0.488  13.632  10.006  0.0158  0.0180  0.0950
  137loPI   GL1 2181   0.517  13.397   9.653  0.0016 -0.2952 -0.3299
  137loPI   GL2 2182   0.170  13.508   9.579 -0.0026  0.0580  0.1726
  137loPI   C1A 2183   0.239  13.194   9.165  0.0641  0.0531  0.0589
  137loPI   C2A 2184   0.026  13.184   8.738 -0.3625 -0.3051 -0.0349
  137loPI   C3A 2185  -0.267  13.327   8.416 -0.0149 -0.2990 -0.0189
  137loPI   C4A 2186  -0.023  13.539   7.984 -0.2999  0.1464  0.0533
  137loPI   C5A 2187   0.055  13.253   7.581  0.1022  0.0822  0.0613
  137loPI   C6A 2188  -0.323  13.071   7.321  0.1833  0.2251 -0.0121
  137loPI   C1B 2189   0.208  13.862   9.397  0.3367 -0.0159 -0.1936
  137loPI   C2B 2190   0.158  14.329   9.263  0.0646  0.0333  0.1898
  137loPI   C3B 2191   0.148  14.590   8.918 -0.0560 -0.0241 -0.0327
  137loPI   C4B 2192   0.225  14.934   8.713 -0.0019  0.1941 -0.0610
  138loPI    C1 2193  14.778  18.419  10.388  0.0106 -0.0736  0.2075
  138loPI    C2 2194  14.706  18.753  10.597 -0.0847  0.0559 -0.0281
  138loPI    C3 2195  14.735  18.401  10.785 -0.0838  0.1817  0.2108
  138loPI   PO4 2196  14.949  18.428  10.204 -0.1416  0.0981 -0.0346
  138loPI   GL1 2197  14.764  18.499   9.763  0.3765  0.4037  0.0077
  138loPI   GL2 2198  14.540  18.328   9.943 -0.0394  0.3070  0.4433
  138loPI   C1A 2199  14.754  18.520   9.307 -0.3508  0.4175 -0.2454
  138loPI   C2A 2200  14.882  18.290   8.929  0.0603 -0.2771 -0.0387
  138loPI   C3A 2201  14.936  18.246   8.471  0.0601  0.1115 -0.1390
  138loPI   C4A 2202  15.024  18.160   8.098  0.1268  0.0581  0.0809
  138loPI   C5A 2203  15.094  17.939   7.808 -0.0093  0.0291 -0.5227
  138loPI   C6A 2204  15.091  17.554   7.604  0.2358  0.2428 -0.2353
  138loPI   C1B 2205  14.439  18.092   9.487 -0.0533 -0.2937  0.0281
  138loPI   C2B 2206  14.549  17.962   9.094 -0.2141 -0.1312  0.0546
  138loPI   C3B 2207  14.444  17.995   8.628  0.0415 -0.0104 -0.0519
  138loPI   C4B 2208  14.648  17.871   8.298 -0.1801 -0.0292 -0.2013
  139loPI    C1 2209   1.717   9.290  10.239 -0.2926  0.0361  0.1822
  139loPI    C2 2210   1.919   9.340  10.581  0.2149 -0.0074 -0.1022
  139loPI    C3 2211   1.832   8.971  10.452 -0.2069  0.0143  0.1038
  139loPI   PO4 2212   1.859   9.458  10.082 -0.3196 -0.2058  0.2407
  139loPI   GL1 2213   2.174   9.428   9.688  0.1174  0.2814 -0.0708
  139loPI   GL2 2214   1.945   9.598   9.595 -0.1361 -0.2470  0.0946
  139loPI   C1A 2215   2.254   9.353   9.222 -0.1214  0.1266 -0.0138
  139loPI   C2A 2216   2.423   9.271   8.849  0.3358 -0.0674  0.3681
  139loPI   C3A 2217   2.467   9.473   8.372  0.1751 -0.0154 -0.1792
  139loPI   C4A 2218   2.466   9.812   8.010  0.1511 -0.0505  0.1782
  139loPI   C5A 2219   2.219  10.195   8.073  0.1264 -0.0936 -0.1600
  139loPI   C6A 2220   2.226  10.430   7.782 -0.1708 -0.1079  0.0984
  139loPI   C1B 2221   1.986   9.779   9.141  0.1666  0.1523 -0.1637
  139loPI   C2B 2222   1.846   9.670   8.782  0.1084 -0.1001  0.1662
  139loPI   C3B 2223   1.636   9.518   8.373  0.0215  0.1362  0.0642
  139loPI   C4B 2224   1.547   9.523   7.853 -0.2499  0.2549  0.2250
  140loPI    C1 2225   0.434   4.110   9.761 -0.0565 -0.2711 -0.1676
  140loPI    C2 2226   0.418   3.713   9.713 -0.0285 -0.2878 -0.0434
  140loPI    C3 2227   0.347   3.874  10.072  0.2339 -0.2001 -0.0290
  140loPI   PO4 2228   0.600   4.166   9.662 -0.1552  0.2144  0.2103
  140loPI   GL1 2229   0.665   4.113   9.325 -0.3892 -0.2132 -0.0159
  140loPI   GL2 2230   1.057   4.264   9.262 -0.0522  0.1977 -0.2703
  140loPI   C1A 2231   0.753   3.940   8.930  0.1110  0.2443 -0.2225
  140loPI   C2A 2232   0.549   4.069   8.613  0.1846 -0.3723  0.3597
  140loPI   C3A 2233   0.228   4.176   8.597 -0.0966 -0.0417 -0.1665
  140loPI   C4A 2234  -0.051   4.015   8.215 -0.0614  0.2884  0.3272
  140loPI   C5A 2235  -0.185   4.286   7.862 -0.2687 -0.0412 -0.0418
  140loPI   C6A 2236  -0.010   4.554   7.567 -0.1491 -0.0671 -0.0187
  140loPI   C1B 2237   1.080   4.366   8.811  0.0044 -0.0368  0.0785
  140loPI   C2B 2238   0.948   4.355   8.291  0.0052  0.2119 -0.0659
  140loPI   C3B 2239   0.689   4.293   7.929 -0.0338 -0.0886 -0.2926
  140loPI   C4B 2240   0.572   4.464   7.602 -0.3643  0.0062 -0.2038
  141loPI    C1 2241   8.476   8.470  10.609  0.1413  0.0880 -0.0121
  141loPI    C2 2242   8.442   8.807  10.821  0.0411 -0.0125  0.1339
  141loPI    C3 2243   8.283   8.467  10.960  0.1962 -0.1336  0.0180
  141loPI   PO4 2244   8.780   8.483  10.560  0.0746 -0.3170 -0.1283
  141loPI   GL1 2245   8.985   8.381  10.158  0.3221  0.0406  0.5221
  141loPI   GL2 2246   9.183   8.638  10.236 -0.0948 -0.3109 -0.3096
  141loPI   C1A 2247   8.825   8.222   9.826  0.0894 -0.1629  0.1139
  141loPI   C2A 2248   8.839   8.203   9.411 -0.0664 -0.1464 -0.0765
  141loPI   C3A 2249   8.930   8.102   9.017  0.1620  0.3518  0.0702
  141loPI   C4A 2250   8.940   8.149   8.578  0.1828  0.1251  0.0059
  141loPI   C5A 2251   8.964   8.193   8.135 -0.1114  0.3543 -0.0809
  141loPI   C6A 2252   8.855   7.980   7.711  0.2782  0.0999 -0.1229
  141loPI   C1B 2253   9.069   8.739   9.724 -0.0520 -0.1589 -0.1800
  141loPI   C2B 2254   9.084   8.597   9.231 -0.1044 -0.2563  0.3531
  141loPI   C3B 2255   9.118   8.571   8.826 -0.0038  0.0023 -0.1034
  141loPI   C4B 2256   9.237   8.493   8.426  0.0255 -0.3539 -0.1045
  142loPI    C1 2257   2.392   7.283  10.520  0.1312  0.0580  0.1004
  142loPI    C2 2258   2.553   6.931  10.619 -0.0763 -0.0094  0.2040
  142loPI    C3 2259   2.455   7.193  10.905  0.0260  0.1100  0.1304
  142loPI   PO4 2260   2.233   7.165  10.356  0.1794  0.3334 -0.0963
  142loPI   GL1 2261   2.058   7.403  10.093  0.0061  0.2061 -0.1113
  142loPI   GL2 2262   2.429   7.453   9.870 -0.0052  0.2590  0.3270
  142loPI   C1A 2263   1.956   7.477   9.704  0.1142  0.2161  0.2585
  142loPI   C2A 2264   1.872   7.333   9.287  0.1451 -0.1678  0.0024
  142loPI   C3A 2265   1.828   7.355   8.818  0.0779  0.1231 -0.2319
  142loPI   C4A 2266   1.887   7.420   8.361  0.0535  0.0052 -0.0405
  142loPI   C5A 2267   1.970   7.402   7.965  0.0227 -0.3920  0.0548
  142loPI   C6A 2268   2.178   7.165   7.613  0.0465  0.1429 -0.2067
  142loPI   C1B 2269   2.361   7.207   9.507 -0.1161 -0.0646  0.1224
  142loPI   C2B 2270   2.308   7.318   9.118 -0.3270  0.0201 -0.1314
  142loPI   C3B 2271   2.417   7.347   8.759 -0.2281  0.2147 -0.0397
  142loPI   C4B 2272   2.409   7.344   8.301 -0.1472  0.0744 -0.3724
  143loPI    C1 2273   0.241   1.821  10.016  0.0742 -0.1805  0.0389
  143loPI    C2 2274   0.345   1.785  10.400  0.1623  0.1282  0.0470
  143loPI    C3 2275   0.499   2.080  10.179  0.0743 -0.0183 -0.2137
  143loPI   PO4 2276   0.228   1.557   9.877  0.1147 -0.1900 -0.3348
  143loPI   GL1 2277   0.389   1.211   9.581 -0.2919  0.0400  0.0635
  143loPI   GL2 2278   0.158   1.404   9.417  0.2527  0.0774  0.0756
  143loPI   C1A 2279   0.321   0.874   9.273 -0.1726 -0.1936 -0.0930
  143loPI   C2A 2280   0.351   0.817   8.882 -0.0407 -0.1553 -0.3137
  143loPI   C3A 2281   0.340   0.778   8.450 -0.5046  0.0050  0.1128
  143loPI   C4A 2282   0.402   0.783   8.064 -0.3760 -0.0322  0.0321
  143loPI   C5A 2283   0.710   0.932   7.868 -0.0811 -0.1118  0.2430
  143loPI   C6A 2284   0.731   1.309   7.695  0.2064  0.2207  0.3255
  143loPI   C1B 2285   0.121   1.282   8.847  0.0845  0.1749  0.0582
  143loPI   C2B 2286   0.165   1.273   8.438 -0.1128 -0.0476 -0.3093
  143loPI   C3B 2287   0.308   1.322   7.961  0.1681 -0.0749 -0.0455
  143loPI   C4B 2288   0.257   1.487   7.562 -0.3055 -0.2143  0.1363
  144loPI    C1 2289  12.916  17.574  10.566  0.2276  0.2758 -0.1080
  144loPI    C2 2290  12.633  17.837  10.670 -0.1467 -0.2776  0.3421
  144loPI    C3 2291  12.978  17.822  10.873 -0.0207  0.0173  0.1575
  144loPI   PO4 2292  12.878  17.559  10.319 -0.1740  0.0153 -0.2298
  144loPI   GL1 2293  12.738  17.872  10.029 -0.0215  0.1195  0.0691
  144loPI   GL2 2294  13.040  17.799   9.944 -0.0149  0.3062 -0.1464
  144loPI   C1A 2295  12.657  17.838   9.513  0.1545 -0.0395  0.0384
  144loPI   C2A 2296  12.730  17.650   9.131  0.1014 -0.0576 -0.0943
  144loPI   C3A 2297  12.477  17.841   8.869 -0.0519  0.0249  0.2069
  144loPI   C4A 2298  12.320  18.011   8.457  0.0516 -0.3640 -0.1904
  144loPI   C5A 2299  12.149  18.206   8.218  0.1061 -0.0037 -0.3292
  144loPI   C6A 2300  11.999  18.573   8.085 -0.0097  0.1261 -0.1134
  144loPI   C1B 2301  13.026  17.503   9.581 -0.0357 -0.0883 -0.0449
  144loPI   C2B 2302  13.278  17.226   9.531  0.2114  0.2848  0.1139
  144loPI   C3B 2303  13.431  17.108   9.238 -0.0546  0.0716 -0.2463
  144loPI   C4B 2304  13.200  16.961   8.947  0.0627 -0.1344  0.2280
  145loPI    C1 2305   6.078  11.734   9.939  0.2165 -0.1700  0.1438
  145loPI    C2 2306   6.126  11.730  10.336  0.0491 -0.1926  0.1648
  145loPI    C3 2307   6.337  11.479  10.106  0.2419 -0.0900  0.2268
  145loPI   PO4 2308   6.111  12.018   9.855  0.1965  0.0135 -0.1178
  145loPI   GL1 2309   6.227  11.925   9.485 -0.0760 -0.1329 -0.0228
  145loPI   GL2 2310   6.419  11.696   9.570  0.0641  0.1613 -0.0126
  145loPI   C1A 2311   6.270  12.086   9.076 -0.2974 -0.0618 -0.2474
  145loPI   C2A 2312   6.392  12.224   8.640  0.0528  0.2777  0.3386
  145loPI   C3A 2313   6.452  12.331   8.138  0.0316 -0.2375  0.0660
  145loPI   C4A 2314   6.628  12.226   7.807  0.0576  0.5183 -0.2808
  145loPI   C5A 2315   6.620  11.882   7.486 -0.2942  0.1636 -0.3134
  145loPI   C6A 2316   6.198  11.699   7.457  0.2123  0.0985  0.1690
  145loPI   C1B 2317   6.408  11.545   9.220  0.1082  0.2452  0.0045
  145loPI   C2B 2318   6.355  11.643   8.775 -0.2766  0.1501  0.2923
  145loPI   C3B 2319   6.217  11.339   8.363 -0.1914  0.2051 -0.2924
  145loPI   C4B 2320   5.876  11.120   8.237  0.2815 -0.0032  0.1242
  146loPI    C1 2321   6.869  11.471   9.984 -0.4355 -0.0268 -0.1823
  146loPI    C2 2322   6.726  11.547  10.350  0.1262 -0.0401  0.0494
  146loPI    C3 2323   6.747  11.170  10.218  0.1407 -0.0561  0.0969
  146loPI   PO4 2324   6.811  11.607   9.880  0.1129  0.0324  0.0525
  146loPI   GL1 2325   6.923  11.752   9.516  0.1024 -0.3553 -0.1786
  146loPI   GL2 2326   6.752  12.083   9.651  0.1381  0.1228 -0.0671
  146loPI   C1A 2327   7.230  11.667   9.261 -0.0520  0.0049 -0.1094
  146loPI   C2A 2328   7.439  11.663   8.892 -0.0488 -0.1395  0.0564
  146loPI   C3A 2329   7.740  11.717   8.688 -0.1099 -0.0459 -0.2523
  146loPI   C4A 2330   8.067  11.919   8.379  0.1320  0.1092  0.3497
  146loPI   C5A 2331   7.975  12.178   8.054  0.3440 -0.2314 -0.0253
  146loPI   C6A 2332   7.640  12.260   7.817 -0.1426  0.0266  0.0394
  146loPI   C1B 2333   6.762  12.102   9.213  0.0316  0.1620  0.0841
  146loPI   C2B 2334   6.828  11.955   8.791  0.0822 -0.1432  0.2700
  146loPI   C3B 2335   6.634  11.923   8.310  0.0852 -0.0551  0.1993
  146loPI   C4B 2336   6.322  11.791   7.956  0.2360  0.0703 -0.3286
  147loPI    C1 2337   4.993   6.051  10.499 -0.0643 -0.2145 -0.0462
  147loPI    C2 2338   4.783   5.813  10.742  0.1500 -0.3007  0.0567
  147loPI    C3 2339   4.609   6.132  10.575 -0.0810 -0.4110  0.0839
  147loPI   PO4 2340   5.037   5.912  10.304  0.0032 -0.0454 -0.0810
  147loPI   GL1 2341   5.134   5.985   9.929  0.1250 -0.5381 -0.0021
  147loPI   GL2 2342   5.216   5.862   9.691  0.1046  0.0004 -0.0719
  147loPI   C1A 2343   4.696   5.866   9.703 -0.2074 -0.0928 -0.2201
  147loPI   C2A 2344   4.578   6.189   9.370  0.0539 -0.1536 -0.4869
  147loPI   C3A 2345   4.480   6.291   8.911 -0.2442 -0.0756  0.2018
  147loPI   C4A 2346   4.391   6.310   8.529  0.0858  0.0096  0.2400
  147loPI   C5A 2347   4.548   6.675   8.266 -0.1817  0.0076  0.1720
  147loPI   C6A 2348   4.374   6.965   7.938 -0.0817  0.1021  0.1366
  147loPI   C1B 2349   5.041   5.656   9.400 -0.0620 -0.4119 -0.0730
  147loPI   C2B 2350   4.859   5.893   9.010  0.1136 -0.0905  0.0727
  147loPI   C3B 2351   4.925   5.766   8.599  0.0773 -0.1660  0.0371
  147loPI   C4B 2352   5.072   5.638   8.252 -0.3172 -0.3830 -0.0469
  148loPI    C1 2353   3.794  18.169  10.479 -0.5937  0.0600  0.0770
  148loPI    C2 2354   3.870  18.551  10.570 -0.0837  0.0892 -0.4131
  148loPI    C3 2355   3.902  18.268  10.851  0.0224  0.3444 -0.1632
  148loPI   PO4 2356   3.935  18.087  10.264 -0.0581  0.1962  0.2752
  148loPI   GL1 2357   4.191  18.159   9.843  0.1017 -0.2818 -0.2746
  148loPI   GL2 2358   4.006  17.923   9.756  0.0025 -0.0593  0.2001
  148loPI   C1A 2359   3.970  18.444   9.518 -0.3774  0.0147 -0.0004
  148loPI   C2A 2360   3.918  18.467   9.039  0.2139 -0.0839 -0.2336
  148loPI   C3A 2361   4.010  18.476   8.596 -0.2269 -0.0342 -0.4270
  148loPI   C4A 2362   3.979  18.519   8.151  0.3731 -0.3235  0.0896
  148loPI   C5A 2363   4.094  18.533   7.728  0.0402 -0.1531  0.0593
  148loPI   C6A 2364   4.007  18.311   7.373  0.0081  0.2649  0.0474
  148loPI   C1B 2365   4.147  17.937   9.357  0.1399 -0.1746 -0.0131
  148loPI   C2B 2366   4.178  18.011   8.919  0.1245  0.2297  0.3754
  148loPI   C3B 2367   4.285  18.108   8.540  0.1550  0.2179 -0.0571
  148loPI   C4B 2368   4.269  18.130   8.237 -0.1122  0.0434 -0.2490
  149loPI    C1 2369  11.221   7.844  10.689 -0.1106 -0.1492  0.1310
  149loPI    C2 2370  11.455   7.975  10.986  0.0924 -0.0046 -0.0886
  149loPI    C3 2371  11.059   7.948  11.040  0.0873  0.3558  0.0809
  149loPI   PO4 2372  11.357   8.005  10.450  0.1416  0.1455 -0.1114
  149loPI   GL1 2373  11.451   8.077  10.073 -0.1447 -0.0761 -0.3248
  149loPI   GL2 2374  11.317   7.928   9.803  0.0427 -0.0227  0.2969
  149loPI   C1A 2375  11.807   7.908   9.806 -0.3312  0.3870  0.2472
  149loPI   C2A 2376  11.914   7.743   9.396  0.0467  0.0582  0.5229
  149loPI   C3A 2377  12.165   7.784   9.007 -0.1460 -0.1559  0.0576
  149loPI   C4A 2378  12.069   7.812   8.611 -0.0250 -0.2366 -0.0461
  149loPI   C5A 2379  12.097   7.539   8.220 -0.0193 -0.1899 -0.2404
  149loPI   C6A 2380  11.780   7.274   7.983  0.1456 -0.2753  0.0153
  149loPI   C1B 2381  11.418   7.807   9.445 -0.0575 -0.0111  0.0201
  149loPI   C2B 2382  11.129   7.779   9.149 -0.0005  0.0221 -0.0761
  149loPI   C3B 2383  11.256   8.022   8.736 -0.1029  0.0376  0.0223
  149loPI   C4B 2384  11.258   8.024   8.224 -0.3157  0.1832 -0.3112
  150loPI    C1 2385   8.864  16.350  10.469  0.0091  0.1637  0.0265
  150loPI    C2 2386   8.950  16.655  10.713 -0.1273 -0.0008  0.2841
  150loPI    C3 2387   8.977  16.279  10.846  0.1382 -0.1083 -0.0613
  150loPI   PO4 2388   9.012  16.408  10.258 -0.2215 -0.0575 -0.1404
  150loPI   GL1 2389   9.104  16.425   9.827 -0.0215 -0.2326  0.3312
  150loPI   GL2 2390   9.381  16.230   9.907  0.1931 -0.1249 -0.1284
  150loPI   C1A 2391   9.436  16.564   9.544 -0.1848  0.3084 -0.3660
  150loPI   C2A 2392   9.575  16.462   9.038  0.0505  0.1729  0.0463
  150loPI   C3A 2393   9.693  16.251   8.644  0.0813  0.0810  0.1054
  150loPI   C4A 2394   9.607  16.167   8.223  0.1599 -0.1291 -0.1111
  150loPI   C5A 2395   9.770  15.854   7.910  0.1302 -0.0461 -0.1868
  150loPI   C6A 2396  10.077  15.546   7.977 -0.0535 -0.2396  0.3517
  150loPI   C1B 2397   9.706  16.097   9.576  0.2220 -0.1371 -0.1397
  150loPI   C2B 2398   9.893  16.115   9.202  0.0873 -0.1121  0.1421
  150loPI   C3B 2399   9.958  15.858   8.873  0.1247 -0.2774 -0.3325
  150loPI   C4B 2400  10.141  15.776   8.435  0.0491  0.2985  0.1102
  151loPI    C1 2401  17.898  16.384  10.548  0.2527  0.0528 -0.1914
  151loPI    C2 2402  18.213  16.230  10.741  0.2465  0.1734 -0.0835
  151loPI    C3 2403  18.157  16.626  10.733  0.0446  0.1473 -0.0199
  151loPI   PO4 2404  17.899  16.237  10.262 -0.2246 -0.3714 -0.3156
  151loPI   GL1 2405  17.715  16.156   9.939  0.1365 -0.2595 -0.3021
  151loPI   GL2 2406  17.471  16.299   9.831  0.1164  0.2204 -0.0793
  151loPI   C1A 2407  17.765  15.945   9.501 -0.0924 -0.1634 -0.1005
  151loPI   C2A 2408  17.600  15.937   9.117 -0.0272 -0.0954  0.3195
  151loPI   C3A 2409  17.608  15.946   8.742 -0.0931  0.0218  0.0169
  151loPI   C4A 2410  17.642  15.906   8.254  0.0301 -0.2355  0.0945
  151loPI   C5A 2411  17.743  15.709   7.835  0.2578  0.0533 -0.2184
  151loPI   C6A 2412  17.388  15.764   7.546 -0.0349 -0.0493 -0.2296
  151loPI   C1B 2413  17.257  16.163   9.373  0.0951  0.0953 -0.2627
  151loPI   C2B 2414  17.251  16.291   8.883 -0.2974 -0.1096  0.2352
  151loPI   C3B 2415  17.330  16.258   8.502 -0.0287  0.2207 -0.0931
  151loPI   C4B 2416  17.380  16.509   8.081  0.2131  0.1080 -0.0733
  152loPI    C1 2417  16.003  15.460  10.320  0.1669 -0.2024 -0.0575
  152loPI    C2 2418  16.268  15.608  10.060 -0.0104 -0.2715 -0.2809
  152loPI    C3 2419  16.373  15.551  10.442  0.1626  0.1087 -0.2670
  152loPI   PO4 2420  15.928  15.241  10.069 -0.2766  0.0329 -0.1728
  152loPI   GL1 2421  16.163  15.221   9.718 -0.1669  0.1201  0.1345
  152loPI   GL2 2422  16.109  14.999   9.512 -0.0507 -0.1928 -0.0655
  152loPI   C1A 2423  16.354  15.558   9.468  0.0999 -0.0768 -0.1063
  152loPI   C2A 2424  16.565  15.707   9.107  0.1215  0.0397 -0.1053
  152loPI   C3A 2425  16.568  15.904   8.762  0.1351 -0.0714  0.1446
  152loPI   C4A 2426  16.326  16.057   8.492 -0.0698 -0.1453 -0.0889
  152loPI   C5A 2427  15.972  16.068   8.155  0.2228  0.0349  0.3682
  152loPI   C6A 2428  16.035  16.336   7.812 -0.2164 -0.0385 -0.0003
  152loPI   C1B 2429  15.745  15.215   9.342 -0.1349  0.0970 -0.0588
  152loPI   C2B 2430  15.489  15.102   9.044  0.0697  0.2478 -0.0461
  152loPI   C3B 2431  15.434  14.844   8.634 -0.2272  0.1005  0.0667
  152loPI   C4B 2432  15.609  14.454   8.451 -0.0228  0.1777 -0.0117
  153loPI    C1 2433  15.888  16.015  10.363 -0.1552 -0.0930 -0.0683
  153loPI    C2 2434  16.150  15.958  10.660  0.0359  0.2285 -0.1706
  153loPI    C3 2435  15.810  15.747  10.650  0.1963 -0.0490  0.0728
  153loPI   PO4 2436  15.941  15.953  10.174 -0.3529  0.1063 -0.0431
  153loPI   GL1 2437  15.648  15.882   9.801 -0.0575 -0.0924 -0.0571
  153loPI   GL2 2438  15.917  15.743   9.709  0.3101 -0.0957  0.0234
  153loPI   C1A 2439  15.572  16.176   9.575 -0.2676 -0.1655 -0.1567
  153loPI   C2A 2440  15.468  16.216   9.172  0.1904  0.1288  0.4670
  153loPI   C3A 2441  15.371  16.196   8.698 -0.0781 -0.0858 -0.2559
  153loPI   C4A 2442  15.482  15.939   8.337 -0.0170  0.0542  0.0376
  153loPI   C5A 2443  15.569  15.704   8.038 -0.4608 -0.1507 -0.1474
  153loPI   C6A 2444  15.761  15.641   7.610 -0.1905 -0.0149 -0.1971
  153loPI   C1B 2445  15.704  15.724   9.343 -0.0374  0.2018  0.0538
  153loPI   C2B 2446  15.710  15.560   8.959 -0.0583 -0.0794  0.1100
  153loPI   C3B 2447  15.809  15.187   8.715  0.0572  0.2428  0.0405
  153loPI   C4B 2448  15.894  14.821   8.871  0.1350 -0.0344  0.1190
  154loPI    C1 2449  15.065  13.569  10.250 -0.0605  0.0057 -0.2542
  154loPI    C2 2450  14.963  13.876  10.485  0.0304 -0.0605 -0.1273
  154loPI    C3 2451  14.717  13.562  10.448 -0.0424  0.0075 -0.2221
  154loPI   PO4 2452  15.142  13.669  10.059  0.3023  0.1517 -0.2131
  154loPI   GL1 2453  15.411  13.587   9.758 -0.3989  0.0032  0.0900
  154loPI   GL2 2454  15.618  13.911   9.802  0.2152 -0.0717 -0.1150
  154loPI   C1A 2455  15.398  13.404   9.347  0.2678  0.0079  0.0590
  154loPI   C2A 2456  15.713  13.134   9.156  0.0208  0.1212 -0.2235
  154loPI   C3A 2457  15.796  13.111   8.759 -0.2878  0.1192  0.3212
  154loPI   C4A 2458  15.685  13.090   8.310  0.0975  0.1223 -0.4746
  154loPI   C5A 2459  15.481  13.336   8.055  0.0120  0.1077 -0.1712
  154loPI   C6A 2460  15.140  13.466   7.804  0.1717  0.3144 -0.0616
  154loPI   C1B 2461  15.683  13.836   9.398 -0.3119 -0.0003  0.3972
  154loPI   C2B 2462  15.749  13.594   9.037 -0.0470 -0.3703  0.1066
  154loPI   C3B 2463  15.352  13.296   8.851 -0.0552 -0.0854  0.0111
  154loPI   C4B 2464  15.152  13.010   9.039  0.2002  0.1603 -0.0558
  155loPI    C1 2465   1.436  13.191  10.011  0.1427 -0.1839 -0.0789
  155loPI    C2 2466   1.159  13.243  10.295  0.0306 -0.0952 -0.2031
  155loPI    C3 2467   1.546  13.219  10.395  0.0044  0.0785 -0.0564
  155loPI   PO4 2468   1.361  13.290   9.856  0.0306  0.0068 -0.1921
  155loPI   GL1 2469   1.163  13.328   9.438  0.1583 -0.1513 -0.1746
  155loPI   GL2 2470   0.809  13.242   9.328 -0.1604  0.0563  0.1632
  155loPI   C1A 2471   1.490  13.601   9.156  0.2133 -0.1394 -0.1536
  155loPI   C2A 2472   1.532  13.984   8.923 -0.2281 -0.1090  0.0696
  155loPI   C3A 2473   1.573  14.072   8.534  0.1350 -0.2444  0.2163
  155loPI   C4A 2474   1.455  13.761   8.189  0.2379 -0.0195 -0.5179
  155loPI   C5A 2475   1.420  13.721   7.819 -0.0445  0.0283 -0.0841
  155loPI   C6A 2476   1.505  13.559   7.449 -0.2361  0.2022  0.0214
  155loPI   C1B 2477   0.999  12.991   9.030  0.1717  0.6227  0.1201
  155loPI   C2B 2478   1.096  12.648   8.759  0.1990 -0.2240 -0.1225
  155loPI   C3B 2479   1.312  12.292   8.544  0.2095  0.1606  0.2750
  155loPI   C4B 2480   1.444  12.203   8.075  0.2883  0.0338 -0.1924
  156loPI    C1 2481   5.655   7.301  10.419 -0.1433  0.0701 -0.1356
  156loPI    C2 2482   5.867   7.615  10.547 -0.1685  0.1038 -0.1762
  156loPI    C3 2483   5.601   7.441  10.790 -0.1049  0.0706 -0.1301
  156loPI   PO4 2484   5.768   7.254  10.114 -0.1990 -0.2639 -0.0831
  156loPI   GL1 2485   6.083   7.283   9.711 -0.0301  0.0903  0.3154
  156loPI   GL2 2486   6.383   7.166   9.723 -0.1630  0.3117  0.0894
  156loPI   C1A 2487   6.044   7.317   9.332 -0.1888  0.0194 -0.3076
  156loPI   C2A 2488   6.138   7.291   8.809  0.1611  0.0296 -0.0144
  156loPI   C3A 2489   6.058   7.144   8.471  0.1211  0.1564  0.0687
  156loPI   C4A 2490   6.087   6.569   8.329 -0.1107 -0.2747  0.0335
  156loPI   C5A 2491   6.207   6.294   8.010  0.1087  0.0180  0.0266
  156loPI   C6A 2492   6.502   6.199   7.772 -0.2166  0.1818 -0.1038
  156loPI   C1B 2493   6.543   7.403   9.333 -0.0078  0.0495  0.3435
  156loPI   C2B 2494   6.628   7.275   8.926  0.1232  0.0887 -0.0811
  156loPI   C3B 2495   6.572   7.363   8.505  0.0033  0.0630  0.1208
  156loPI   C4B 2496   6.677   7.421   7.969  0.0924 -0.0613 -0.1996
  157loPI    C1 2497   5.547   0.984  10.526 -0.1944 -0.0515 -0.1912
  157loPI    C2 2498   5.223   1.135  10.706 -0.0510 -0.0529  0.0742
  157loPI    C3 2499   5.372   0.783  10.824  0.0699 -0.0341 -0.0197
  157loPI   PO4 2500   5.545   1.113  10.242 -0.1173  0.3289  0.1978
  157loPI   GL1 2501   5.771   0.912   9.922  0.2900 -0.2431  0.2009
  157loPI   GL2 2502   5.533   0.677   9.944 -0.1356 -0.0352  0.1345
  157loPI   C1A 2503   5.960   1.053   9.572 -0.0402 -0.1808  0.1746
  157loPI   C2A 2504   5.863   1.089   9.096 -0.1083 -0.2170 -0.0101
  157loPI   C3A 2505   6.055   0.911   8.631 -0.2153  0.1017  0.0711
  157loPI   C4A 2506   6.114   0.440   8.443  0.0924 -0.0121 -0.1461
  157loPI   C5A 2507   6.501   0.150   8.316  0.1306  0.4028 -0.4517
  157loPI   C6A 2508   6.606  -0.212   8.422 -0.0495 -0.2704 -0.3401
  157loPI   C1B 2509   5.614   0.763   9.496  0.0498  0.0391  0.1916
  157loPI   C2B 2510   5.802   0.519   9.201 -0.1724  0.1375 -0.0708
  157loPI   C3B 2511   5.658   0.378   8.728 -0.2680  0.0968 -0.2232
  157loPI   C4B 2512   5.366   0.351   8.346  0.1278 -0.0081  0.1219
  158loPI    C1 2513  11.914  15.317  10.885 -0.1130 -0.2808 -0.1630
  158loPI    C2 2514  11.651  15.113  11.107 -0.0893  0.0906  0.2205
  158loPI    C3 2515  12.043  15.065  11.167 -0.0689 -0.2140 -0.1229
  158loPI   PO4 2516  11.815  15.343  10.685  0.1236 -0.1109 -0.2785
  158loPI   GL1 2517  11.665  15.328  10.308 -0.1597  0.2826 -0.3064
  158loPI   GL2 2518  11.804  15.534  10.159 -0.0543  0.1459  0.3419
  158loPI   C1A 2519  11.747  15.126   9.918  0.3479  0.0936  0.1857
  158loPI   C2A 2520  11.913  14.957   9.522 -0.1502 -0.2261  0.0808
  158loPI   C3A 2521  12.207  15.161   9.145  0.0926 -0.0345 -0.3331
  158loPI   C4A 2522  12.156  15.357   8.843 -0.1589  0.0597 -0.2825
  158loPI   C5A 2523  12.220  15.583   8.515 -0.4609 -0.3806 -0.0024
  158loPI   C6A 2524  12.519  15.500   8.193  0.1569 -0.2268 -0.0044
  158loPI   C1B 2525  11.400  15.698   9.929  0.0838  0.5004  0.0809
  158loPI   C2B 2526  11.006  15.738   9.724  0.0888 -0.3961 -0.0212
  158loPI   C3B 2527  10.681  15.913   9.648  0.0394  0.2282  0.1747
  158loPI   C4B 2528  10.217  16.097   9.682  0.0179  0.2269 -0.0316
  159loPI    C1 2529   5.576  14.370  10.288 -0.1885 -0.2808 -0.1800
  159loPI    C2 2530   5.298  14.191  10.513 -0.1513  0.0072  0.1029
  159loPI    C3 2531   5.657  14.276  10.669 -0.1366  0.2421 -0.0532
  159loPI   PO4 2532   5.493  14.627  10.155  0.0438 -0.3601  0.1833
  159loPI   GL1 2533   5.608  14.780   9.808 -0.2473  0.0979  0.1672
  159loPI   GL2 2534   5.943  14.867   9.987  0.0914 -0.1020  0.0562
  159loPI   C1A 2535   5.618  14.992   9.488  0.0383 -0.0411 -0.0285
  159loPI   C2A 2536   5.638  14.938   9.072 -0.2845 -0.1442  0.3243
  159loPI   C3A 2537   5.724  14.866   8.712  0.1869 -0.1083  0.0144
  159loPI   C4A 2538   5.721  14.817   8.249 -0.2305 -0.2203  0.0450
  159loPI   C5A 2539   5.793  14.661   7.880  0.0180  0.0783 -0.1740
  159loPI   C6A 2540   5.806  14.782   7.556 -0.0995  0.2947 -0.2516
  159loPI   C1B 2541   6.213  14.903   9.766  0.1126  0.2638  0.3363
  159loPI   C2B 2542   6.074  14.955   9.303 -0.0235  0.0073  0.1925
  159loPI   C3B 2543   6.220  14.946   8.898  0.1730 -0.0144  0.3964
  159loPI   C4B 2544   6.188  14.933   8.408 -0.1084  0.2757  0.0902
  160loPI    C1 2545  13.123  17.177  10.746 -0.0958 -0.0078  0.1094
  160loPI    C2 2546  13.457  17.113  10.956  0.0786  0.3031 -0.0657
  160loPI    C3 2547  13.220  17.422  11.047 -0.2753 -0.0352  0.1908
  160loPI   PO4 2548  13.147  17.103  10.527 -0.0240 -0.0360  0.1245
  160loPI   GL1 2549  13.287  17.023  10.021 -0.1017  0.0646 -0.0951
  160loPI   GL2 2550  13.240  17.330  10.032 -0.2187  0.1983 -0.1798
  160loPI   C1A 2551  13.321  16.701   9.659  0.3380 -0.0761  0.2302
  160loPI   C2A 2552  13.590  16.691   9.451 -0.2702  0.2133 -0.1264
  160loPI   C3A 2553  13.553  16.492   9.060  0.2992 -0.0038  0.0690
  160loPI   C4A 2554  13.347  16.536   8.661  0.1311  0.2775  0.2109
  160loPI   C5A 2555  13.032  16.767   8.500 -0.1376  0.2269  0.2222
  160loPI   C6A 2556  12.795  16.346   8.318 -0.1177  0.0578  0.1646
  160loPI   C1B 2557  13.721  17.115   9.770  0.0769  0.1555  0.3503
  160loPI   C2B 2558  13.961  17.199   9.331 -0.1347 -0.2306  0.0349
  160loPI   C3B 2559  13.876  17.122   8.992 -0.2726 -0.1070  0.0799
  160loPI   C4B 2560  13.658  17.253   8.681 -0.1402  0.1996 -0.1783
  161loPI    C1 2561   9.518   7.580  10.444  0.0919 -0.0896  0.0186
  161loPI    C2 2562   9.658   7.223  10.330  0.0283 -0.1405  0.0988
  161loPI    C3 2563   9.907   7.497  10.482  0.1405 -0.0173 -0.2963
  161loPI   PO4 2564   9.357   7.680  10.263  0.0213  0.0700 -0.0513
  161loPI   GL1 2565   9.402   7.972  10.017 -0.1058  0.0721  0.0101
  161loPI   GL2 2566   9.457   8.295  10.022  0.1117  0.0081 -0.0466
  161loPI   C1A 2567   9.575   7.874   9.565  0.1395  0.0272 -0.1912
  161loPI   C2A 2568   9.687   7.772   9.104 -0.0301 -0.0673  0.2046
  161loPI   C3A 2569   9.683   7.697   8.650 -0.3679  0.0429  0.0820
  161loPI   C4A 2570   9.872   7.414   8.472  0.4111  0.3403 -0.2152
  161loPI   C5A 2571   9.739   6.999   8.363  0.6638  0.4154  0.2753
  161loPI   C6A 2572   9.400   7.001   8.011  0.0460 -0.1418  0.0495
  161loPI   C1B 2573   9.328   8.312   9.560  0.1495  0.1941 -0.1979
  161loPI   C2B 2574   9.399   8.134   9.219  0.1750 -0.2902  0.0354
  161loPI   C3B 2575   9.413   8.136   8.798 -0.1407 -0.0902  0.0101
  161loPI   C4B 2576   9.449   8.024   8.382 -0.1567  0.2276  0.1668
  162loPI    C1 2577  11.054   4.801  10.656 -0.0032 -0.0653 -0.1592
  162loPI    C2 2578  11.159   4.909  11.026  0.0965 -0.0695 -0.1859
  162loPI    C3 2579  10.784   4.968  10.900  0.0759 -0.0192 -0.1027
  162loPI   PO4 2580  11.233   4.909  10.471  0.4034  0.1790  0.0797
  162loPI   GL1 2581  11.518   4.898  10.010 -0.1222 -0.0316 -0.0630
  162loPI   GL2 2582  11.320   4.726  10.040  0.1373 -0.0602  0.0811
  162loPI   C1A 2583  11.545   4.734   9.604  0.0470  0.0212  0.1169
  162loPI   C2A 2584  11.594   4.702   9.124  0.1439 -0.2636 -0.0233
  162loPI   C3A 2585  11.554   4.578   8.749  0.0405 -0.4422  0.0280
  162loPI   C4A 2586  11.540   4.516   8.288  0.0007  0.3076  0.3717
  162loPI   C5A 2587  11.304   4.192   7.994 -0.2188 -0.0461  0.1409
  162loPI   C6A 2588  11.164   3.719   7.882 -0.1763 -0.2434  0.0929
  162loPI   C1B 2589  11.102   4.514   9.692  0.3947 -0.3079 -0.0336
  162loPI   C2B 2590  11.140   4.310   9.258 -0.0887 -0.2537 -0.3096
  162loPI   C3B 2591  11.090   4.263   8.887  0.1079 -0.0027 -0.0566
  162loPI   C4B 2592  11.222   4.253   8.568 -0.1407 -0.0256 -0.2958
  163loPI    C1 2593   1.045  10.450  10.238 -0.1019 -0.2504  0.0666
  163loPI    C2 2594   0.830  10.538  10.563 -0.0126  0.1619  0.0190
  163loPI    C3 2595   0.928  10.827  10.304  0.2777 -0.0875 -0.1558
  163loPI   PO4 2596   0.938  10.249  10.131 -0.3870  0.1704  0.0918
  163loPI   GL1 2597   0.972  10.010   9.759  0.1089 -0.0892  0.0211
  163loPI   GL2 2598   0.645   9.967   9.712  0.0752  0.2920  0.0458
  163loPI   C1A 2599   1.092  10.107   9.324 -0.1600 -0.4575  0.1682
  163loPI   C2A 2600   1.038  10.159   8.864 -0.0119 -0.1053 -0.2005
  163loPI   C3A 2601   1.193  10.316   8.455  0.3475  0.0622  0.1747
  163loPI   C4A 2602   1.105  10.493   8.044  0.1938 -0.2967  0.2236
  163loPI   C5A 2603   0.939  10.625   7.702 -0.0389  0.2231 -0.2758
  163loPI   C6A 2604   0.851  10.566   7.269  0.1794  0.1301  0.1016
  163loPI   C1B 2605   0.745   9.770   9.357  0.1171 -0.0609  0.1441
  163loPI   C2B 2606   0.768   9.726   8.894 -0.1375 -0.3038  0.1422
  163loPI   C3B 2607   0.772   9.687   8.495  0.0624 -0.2906  0.0147
  163loPI   C4B 2608   0.475   9.716   8.161 -0.2466  0.1545  0.0055
  164loPI    C1 2609   3.636  10.964  10.661 -0.1382 -0.0588 -0.1724
  164loPI    C2 2610   3.576  10.872  11.046  0.2310  0.0885 -0.0757
  164loPI    C3 2611   3.529  11.249  10.921 -0.0641  0.0086 -0.2156
  164loPI   PO4 2612   3.534  10.758  10.516  0.2109  0.0215  0.0118
  164loPI   GL1 2613   3.445  10.686  10.095  0.2120  0.0059 -0.0636
  164loPI   GL2 2614   3.228  10.442   9.863 -0.0088  0.1918 -0.3013
  164loPI   C1A 2615   3.623  10.803   9.836 -0.1625 -0.4479 -0.2474
  164loPI   C2A 2616   3.737  10.965   9.395 -0.0135 -0.2718 -0.2105
  164loPI   C3A 2617   3.829  10.826   8.989  0.3050 -0.2548  0.0496
  164loPI   C4A 2618   3.744  10.829   8.508  0.0743 -0.1642 -0.1624
  164loPI   C5A 2619   3.757  11.131   8.273  0.0090  0.0667  0.0863
  164loPI   C6A 2620   3.854  11.138   7.779 -0.0263 -0.3340  0.1385
  164loPI   C1B 2621   3.363  10.634   9.486  0.0929  0.1292 -0.4026
  164loPI   C2B 2622   3.314  10.915   9.074  0.0531 -0.1225 -0.1603
  164loPI   C3B 2623   3.185  10.913   8.669 -0.1417  0.1588 -0.0905
  164loPI   C4B 2624   3.111  10.881   8.192 -0.1342 -0.0434  0.0094
  165loPI    C1 2625  12.298   6.069  10.505 -0.1192  0.1642  0.1625
  165loPI    C2 2626  12.196   5.703  10.629  0.0001  0.0642 -0.0298
  165loPI    C3 2627  12.189   6.010  10.886 -0.0466 -0.0823  0.1466
  165loPI   PO4 2628  12.454   6.048  10.316  0.0493  0.0844 -0.0360
  165loPI   GL1 2629  12.713   5.904  10.061  0.3638 -0.1714  0.1947
  165loPI   GL2 2630  12.792   6.230   9.971  0.2650  0.0009  0.0094
  165loPI   C1A 2631  12.516   5.730   9.654 -0.0896  0.2561 -0.1540
  165loPI   C2A 2632  12.492   5.420   9.326  0.2547 -0.6432 -0.1202
  165loPI   C3A 2633  12.452   5.438   8.873 -0.0715  0.0234 -0.0422
  165loPI   C4A 2634  12.662   5.576   8.444 -0.2767  0.2851  0.3876
  165loPI   C5A 2635  12.917   5.896   8.232  0.1906  0.0298 -0.2313
  165loPI   C6A 2636  13.271   6.024   7.981 -0.0031  0.0432 -0.1760
  165loPI   C1B 2637  12.726   6.205   9.475  0.3276 -0.0680  0.0138
  165loPI   C2B 2638  12.642   5.897   9.136 -0.1598  0.0306  0.2581
  165loPI   C3B 2639  12.372   5.944   8.738 -0.1266 -0.1918 -0.3375
  165loPI   C4B 2640  12.182   5.656   8.422  0.0501 -0.0554 -0.0005
  166loPI    C1 2641  13.903   5.170  10.884  0.0919 -0.0654  0.1055
  166loPI    C2 2642  13.639   5.089  11.174  0.1098 -0.0958  0.1133
  166loPI    C3 2643  14.007   4.932  11.188  0.0699 -0.2008  0.0081
  166loPI   PO4 2644  13.717   5.182  10.672 -0.0776 -0.1859  0.1698
  166loPI   GL1 2645  13.587   5.349  10.248 -0.1536 -0.1619 -0.0063
  166loPI   GL2 2646  13.753   5.660  10.357 -0.0606 -0.0347 -0.0808
  166loPI   C1A 2647  13.592   5.240   9.829  0.2146 -0.0831 -0.2109
  166loPI   C2A 2648  13.404   5.396   9.461  0.2193  0.0174  0.0228
  166loPI   C3A 2649  13.098   5.506   9.155 -0.0558 -0.1117 -0.0544
  166loPI   C4A 2650  12.952   5.551   8.828 -0.0492 -0.1539 -0.1414
  166loPI   C5A 2651  13.156   5.462   8.434 -0.1153  0.1752  0.2060
  166loPI   C6A 2652  12.883   5.417   7.947  0.2183 -0.0399  0.0328
  166loPI   C1B 2653  13.782   5.752   9.960 -0.0594 -0.0432  0.2588
  166loPI   C2B 2654  13.646   5.863   9.526 -0.2791  0.1819 -0.1006
  166loPI   C3B 2655  13.553   5.800   9.215 -0.1037  0.1691 -0.0212
  166loPI   C4B 2656  13.453   5.587   8.878 -0.1114 -0.4160  0.1560
  167loPI    C1 2657  12.919   6.902  10.804  0.0700  0.0127  0.1621
  167loPI    C2 2658  13.290   6.888  10.952  0.0208 -0.1691  0.2717
  167loPI    C3 2659  12.995   7.051  11.167  0.0524  0.0549  0.1486
  167loPI   PO4 2660  12.922   6.979  10.554 -0.0624  0.0912  0.0466
  167loPI   GL1 2661  13.059   6.710  10.228  0.1764 -0.0820 -0.1058
  167loPI   GL2 2662  13.271   6.514  10.084  0.1719  0.1762  0.2832
  167loPI   C1A 2663  13.108   7.021   9.918 -0.0821 -0.0320 -0.2674
  167loPI   C2A 2664  13.180   7.339   9.690 -0.3033  0.2526  0.2281
  167loPI   C3A 2665  13.473   7.488   9.427 -0.3739  0.1834 -0.0769
  167loPI   C4A 2666  13.891   7.613   9.159  0.0297 -0.2091  0.0532
  167loPI   C5A 2667  13.890   7.545   8.768 -0.2257 -0.0942  0.0357
  167loPI   C6A 2668  13.910   7.511   8.287  0.1457  0.1998 -0.4930
  167loPI   C1B 2669  13.117   6.506   9.700 -0.1706  0.0840 -0.2222
  167loPI   C2B 2670  13.054   6.609   9.325 -0.1870 -0.2354  0.0023
  167loPI   C3B 2671  12.951   6.573   8.947  0.1304 -0.0209 -0.2184
  167loPI   C4B 2672  12.796   6.245   8.785  0.0058  0.4908  0.1350
  168loPI    C1 2673   2.843  11.176  10.372  0.0623  0.0885 -0.0645
  168loPI    C2 2674   3.082  10.961  10.611 -0.0006  0.0592 -0.0275
  168loPI    C3 2675   2.954  11.321  10.728  0.0660  0.0967 -0.0690
  168loPI   PO4 2676   2.894  11.007  10.166 -0.0520 -0.0061 -0.0754
  168loPI   GL1 2677   3.137  11.030   9.735 -0.3220 -0.0391  0.2038
  168loPI   GL2 2678   2.915  11.354   9.468  0.0242  0.0139 -0.0689
  168loPI   C1A 2679   3.363  11.269   9.410 -0.1670  0.1101  0.0055
  168loPI   C2A 2680   3.180  11.462   9.021 -0.0811 -0.0449 -0.1559
  168loPI   C3A 2681   3.040  11.451   8.607  0.4175 -0.1459 -0.0328
  168loPI   C4A 2682   3.292  11.352   8.276  0.3184 -0.1453 -0.0436
  168loPI   C5A 2683   3.259  11.268   7.857 -0.0421 -0.1778 -0.1958
  168loPI   C6A 2684   3.107  10.965   7.657 -0.0042  0.0195  0.4577
  168loPI   C1B 2685   2.828  11.069   9.176 -0.3075 -0.3665  0.1167
  168loPI   C2B 2686   2.720  10.977   8.871 -0.0280  0.1180 -0.0508
  168loPI   C3B 2687   2.672  11.123   8.478  0.0124  0.3129 -0.4058
  168loPI   C4B 2688   2.826  11.324   8.168  0.1959  0.0664 -0.0851
  169loPI    C1 2689   1.839   4.631  10.703  0.2792  0.0330 -0.0381
  169loPI    C2 2690   2.021   4.987  10.710  0.1526  0.0953  0.1597
  169loPI    C3 2691   1.747   4.897  10.987  0.0688 -0.0962  0.0167
  169loPI   PO4 2692   1.815   4.642  10.342 -0.1019 -0.3261  0.3419
  169loPI   GL1 2693   1.755   4.811   9.886  0.0018  0.1920 -0.4458
  169loPI   GL2 2694   1.536   4.834   9.660  0.1149 -0.0076 -0.0204
  169loPI   C1A 2695   1.984   5.088   9.519  0.0111 -0.0783  0.0513
  169loPI   C2A 2696   2.227   4.985   9.193 -0.3186  0.2199  0.3299
  169loPI   C3A 2697   2.384   4.977   8.773 -0.2013  0.1833 -0.1296
  169loPI   C4A 2698   2.260   4.943   8.326  0.0291  0.0597  0.1334
  169loPI   C5A 2699   1.936   4.918   7.994  0.0898  0.0505  0.0798
  169loPI   C6A 2700   1.736   4.796   7.572  0.1357  0.1434 -0.0567
  169loPI   C1B 2701   1.704   4.869   9.217 -0.4028  0.1930 -0.1180
  169loPI   C2B 2702   1.821   4.964   8.877  0.4521  0.0055 -0.1039
  169loPI   C3B 2703   1.757   4.807   8.452 -0.0709  0.1403  0.0926
  169loPI   C4B 2704   1.928   4.467   8.232  0.1798 -0.1345 -0.0960
  170loPI    C1 2705   0.479  10.074  10.211 -0.0138  0.3013 -0.0855
  170loPI    C2 2706   0.368  10.309  10.515  0.1210 -0.1406  0.3178
  170loPI    C3 2707   0.691  10.076  10.550  0.2232 -0.0941 -0.2242
  170loPI   PO4 2708   0.275  10.045  10.051 -0.1593  0.1370 -0.0011
  170loPI   GL1 2709   0.149   9.699   9.747 -0.3092 -0.0921 -0.1045
  170loPI   GL2 2710  -0.192   9.585   9.674 -0.1942  0.2138  0.1780
  170loPI   C1A 2711   0.230   9.971   9.359 -0.0839 -0.0369 -0.2871
  170loPI   C2A 2712   0.208   9.962   8.946  0.1361 -0.0469  0.0258
  170loPI   C3A 2713   0.210  10.034   8.535  0.1508 -0.0744 -0.2160
  170loPI   C4A 2714  -0.164  10.116   8.405  0.4127  0.0759  0.1003
  170loPI   C5A 2715  -0.599  10.155   8.257 -0.1503 -0.1622 -0.1022
  170loPI   C6A 2716  -0.710  10.301   7.787 -0.0578 -0.0657  0.0690
  170loPI   C1B 2717  -0.156   9.687   9.255  0.2139 -0.1619 -0.2965
  170loPI   C2B 2718  -0.155   9.729   8.799  0.1738 -0.1775  0.1588
  170loPI   C3B 2719  -0.009   9.515   8.341  0.2086  0.1980 -0.0971
  170loPI   C4B 2720   0.050   9.464   7.858 -0.0483  0.0572 -0.3169
  171loPI    C1 2721   0.004  10.502  10.274  0.1254 -0.0408  0.0863
  171loPI    C2 2722  -0.393  10.456  10.246  0.1243  0.0157  0.0052
  171loPI    C3 2723  -0.164  10.152  10.370  0.0390  0.0340  0.2106
  171loPI   PO4 2724   0.058  10.527   9.976  0.0264 -0.0937 -0.2820
  171loPI   GL1 2725   0.386  10.369   9.637  0.0110 -0.1695 -0.1725
  171loPI   GL2 2726   0.550  10.622   9.548 -0.4200  0.2377 -0.2590
  171loPI   C1A 2727   0.532  10.262   9.184  0.0455  0.0246  0.1269
  171loPI   C2A 2728   0.624  10.422   8.751 -0.0400  0.0578  0.3739
  171loPI   C3A 2729   0.717  10.206   8.434 -0.2084 -0.2614  0.3776
  171loPI   C4A 2730   0.917  10.033   8.129 -0.0438 -0.2503  0.0192
  171loPI   C5A 2731   1.297  10.138   7.737 -0.3252 -0.2785 -0.0691
  171loPI   C6A 2732   1.498  10.056   7.410  0.0224 -0.0805 -0.1653
  171loPI   C1B 2733   0.521  10.819   9.144 -0.0451  0.2112 -0.2583
  171loPI   C2B 2734   0.348  10.873   8.848 -0.0489 -0.1323  0.0252
  171loPI   C3B 2735   0.410  10.992   8.440 -0.1842  0.0354 -0.3054
  171loPI   C4B 2736   0.460  11.097   7.985  0.3170  0.0309  0.3581
  172loPI    C1 2737   7.220   2.669  10.353  0.1913 -0.1881 -0.1831
  172loPI    C2 2738   7.279   2.274  10.376  0.0700 -0.1987 -0.0401
  172loPI    C3 2739   7.115   2.470  10.684  0.0983 -0.0421 -0.1238
  172loPI   PO4 2740   7.396   2.727  10.243  0.0542  0.0486 -0.2324
  172loPI   GL1 2741   7.529   2.665   9.840  0.2198 -0.0844  0.0728
  172loPI   GL2 2742   7.320   2.412   9.849 -0.0242  0.2807  0.0141
  172loPI   C1A 2743   7.515   2.480   9.405 -0.0778  0.0660 -0.0134
  172loPI   C2A 2744   7.472   2.439   8.961  0.1398 -0.0957  0.0261
  172loPI   C3A 2745   7.541   2.355   8.570 -0.0844 -0.0554 -0.0771
  172loPI   C4A 2746   7.331   2.294   8.181  0.0022 -0.4192 -0.0176
  172loPI   C5A 2747   7.420   1.942   7.833  0.0181  0.3564 -0.0104
  172loPI   C6A 2748   7.720   1.626   7.819 -0.3829  0.3603 -0.0709
  172loPI   C1B 2749   7.097   2.201   9.457  0.1977 -0.0551  0.0191
  172loPI   C2B 2750   7.059   2.130   9.061 -0.3857 -0.0684  0.2032
  172loPI   C3B 2751   7.037   2.163   8.543  0.4682  0.2145 -0.1433
  172loPI   C4B 2752   6.911   1.921   8.102 -0.1114  0.3010 -0.1167
  173loPI    C1 2753  10.383  11.785  11.065 -0.1374 -0.0396 -0.2299
  173loPI    C2 2754  10.010  11.882  11.172 -0.1012 -0.0251 -0.1157
  173loPI    C3 2755  10.142  11.508  11.225  0.0653  0.0901  0.3200
  173loPI   PO4 2756  10.406  11.849  10.784 -0.1290 -0.1929 -0.0105
  173loPI   GL1 2757  10.407  12.239  10.401  0.0822  0.2576 -0.0428
  173loPI   GL2 2758  10.279  12.463  10.289  0.0828  0.2888  0.1367
  173loPI   C1A 2759  10.740  12.064  10.110  0.1621  0.0579 -0.0749
  173loPI   C2A 2760  10.738  12.078   9.618 -0.0763 -0.2399 -0.4082
  173loPI   C3A 2761  10.702  12.251   9.137  0.0865  0.0339  0.2611
  173loPI   C4A 2762  10.748  11.890   8.820 -0.2162  0.1211 -0.2339
  173loPI   C5A 2763  10.786  11.813   8.395 -0.0501 -0.3421 -0.0660
  173loPI   C6A 2764  11.092  11.534   8.238 -0.1202 -0.0436  0.0308
  173loPI   C1B 2765  10.005  12.425   9.924 -0.0379  0.1664 -0.0835
  173loPI   C2B 2766   9.831  12.465   9.507  0.2508 -0.1244 -0.2731
  173loPI   C3B 2767   9.855  12.540   9.132 -0.2613 -0.1305  0.0264
  173loPI   C4B 2768   9.845  12.571   8.668 -0.0969 -0.0715  0.0590
  174loPI    C1 2769   8.972   2.340  10.459 -0.0331 -0.0184  0.0093
  174loPI    C2 2770   8.700   2.160  10.228  0.0078  0.0230 -0.0714
  174loPI    C3 2771   8.766   2.027  10.600 -0.1477  0.0349 -0.0388
  174loPI   PO4 2772   9.160   2.436  10.261 -0.2773 -0.0823  0.0509
  174loPI   GL1 2773   9.177   2.547   9.861 -0.2281  0.1148 -0.1155
  174loPI   GL2 2774   9.542   2.603   9.880 -0.2294  0.5405 -0.3469
  174loPI   C1A 2775   9.123   2.643   9.466  0.2114 -0.0089  0.2853
  174loPI   C2A 2776   9.377   2.846   9.167  0.1931  0.0210  0.1353
  174loPI   C3A 2777   9.214   2.906   8.698  0.1391 -0.0078  0.1693
  174loPI   C4A 2778   9.057   2.980   8.299  0.1088  0.3224 -0.0834
  174loPI   C5A 2779   9.015   2.962   7.893  0.0269  0.0816 -0.0580
  174loPI   C6A 2780   9.058   2.777   7.486  0.4103  0.0921 -0.4356
  174loPI   C1B 2781   9.499   2.986   9.654  0.0826  0.3067 -0.2322
  174loPI   C2B 2782   9.374   3.318   9.440  0.1677  0.0413 -0.1343
  174loPI   C3B 2783   9.307   3.359   9.040  0.2759 -0.4533 -0.1080
  174loPI   C4B 2784   9.139   3.465   8.642  0.1881 -0.2171  0.1999
  175loPI    C1 2785   8.269  12.900   9.950  0.1189 -0.1893 -0.0986
  175loPI    C2 2786   8.617  13.067  10.057  0.0292  0.0512 -0.1766
  175loPI    C3 2787   8.314  13.049  10.318 -0.0100  0.1471 -0.2148
  175loPI   PO4 2788   8.304  12.826   9.776 -0.4647 -0.0153 -0.2692
  175loPI   GL1 2789   8.419  12.749   9.377 -0.1328  0.3391 -0.0564
  175loPI   GL2 2790   8.023  12.828   9.385 -0.1973 -0.3042  0.2329
  175loPI   C1A 2791   8.313  13.119   9.119  0.0220 -0.0276  0.1375
  175loPI   C2A 2792   8.084  13.106   8.691  0.1714 -0.0818 -0.0896
  175loPI   C3A 2793   8.145  12.793   8.286 -0.1795  0.2152 -0.1034
  175loPI   C4A 2794   8.397  12.849   7.879  0.2772 -0.1791  0.0013
  175loPI   C5A 2795   8.555  12.730   7.469 -0.2220 -0.0613 -0.2015
  175loPI   C6A 2796   8.560  12.658   7.033  0.0472  0.0110 -0.3517
  175loPI   C1B 2797   8.011  12.726   9.016  0.2993 -0.1700 -0.1887
  175loPI   C2B 2798   7.713  12.631   8.646  0.0569 -0.1296 -0.3096
  175loPI   C3B 2799   7.436  12.513   8.276 -0.1034 -0.1006  0.0004
  175loPI   C4B 2800   7.307  12.606   7.983 -0.2462  0.2382  0.1308
  176loPI    C1 2801   3.444  10.186  10.554 -0.2231  0.2390  0.1733
  176loPI    C2 2802   3.644   9.970  10.826 -0.0527 -0.1768 -0.2676
  176loPI    C3 2803   3.244   9.984  10.837 -0.0367  0.1287  0.2280
  176loPI   PO4 2804   3.537  10.148  10.365  0.0633  0.0609 -0.2260
  176loPI   GL1 2805   3.746  10.243  10.058  0.1845  0.3548  0.2029
  176loPI   GL2 2806   4.020  10.070  10.061 -0.2009  0.0524  0.2019
  176loPI   C1A 2807   3.891  10.383   9.680  0.0021  0.0109 -0.0346
  176loPI   C2A 2808   4.212  10.298   9.312 -0.5040 -0.0039  0.1992
  176loPI   C3A 2809   4.072  10.363   8.829  0.0109 -0.2674 -0.0030
  176loPI   C4A 2810   3.972  10.446   8.375 -0.1827  0.2556 -0.1572
  176loPI   C5A 2811   4.045  10.733   8.014 -0.1285 -0.1232 -0.0354
  176loPI   C6A 2812   4.310  10.716   7.756  0.3088 -0.1602 -0.0324
  176loPI   C1B 2813   4.157   9.869   9.795  0.0231 -0.1949 -0.0248
  176loPI   C2B 2814   4.267   9.816   9.359 -0.2141  0.0184 -0.1652
  176loPI   C3B 2815   4.437   9.927   8.949  0.1022  0.2810 -0.1505
  176loPI   C4B 2816   4.763   9.965   8.773 -0.2491  0.0776  0.0473
  177loPI    C1 2817  12.630  15.498  10.866  0.0739  0.0854 -0.0019
  177loPI    C2 2818  12.731  15.780  10.601  0.2602 -0.0472 -0.0744
  177loPI    C3 2819  12.852  15.810  10.982 -0.1593  0.2369  0.0440
  177loPI   PO4 2820  12.381  15.491  10.873  0.1587  0.2093 -0.2928
  177loPI   GL1 2821  12.288  15.551  10.543 -0.0294  0.0763  0.0689
  177loPI   GL2 2822  12.247  15.298  10.217 -0.1293 -0.1448  0.3354
  177loPI   C1A 2823  12.523  15.727  10.165 -0.4067 -0.1005  0.3425
  177loPI   C2A 2824  12.410  15.978   9.922 -0.2253  0.0838 -0.1165
  177loPI   C3A 2825  12.258  15.879   9.444  0.3121  0.0259  0.1363
  177loPI   C4A 2826  12.119  15.793   9.119  0.1827 -0.0326  0.1242
  177loPI   C5A 2827  11.797  15.749   8.900  0.0306 -0.3209 -0.2187
  177loPI   C6A 2828  11.710  15.452   8.523 -0.0475  0.1121  0.2414
  177loPI   C1B 2829  12.298  15.451   9.811  0.0522 -0.2381  0.2870
  177loPI   C2B 2830  11.979  15.435   9.550  0.0758  0.2630  0.0529
  177loPI   C3B 2831  11.743  15.349   9.165 -0.4196 -0.0003 -0.0236
  177loPI   C4B 2832  11.376  15.352   8.888  0.0041 -0.0492  0.1543
  178loPI    C1 2833  16.704   8.734  10.054  0.1883 -0.1527  0.0733
  178loPI    C2 2834  16.936   8.619  10.359 -0.0197 -0.1344  0.2405
  178loPI    C3 2835  16.545   8.681  10.417 -0.0287  0.0386  0.0084
  178loPI   PO4 2836  16.951   8.629   9.875 -0.1184 -0.4082 -0.1138
  178loPI   GL1 2837  17.107   8.608   9.450 -0.0628 -0.0040 -0.4494
  178loPI   GL2 2838  17.003   8.545   9.118 -0.0189  0.2816 -0.2696
  178loPI   C1A 2839  17.349   8.943   9.402 -0.1064 -0.1049 -0.0221
  178loPI   C2A 2840  17.564   9.051   9.138 -0.3154  0.1526  0.2821
  178loPI   C3A 2841  17.578   9.287   8.810 -0.2391 -0.0690  0.1685
  178loPI   C4A 2842  17.652   9.423   8.488 -0.0108  0.0040  0.1070
  178loPI   C5A 2843  17.600   9.725   8.338  0.2277 -0.0371 -0.2284
  178loPI   C6A 2844  17.242   9.798   8.129 -0.1358 -0.1197 -0.0945
  178loPI   C1B 2845  17.210   8.871   8.914  0.0283  0.1542 -0.0034
  178loPI   C2B 2846  17.341   8.841   8.422  0.1700  0.1328 -0.1886
  178loPI   C3B 2847  17.508   8.802   8.050 -0.1705 -0.2379  0.1903
  178loPI   C4B 2848  17.653   8.906   7.701 -0.0052 -0.0129 -0.0955
  179loPI    C1 2849   1.339  14.384   9.870 -0.2722 -0.2027  0.0610
  179loPI    C2 2850   1.266  14.134  10.174  0.2072 -0.1769  0.2059
  179loPI    C3 2851   1.379  14.511  10.248 -0.0994 -0.0379 -0.0108
  179loPI   PO4 2852   1.240  14.409   9.715 -0.1170  0.3365 -0.1251
  179loPI   GL1 2853   1.073  14.271   9.426 -0.2649 -0.2021  0.0562
  179loPI   GL2 2854   1.317  14.326   9.234  0.2651  0.0603 -0.0586
  179loPI   C1A 2855   0.664  14.189   9.256 -0.1120 -0.0005 -0.2006
  179loPI   C2A 2856   0.452  14.061   8.881 -0.1734  0.3217  0.1973
  179loPI   C3A 2857   0.179  14.164   8.679 -0.0274 -0.3182 -0.1183
  179loPI   C4A 2858   0.143  14.175   8.188  0.0773 -0.1890 -0.0380
  179loPI   C5A 2859   0.126  13.983   7.822  0.1367 -0.1168 -0.2270
  179loPI   C6A 2860   0.017  13.759   7.501  0.0328 -0.2663 -0.0208
  179loPI   C1B 2861   1.101  14.307   8.899 -0.1067 -0.4151 -0.3641
  179loPI   C2B 2862   0.908  14.268   8.591 -0.0225  0.2480  0.1395
  179loPI   C3B 2863   0.658  14.107   8.323 -0.0661 -0.0386  0.0639
  179loPI   C4B 2864   0.424  13.795   8.207 -0.0247 -0.3158 -0.0529
  180loPI    C1 2865   3.423   2.771  10.626  0.1614  0.0484 -0.1014
  180loPI    C2 2866   3.794   2.886  10.721  0.0545  0.1389  0.2176
  180loPI    C3 2867   3.585   2.656  10.973 -0.0572 -0.0268 -0.0226
  180loPI   PO4 2868   3.421   2.875  10.317  0.0113  0.0276 -0.0491
  180loPI   GL1 2869   3.280   2.780   9.996 -0.0796  0.2129 -0.0156
  180loPI   GL2 2870   3.196   3.012   9.743 -0.0101  0.3446  0.1196
  180loPI   C1A 2871   3.448   2.612   9.534 -0.4564 -0.0637 -0.0925
  180loPI   C2A 2872   3.741   2.464   9.203 -0.0991 -0.4870  0.1964
  180loPI   C3A 2873   3.900   2.310   8.827 -0.1745  0.0001 -0.0714
  180loPI   C4A 2874   3.896   2.164   8.339 -0.1923 -0.2027  0.1020
  180loPI   C5A 2875   3.744   2.159   7.863 -0.2077 -0.0452  0.0748
  180loPI   C6A 2876   3.804   1.951   7.473  0.2123  0.2714  0.1234
  180loPI   C1B 2877   3.235   2.936   9.245  0.0645 -0.2023 -0.0204
  180loPI   C2B 2878   3.386   2.874   8.742  0.1841 -0.0032 -0.0555
  180loPI   C3B 2879   3.340   3.100   8.307 -0.0347 -0.1071 -0.1153
  180loPI   C4B 2880   3.505   3.115   7.835  0.1645  0.0847 -0.1962
  181loPI    C1 2881   4.341   7.261  10.409  0.0836 -0.0917  0.2147
  181loPI    C2 2882   4.491   7.627  10.347  0.1895 -0.1364  0.2060
  181loPI    C3 2883   4.266   7.556  10.670  0.0256 -0.0209  0.1188
  181loPI   PO4 2884   4.408   7.155  10.141 -0.3150  0.2760 -0.0916
  181loPI   GL1 2885   4.248   6.989   9.692  0.0431  0.0206 -0.3837
  181loPI   GL2 2886   4.594   7.068   9.593  0.0539 -0.1396  0.0371
  181loPI   C1A 2887   3.927   6.945   9.328 -0.1396  0.0687  0.1225
  181loPI   C2A 2888   3.661   6.881   9.063 -0.1809 -0.2977 -0.1662
  181loPI   C3A 2889   3.702   6.898   8.646  0.2142 -0.1765 -0.1206
  181loPI   C4A 2890   3.771   6.920   8.285  0.3811 -0.4462 -0.0627
  181loPI   C5A 2891   3.856   6.790   7.906  0.0969 -0.1204 -0.0614
  181loPI   C6A 2892   3.916   6.788   7.458  0.2611 -0.1329 -0.0116
  181loPI   C1B 2893   4.673   7.269   9.164 -0.2189  0.0789 -0.0937
  181loPI   C2B 2894   4.738   7.376   8.701 -0.2807  0.0237  0.3087
  181loPI   C3B 2895   4.500   7.341   8.302 -0.1542 -0.0057  0.1232
  181loPI   C4B 2896   4.591   7.386   7.934  0.2285 -0.0072  0.0674
  182loPI    C1 2897   6.885   5.866  10.905  0.2156  0.1638  0.1037
  182loPI    C2 2898   7.223   5.908  11.114  0.2491  0.1458  0.0532
  182loPI    C3 2899   7.120   5.549  10.971  0.1088  0.1116  0.2372
  182loPI   PO4 2900   6.934   5.984  10.593  0.0387  0.0884 -0.0792
  182loPI   GL1 2901   6.816   5.999  10.201 -0.3499 -0.0313 -0.1533
  182loPI   GL2 2902   6.974   6.236  10.077  0.0661 -0.1006  0.1633
  182loPI   C1A 2903   6.576   5.967   9.777 -0.2112  0.0043 -0.0964
  182loPI   C2A 2904   6.599   5.952   9.355  0.1917 -0.2387 -0.1279
  182loPI   C3A 2905   6.597   5.992   9.066 -0.0356  0.0188 -0.2166
  182loPI   C4A 2906   6.893   6.234   8.780  0.0725 -0.2979  0.3713
  182loPI   C5A 2907   6.866   6.534   8.451  0.0530 -0.1478  0.1744
  182loPI   C6A 2908   6.564   6.612   8.157  0.0500 -0.4952  0.2856
  182loPI   C1B 2909   7.064   6.167   9.642 -0.0765  0.2448  0.0659
  182loPI   C2B 2910   6.840   6.424   9.258 -0.1030  0.1280  0.0722
  182loPI   C3B 2911   6.760   6.755   8.956 -0.2082 -0.1140  0.0947
  182loPI   C4B 2912   6.508   6.891   8.633 -0.3349  0.0433 -0.1907
  183loPI    C1 2913   5.657   0.264  10.577 -0.0368 -0.1555  0.0732
  183loPI    C2 2914   5.899   0.559  10.697 -0.0325 -0.0990 -0.0719
  183loPI    C3 2915   5.699   0.342  10.967 -0.3312  0.2859  0.0240
  183loPI   PO4 2916   5.465   0.408  10.371  0.1365  0.0421  0.1354
  183loPI   GL1 2917   5.210   0.322  10.053  0.0393  0.2591  0.1443
  183loPI   GL2 2918   4.991   0.490   9.793 -0.0902  0.1709 -0.0139
  183loPI   C1A 2919   5.448   0.247   9.631 -0.0558  0.0846 -0.2187
  183loPI   C2A 2920   5.305   0.369   9.222  0.0136 -0.3384  0.0679
  183loPI   C3A 2921   5.215   0.622   8.876 -0.0024 -0.1835 -0.0331
  183loPI   C4A 2922   5.400   0.853   8.558 -0.0311  0.0872 -0.0956
  183loPI   C5A 2923   5.745   0.787   8.188 -0.1957  0.2758  0.2933
  183loPI   C6A 2924   5.870   0.421   8.005  0.0731 -0.0196  0.1467
  183loPI   C1B 2925   4.827   0.393   9.374  0.1253 -0.0249 -0.2514
  183loPI   C2B 2926   4.774   0.431   8.853 -0.0290 -0.1137 -0.0273
  183loPI   C3B 2927   4.824   0.461   8.448  0.3557 -0.0320  0.1831
  183loPI   C4B 2928   4.948   0.384   8.006  0.3111 -0.4545  0.2882
  184loPI    C1 2929   4.424  18.519  10.212 -0.1186  0.0700  0.1637
  184loPI    C2 2930   4.324  18.282  10.519 -0.0210 -0.0364  0.1141
  184loPI    C3 2931   4.709  18.354  10.439 -0.0422 -0.1043 -0.0545
  184loPI   PO4 2932   4.141  18.614  10.168 -0.2274 -0.1167  0.1870
  184loPI   GL1 2933   3.954  18.880   9.816 -0.0450  0.1213  0.3588
  184loPI   GL2 2934   4.070  19.182   9.745  0.1514  0.0110 -0.1265
  184loPI   C1A 2935   3.883  18.944   9.360  0.0189  0.3789  0.3614
  184loPI   C2A 2936   3.799  19.040   8.908  0.0467 -0.0776 -0.2433
  184loPI   C3A 2937   3.785  19.006   8.467 -0.1043 -0.5517  0.0767
  184loPI   C4A 2938   3.785  18.963   7.987  0.0349 -0.4357 -0.1671
  184loPI   C5A 2939   4.009  19.184   7.623  0.0650 -0.1812  0.1735
  184loPI   C6A 2940   4.264  19.453   7.549  0.0108 -0.1466  0.1218
  184loPI   C1B 2941   4.031  19.588   9.536  0.0215 -0.0128 -0.2669
  184loPI   C2B 2942   4.263  20.001   9.414 -0.2833 -0.1047  0.2213
  184loPI   C3B 2943   4.439  20.293   9.089  0.2817  0.0339  0.0047
  184loPI   C4B 2944   4.835  20.314   8.871 -0.1503  0.2309 -0.1115
  185loPI    C1 2945   9.371   7.254  10.761  0.2164  0.0468 -0.0045
  185loPI    C2 2946   9.067   7.163  11.005  0.0727  0.0493 -0.1814
  185loPI    C3 2947   9.441   7.069  11.109 -0.0106 -0.1592 -0.0659
  185loPI   PO4 2948   9.222   7.106  10.495 -0.1187 -0.1434 -0.0682
  185loPI   GL1 2949   9.258   7.258   9.981 -0.0395  0.3670 -0.1293
  185loPI   GL2 2950   8.883   6.982  10.092 -0.0375  0.1097 -0.0911
  185loPI   C1A 2951   8.954   7.325   9.624  0.0573 -0.0283  0.0316
  185loPI   C2A 2952   8.822   7.265   9.246 -0.2441  0.0831  0.0131
  185loPI   C3A 2953   8.911   7.245   8.735  0.1867 -0.0410 -0.1560
  185loPI   C4A 2954   8.923   7.262   8.298  0.0514 -0.0807 -0.1360
  185loPI   C5A 2955   9.131   7.480   7.876 -0.1011  0.0599  0.0427
  185loPI   C6A 2956   9.398   7.826   7.924 -0.2978  0.0976 -0.0461
  185loPI   C1B 2957   8.638   6.952   9.659 -0.3542 -0.2180 -0.0782
  185loPI   C2B 2958   8.614   6.837   9.209 -0.0740  0.1965  0.0839
  185loPI   C3B 2959   8.609   6.798   8.696  0.1706 -0.2181  0.1174
  185loPI   C4B 2960   8.477   6.926   8.325 -0.1186  0.0932 -0.0348
  186loPI    C1 2961   1.257  17.463  10.441  0.0639 -0.1312 -0.1961
  186loPI    C2 2962   0.891  17.624  10.431  0.1975  0.2360  0.3250
  186loPI    C3 2963   0.949  17.269  10.607  0.0439  0.0125 -0.0620
  186loPI   PO4 2964   1.308  17.500  10.191  0.1724 -0.2991  0.4711
  186loPI   GL1 2965   1.480  17.754   9.776  0.1069  0.0774  0.1775
  186loPI   GL2 2966   1.694  18.001   9.607 -0.2419  0.0847  0.2700
  186loPI   C1A 2967   1.228  17.702   9.354  0.0830  0.2325  0.4277
  186loPI   C2A 2968   1.112  17.896   8.922  0.2434 -0.0274 -0.1068
  186loPI   C3A 2969   1.265  17.933   8.451  0.0607  0.0514  0.0506
  186loPI   C4A 2970   1.405  17.907   7.958  0.0603 -0.2754 -0.0629
  186loPI   C5A 2971   1.529  17.601   7.624  0.2373 -0.1306 -0.0678
  186loPI   C6A 2972   1.549  17.475   7.254  0.0691 -0.1332  0.0318
  186loPI   C1B 2973   1.726  17.869   9.174  0.0382  0.0249 -0.1089
  186loPI   C2B 2974   1.742  17.908   8.678  0.1200  0.0756  0.0183
  186loPI   C3B 2975   1.801  17.896   8.263 -0.1976 -0.0397  0.0524
  186loPI   C4B 2976   1.947  17.710   7.843 -0.4243 -0.0706  0.1535
  187loPI    C1 2977   8.158   9.075  10.567 -0.3258 -0.0872  0.1618
  187loPI    C2 2978   8.502   9.276  10.597 -0.2575 -0.1276 -0.2758
  187loPI    C3 2979   8.253   9.256  10.910  0.0934 -0.0227  0.0167
  187loPI   PO4 2980   8.212   8.958  10.367  0.1717  0.0955 -0.3620
  187loPI   GL1 2981   8.240   9.128  10.003 -0.0939  0.1924 -0.1023
  187loPI   GL2 2982   8.356   9.429  10.133 -0.1487 -0.0715  0.1455
  187loPI   C1A 2983   8.253   9.133   9.609 -0.2173  0.1364 -0.1724
  187loPI   C2A 2984   8.259   8.954   9.163 -0.1080 -0.2859  0.0350
  187loPI   C3A 2985   8.300   8.661   8.713  0.2505  0.0755  0.1920
  187loPI   C4A 2986   8.045   8.404   8.376  0.1227  0.1932  0.1172
  187loPI   C5A 2987   8.076   7.958   8.248 -0.1332 -0.1201  0.1334
  187loPI   C6A 2988   8.170   7.755   7.858  0.3671 -0.0478 -0.0934
  187loPI   C1B 2989   8.499   9.509   9.826 -0.0439  0.2707  0.2797
  187loPI   C2B 2990   8.499   9.500   9.377  0.3056  0.0925  0.0973
  187loPI   C3B 2991   8.524   9.319   8.884 -0.5998 -0.1193 -0.2460
  187loPI   C4B 2992   8.391   9.144   8.571 -0.1378 -0.1962 -0.0718
  188loPI    C1 2993  14.460   9.664  10.861  0.0435 -0.2681 -0.0211
  188loPI    C2 2994  14.340   9.705  11.240 -0.0314  0.1043 -0.0817
  188loPI    C3 2995  14.727   9.742  11.148 -0.0154  0.0308 -0.0441
  188loPI   PO4 2996  14.182   9.742  10.657  0.2698  0.0670  0.0294
  188loPI   GL1 2997  13.991   9.860  10.197  0.0908  0.0835 -0.1477
  188loPI   GL2 2998  14.246   9.962  10.166 -0.0747 -0.4613  0.1076
  188loPI   C1A 2999  14.032   9.486   9.866  0.2010  0.1596  0.3015
  188loPI   C2A 3000  14.042   9.364   9.540  0.2058  0.0182  0.2451
  188loPI   C3A 3001  13.946   9.409   9.170 -0.0711 -0.2402 -0.1582
  188loPI   C4A 3002  13.934   9.294   8.729  0.1266 -0.0216 -0.0213
  188loPI   C5A 3003  13.744   9.271   8.311 -0.1299 -0.0245 -0.0532
  188loPI   C6A 3004  13.504   9.484   8.050  0.3062  0.0243  0.1828
  188loPI   C1B 3005  14.249   9.926   9.716  0.0774 -0.2094  0.1740
  188loPI   C2B 3006  14.251   9.825   9.278  0.0745 -0.3819  0.0424
  188loPI   C3B 3007  14.158   9.730   8.785 -0.2461 -0.0243  0.1840
  188loPI   C4B 3008  14.151   9.565   8.367  0.0965 -0.1915 -0.0139
  189loPI    C1 3009  10.632   7.330  10.104  0.0821  0.0518 -0.0032
  189loPI    C2 3010  10.390   7.449  10.400 -0.0601 -0.0332 -0.0841
  189loPI    C3 3011  10.660   7.161  10.466  0.0819  0.1242  0.0308
  189loPI   PO4 3012  10.539   7.233   9.897 -0.0481  0.0610  0.0685
  189loPI   GL1 3013  10.370   7.315   9.618 -0.0805 -0.1433  0.3697
  189loPI   GL2 3014  10.052   7.350   9.543 -0.0268 -0.1490 -0.2040
  189loPI   C1A 3015  10.393   7.145   9.219 -0.0013  0.0991 -0.1502
  189loPI   C2A 3016  10.431   6.837   8.855 -0.4743 -0.1694  0.3289
  189loPI   C3A 3017  10.521   6.649   8.407 -0.1415  0.3675 -0.0483
  189loPI   C4A 3018  10.428   6.647   7.891  0.0966 -0.3919  0.0803
  189loPI   C5A 3019  10.247   6.823   7.559 -0.3958  0.0797 -0.3986
  189loPI   C6A 3020  10.165   6.934   7.243 -0.1178  0.0424  0.0144
  189loPI   C1B 3021   9.852   7.286   9.151  0.0435  0.1305 -0.0802
  189loPI   C2B 3022   9.907   6.949   8.839  0.0677 -0.2294 -0.0428
  189loPI   C3B 3023  10.009   6.606   8.544  0.2984 -0.1317  0.0052
  189loPI   C4B 3024  10.284   6.230   8.540 -0.1436 -0.0073  0.1983
  190loPI    C1 3025  15.304  17.176  10.696  0.3132  0.4105  0.0482
  190loPI    C2 3026  15.591  17.142  10.973  0.0333  0.2751  0.3275
  190loPI    C3 3027  15.208  17.078  11.072 -0.0534  0.0313 -0.1358
  190loPI   PO4 3028  15.349  16.961  10.522 -0.0179  0.1020  0.0251
  190loPI   GL1 3029  15.213  17.015  10.075  0.3891  0.2495 -0.0253
  190loPI   GL2 3030  15.180  16.534  10.127  0.0712  0.1884  0.0914
  190loPI   C1A 3031  15.130  17.138   9.596  0.2434 -0.0969 -0.0116
  190loPI   C2A 3032  15.167  17.094   9.150 -0.1538  0.1727 -0.1601
  190loPI   C3A 3033  14.979  17.100   8.748 -0.0760 -0.0265 -0.2005
  190loPI   C4A 3034  14.745  17.304   8.451  0.0754 -0.1366 -0.1313
  190loPI   C5A 3035  14.657  17.479   7.969 -0.1044 -0.0654  0.3093
  190loPI   C6A 3036  14.505  17.781   7.678  0.0587 -0.0710 -0.0644
  190loPI   C1B 3037  15.375  16.586   9.703 -0.0801 -0.2782 -0.0973
  190loPI   C2B 3038  15.301  16.685   9.382  0.3621  0.1406 -0.0689
  190loPI   C3B 3039  15.252  16.644   8.936 -0.0130 -0.0561  0.0780
  190loPI   C4B 3040  15.074  16.623   8.510 -0.1319  0.3833 -0.1708
  191loPI    C1 3041   9.858  16.874  10.683  0.0541  0.0162 -0.0210
  191loPI    C2 3042   9.962  17.107  10.991 -0.1987 -0.0945  0.1520
  191loPI    C3 3043  10.052  16.718  10.996  0.0775 -0.0370 -0.0619
  191loPI   PO4 3044   9.923  17.020  10.482 -0.1376  0.0914 -0.1370
  191loPI   GL1 3045   9.936  17.373  10.216  0.2486  0.2407 -0.0495
  191loPI   GL2 3046   9.832  17.082  10.069  0.0195  0.2804 -0.0028
  191loPI   C1A 3047  10.201  17.438   9.842 -0.1836  0.1772  0.1997
  191loPI   C2A 3048  10.149  17.275   9.449 -0.0535 -0.0387  0.2590
  191loPI   C3A 3049  10.358  16.977   9.088 -0.1378 -0.0656  0.1305
  191loPI   C4A 3050  10.329  17.008   8.687 -0.3161 -0.0500  0.1579
  191loPI   C5A 3051  10.319  16.894   8.260 -0.2254 -0.1272  0.2031
  191loPI   C6A 3052  10.513  16.585   8.065 -0.1138 -0.2237  0.3199
  191loPI   C1B 3053  10.133  16.963   9.786 -0.0953  0.0412 -0.1505
  191loPI   C2B 3054  10.500  16.991   9.579 -0.1598  0.3650  0.0833
  191loPI   C3B 3055  10.721  17.222   9.354 -0.0237 -0.0001  0.0864
  191loPI   C4B 3056  10.630  17.396   8.959 -0.2083 -0.2861 -0.0056
  192loPI    C1 3057  16.395  10.939  10.422 -0.0215 -0.0759  0.0530
  192loPI    C2 3058  16.752  10.792  10.530  0.0910  0.1146 -0.0549
  192loPI    C3 3059  16.565  11.058  10.764 -0.1083 -0.1872  0.1357
  192loPI   PO4 3060  16.418  10.939  10.118 -0.0302 -0.3460  0.0135
  192loPI   GL1 3061  16.378  11.089   9.798  0.1012 -0.0110  0.2443
  192loPI   GL2 3062  16.182  11.305   9.672 -0.0161 -0.2466  0.2950
  192loPI   C1A 3063  16.274  10.863   9.358  0.0594  0.1883 -0.0271
  192loPI   C2A 3064  16.165  10.660   8.838  0.1101 -0.1346  0.5299
  192loPI   C3A 3065  16.153  10.677   8.361 -0.1330 -0.3420  0.1243
  192loPI   C4A 3066  16.133  10.574   7.958 -0.0401 -0.2066 -0.2247
  192loPI   C5A 3067  16.289  10.552   7.565  0.0461  0.3675 -0.0895
  192loPI   C6A 3068  16.204  10.290   7.076  0.0419  0.3724 -0.1562
  192loPI   C1B 3069  15.965  11.263   9.265 -0.1814  0.0420 -0.0801
  192loPI   C2B 3070  15.879  11.190   8.914 -0.1622 -0.0066  0.2858
  192loPI   C3B 3071  15.887  11.045   8.534 -0.3401 -0.1049  0.1305
  192loPI   C4B 3072  15.919  11.026   8.117  0.0589  0.1564 -0.1165
  193loPI    C1 3073   7.882  14.518  10.155 -0.1132  0.0816  0.2416
  193loPI    C2 3074   8.280  14.491  10.125 -0.1273 -0.0134  0.1333
  193loPI    C3 3075   8.115  14.681  10.436  0.0050  0.1583  0.1002
  193loPI   PO4 3076   7.767  14.233  10.145  0.1541  0.2763  0.0531
  193loPI   GL1 3077   7.734  13.964   9.763 -0.0079 -0.2097 -0.2933
  193loPI   GL2 3078   7.836  14.309   9.693  0.0822 -0.1383  0.1129
  193loPI   C1A 3079   7.627  13.831   9.372  0.2633 -0.0604 -0.0122
  193loPI   C2A 3080   7.664  13.932   8.986 -0.1592 -0.2167 -0.2038
  193loPI   C3A 3081   7.708  13.964   8.642 -0.2750 -0.0896  0.0581
  193loPI   C4A 3082   7.591  14.161   8.252  0.1805 -0.0643  0.0428
  193loPI   C5A 3083   7.547  14.318   7.841  0.2300  0.0808 -0.1288
  193loPI   C6A 3084   7.672  14.337   7.394 -0.1144  0.1477  0.2697
  193loPI   C1B 3085   7.930  14.253   9.299 -0.0092 -0.0205  0.2996
  193loPI   C2B 3086   8.075  14.364   8.796 -0.2954  0.0515  0.0609
  193loPI   C3B 3087   8.240  14.435   8.394 -0.1776 -0.0923 -0.1549
  193loPI   C4B 3088   8.377  14.636   8.010  0.0959 -0.2151  0.1454
  194loPI    C1 3089  15.054   9.374  10.586 -0.0778  0.1063  0.1003
  194loPI    C2 3090  14.968   9.017  10.745 -0.0988  0.1264  0.1346
  194loPI    C3 3091  14.805   9.348  10.899  0.0741  0.1693  0.2278
  194loPI   PO4 3092  15.192   9.371  10.379  0.0625  0.2903  0.3672
  194loPI   GL1 3093  15.241   9.353   9.946  0.1174 -0.2503 -0.0797
  194loPI   GL2 3094  15.540   9.323   9.970  0.1962 -0.4869  0.1714
  194loPI   C1A 3095  15.111   9.237   9.516 -0.1457 -0.1397 -0.1522
  194loPI   C2A 3096  14.966   9.315   9.104 -0.0375  0.2241 -0.4101
  194loPI   C3A 3097  14.947   9.187   8.583 -0.2881 -0.1366  0.0561
  194loPI   C4A 3098  14.965   9.427   8.171 -0.0475  0.2684 -0.0488
  194loPI   C5A 3099  14.784   9.447   7.801  0.0946  0.2431  0.3532
  194loPI   C6A 3100  14.577   9.085   7.536 -0.3634  0.1171 -0.1978
  194loPI   C1B 3101  15.599   9.308   9.606 -0.1902  0.1634  0.0744
  194loPI   C2B 3102  15.593   9.333   9.147 -0.0625  0.1378  0.2502
  194loPI   C3B 3103  15.510   9.320   8.702  0.2187  0.2057 -0.1001
  194loPI   C4B 3104  15.415   9.225   8.309 -0.3045  0.1419  0.0056
  195loPI    C1 3105   2.819  18.302  10.213  0.0425  0.1887 -0.2224
  195loPI    C2 3106   2.431  18.206  10.233  0.1042 -0.0378 -0.0867
  195loPI    C3 3107   2.707  17.962  10.391  0.3091  0.0778 -0.2611
  195loPI   PO4 3108   2.922  18.272   9.993 -0.2556  0.1423 -0.1671
  195loPI   GL1 3109   2.965  18.003   9.623  0.1557 -0.0090 -0.1854
  195loPI   GL2 3110   3.064  17.715   9.872 -0.2329 -0.3571 -0.2987
  195loPI   C1A 3111   3.076  17.953   9.275 -0.1650  0.3462 -0.0545
  195loPI   C2A 3112   3.216  17.989   8.912  0.1255  0.0261 -0.1532
  195loPI   C3A 3113   3.303  18.057   8.492 -0.1241  0.0875  0.0574
  195loPI   C4A 3114   3.319  17.986   8.063  0.1824 -0.1477  0.0983
  195loPI   C5A 3115   3.088  18.020   7.680 -0.1575 -0.1792  0.0081
  195loPI   C6A 3116   3.038  18.278   7.292 -0.3639  0.2047  0.1355
  195loPI   C1B 3117   3.136  17.455   9.495  0.1272 -0.2912 -0.0468
  195loPI   C2B 3118   3.438  17.518   9.157 -0.0912 -0.3428 -0.2369
  195loPI   C3B 3119   3.468  17.638   8.710 -0.0325  0.0715  0.3325
  195loPI   C4B 3120   3.531  17.579   8.249  0.0225 -0.2271  0.3064
  196loPI    C1 3121  14.415  14.951  10.516  0.0813 -0.0094 -0.0814
  196loPI    C2 3122  14.792  14.861  10.415  0.1398 -0.0462  0.1634
  196loPI    C3 3123  14.679  14.850  10.799 -0.1293 -0.1017  0.0851
  196loPI   PO4 3124  14.255  14.920  10.224  0.1256 -0.2023  0.0920
  196loPI   GL1 3125  14.237  14.561   9.942 -0.1099 -0.0993  0.2336
  196loPI   GL2 3126  13.994  14.558   9.680  0.0192  0.1781  0.3402
  196loPI   C1A 3127  14.437  14.404   9.508 -0.0239  0.0350  0.0943
  196loPI   C2A 3128  14.251  14.219   9.119 -0.2008 -0.3307 -0.2114
  196loPI   C3A 3129  14.082  14.059   8.701 -0.1176  0.1167 -0.1448
  196loPI   C4A 3130  13.749  14.068   8.426  0.0093  0.2633 -0.1599
  196loPI   C5A 3131  13.374  13.805   8.333 -0.3588  0.0003  0.0906
  196loPI   C6A 3132  13.140  13.440   8.246 -0.1953  0.2117  0.1415
  196loPI   C1B 3133  13.975  15.076   9.592 -0.3061 -0.3109  0.2035
  196loPI   C2B 3134  13.910  15.352   9.202  0.3260 -0.1044  0.4143
  196loPI   C3B 3135  13.897  15.092   8.830  0.0328  0.1706 -0.0293
  196loPI   C4B 3136  14.071  14.982   8.444 -0.0463 -0.0100 -0.1296
  197loPI    C1 3137  13.855  13.958  10.570 -0.1188  0.0468  0.0746
  197loPI    C2 3138  13.705  14.307  10.696 -0.0203  0.1456 -0.0788
  197loPI    C3 3139  13.471  13.983  10.682 -0.1095  0.2023  0.0742
  197loPI   PO4 3140  13.986  14.018  10.346 -0.0035 -0.0738 -0.0819
  197loPI   GL1 3141  14.057  14.075   9.883 -0.3925  0.0904  0.0083
  197loPI   GL2 3142  13.698  14.198   9.900  0.2007  0.0558 -0.0619
  197loPI   C1A 3143  14.043  13.925   9.486  0.3191  0.2232  0.2649
  197loPI   C2A 3144  13.862  13.816   9.126 -0.1960 -0.3785  0.0146
  197loPI   C3A 3145  13.765  13.709   8.798  0.0607  0.0142  0.2981
  197loPI   C4A 3146  13.362  13.690   8.772 -0.4273  0.2991  0.2916
  197loPI   C5A 3147  12.967  13.820   8.655 -0.2519  0.1357 -0.2594
  197loPI   C6A 3148  12.759  13.807   8.281 -0.1221  0.0848 -0.2632
  197loPI   C1B 3149  13.620  14.244   9.501  0.0972 -0.4652 -0.2868
  197loPI   C2B 3150  13.733  14.360   9.218  0.1649 -0.0864  0.0664
  197loPI   C3B 3151  13.550  14.265   8.791 -0.0710  0.1307 -0.0078
  197loPI   C4B 3152  13.226  14.203   8.536  0.1458 -0.4723 -0.3214
  198loPI    C1 3153  12.236  12.616  10.671  0.1058 -0.0594 -0.0449
  198loPI    C2 3154  12.425  12.410  10.957  0.0845 -0.0306 -0.0101
  198loPI    C3 3155  12.053  12.543  11.019  0.0164 -0.1701 -0.1146
  198loPI   PO4 3156  12.221  12.556  10.491  0.0797  0.1868 -0.1258
  198loPI   GL1 3157  12.428  12.645  10.190  0.0636  0.0189  0.1343
  198loPI   GL2 3158  12.531  12.399  10.092  0.2418 -0.1424 -0.0928
  198loPI   C1A 3159  12.196  12.686   9.764  0.2399 -0.0374 -0.1200
  198loPI   C2A 3160  12.132  12.526   9.334  0.0427 -0.4531  0.2212
  198loPI   C3A 3161  12.115  12.386   8.919  0.0224 -0.1018  0.0992
  198loPI   C4A 3162  12.170  12.421   8.539  0.1770 -0.3329 -0.1453
  198loPI   C5A 3163  11.946  12.569   8.177 -0.1639  0.0273  0.2754
  198loPI   C6A 3164  11.720  12.926   7.874  0.1261 -0.2105 -0.0696
  198loPI   C1B 3165  12.670  12.243   9.728  0.1114  0.0338  0.1049
  198loPI   C2B 3166  12.714  12.152   9.303  0.1581  0.1222 -0.2813
  198loPI   C3B 3167  12.870  11.982   8.993  0.2100 -0.3694  0.0604
  198loPI   C4B 3168  13.076  11.967   8.614 -0.3009  0.1841  0.3497
  199loPI    C1 3169   9.979  15.523  10.225  0.0421 -0.0321 -0.1595
  199loPI    C2 3170   9.992  15.292  10.551 -0.0163  0.0958 -0.0655
  199loPI    C3 3171   9.771  15.182  10.237  0.0122 -0.0105 -0.0485
  199loPI   PO4 3172  10.204  15.619  10.239 -0.1335 -0.1601  0.2103
  199loPI   GL1 3173  10.488  15.556   9.950 -0.0023  0.0759  0.3223
  199loPI   GL2 3174  10.804  15.465  10.002 -0.2040  0.1426 -0.1068
  199loPI   C1A 3175  10.300  15.586   9.562  0.0590  0.0293 -0.0012
  199loPI   C2A 3176  10.315  15.417   9.211  0.1262  0.2266 -0.2610
  199loPI   C3A 3177  10.392  15.445   8.789 -0.2310 -0.1267 -0.1425
  199loPI   C4A 3178  10.904  15.482   8.715  0.3334  0.0342  0.1020
  199loPI   C5A 3179  11.217  15.614   8.432 -0.1175  0.0550 -0.0728
  199loPI   C6A 3180  11.376  15.450   8.050  0.1240 -0.0367 -0.3301
  199loPI   C1B 3181  10.784  15.291   9.536  0.3678  0.0288 -0.0706
  199loPI   C2B 3182  10.860  15.177   9.150  0.2037 -0.0576  0.0835
  199loPI   C3B 3183  10.938  14.983   8.791 -0.0063  0.0417  0.2097
  199loPI   C4B 3184  11.040  14.705   8.408 -0.0504 -0.0852  0.0828
  200loPI    C1 3185   6.171  14.023  10.632  0.0690  0.0671 -0.3386
  200loPI    C2 3186   6.385  14.146  10.317  0.2082  0.1017 -0.2313
  200loPI    C3 3187   6.382  14.362  10.654  0.0941  0.0426 -0.1940
  200loPI   PO4 3188   5.941  13.968  10.392  0.1663  0.0160  0.2303
  200loPI   GL1 3189   5.942  13.968   9.974  0.2075 -0.3529 -0.0259
  200loPI   GL2 3190   6.027  14.307  10.022 -0.0461 -0.0302 -0.0591
  200loPI   C1A 3191   6.058  13.996   9.614 -0.1024  0.0503 -0.1953
  200loPI   C2A 3192   6.076  13.959   9.176 -0.3492  0.2764 -0.0973
  200loPI   C3A 3193   6.112  13.647   8.940 -0.1468  0.3161  0.1073
  200loPI   C4A 3194   5.981  13.581   8.526  0.1642  0.0325 -0.2108
  200loPI   C5A 3195   5.929  13.482   8.087 -0.0130  0.2751  0.1221
  200loPI   C6A 3196   5.876  13.106   7.874  0.1380 -0.0995 -0.3029
  200loPI   C1B 3197   5.930  14.473   9.574  0.1514  0.0429 -0.1278
  200loPI   C2B 3198   5.892  14.479   9.113 -0.1051  0.0647 -0.0690
  200loPI   C3B 3199   6.013  14.492   8.680  0.0131 -0.0592  0.1158
  200loPI   C4B 3200   6.002  14.418   8.230  0.0984 -0.3745 -0.0189
  201loPI    C1 3201   6.381   1.849  10.987  0.0010  0.0490  0.2402
  201loPI    C2 3202   6.207   1.893  11.344  0.2198 -0.2253  0.3856
  201loPI    C3 3203   6.605   1.895  11.315  0.2034 -0.2096  0.1421
  201loPI   PO4 3204   6.296   2.123  10.825  0.0051 -0.1665 -0.1866
  201loPI   GL1 3205   6.260   2.203  10.374  0.1334 -0.0651  0.0534
  201loPI   GL2 3206   6.310   2.497  10.241 -0.3060  0.1938  0.1441
  201loPI   C1A 3207   6.487   2.078  10.035  0.0840  0.2286 -0.0483
  201loPI   C2A 3208   6.689   1.971   9.634  0.0783  0.0159 -0.4259
  201loPI   C3A 3209   6.701   1.820   9.224  0.1564  0.0795 -0.2297
  201loPI   C4A 3210   6.785   1.688   8.755  0.5279 -0.1357  0.2870
  201loPI   C5A 3211   6.447   1.585   8.406 -0.1332  0.0205 -0.1122
  201loPI   C6A 3212   6.229   1.277   8.213  0.3844 -0.0436 -0.3261
  201loPI   C1B 3213   6.154   2.447   9.778 -0.2139 -0.0318 -0.0566
  201loPI   C2B 3214   5.997   2.439   9.296 -0.2406 -0.0286  0.0790
  201loPI   C3B 3215   6.050   2.443   8.935  0.2408  0.1996 -0.0293
  201loPI   C4B 3216   5.983   2.268   8.446 -0.3219 -0.0961  0.1547
  202loPI    C1 3217   0.871  16.145  10.248  0.0519  0.0299  0.0689
  202loPI    C2 3218   0.987  15.762  10.253  0.3119  0.1057  0.0146
  202loPI    C3 3219   0.888  15.946  10.594  0.0556 -0.0467  0.0251
  202loPI   PO4 3220   0.776  16.108   9.882 -0.1311 -0.1311  0.0554
  202loPI   GL1 3221   0.920  16.347   9.474  0.3451  0.0544  0.2769
  202loPI   GL2 3222   1.077  15.960   9.484 -0.4076 -0.1830 -0.0199
  202loPI   C1A 3223   1.266  16.412   9.142  0.2556  0.2372 -0.0096
  202loPI   C2A 3224   1.205  16.380   8.700 -0.0209  0.2746  0.0820
  202loPI   C3A 3225   1.245  16.407   8.261  0.1130  0.0693 -0.2051
  202loPI   C4A 3226   1.242  16.459   7.858  0.0251 -0.0896 -0.1366
  202loPI   C5A 3227   1.545  16.621   7.543 -0.0733  0.0722  0.1541
  202loPI   C6A 3228   1.922  16.843   7.363 -0.4026 -0.2903 -0.0028
  202loPI   C1B 3229   0.967  15.937   9.038 -0.0305 -0.0131  0.1161
  202loPI   C2B 3230   0.962  15.968   8.640 -0.0127 -0.0605 -0.2055
  202loPI   C3B 3231   1.020  15.830   8.258 -0.2330 -0.2569 -0.3433
  202loPI   C4B 3232   1.059  15.957   7.792  0.2988  0.0866  0.1151
  203loPI    C1 3233   1.500   9.525  10.838 -0.0756 -0.0289 -0.2671
  203loPI    C2 3234   1.523   9.128  10.878  0.0750 -0.0011 -0.0604
  203loPI    C3 3235   1.480   9.358  11.202 -0.1001  0.1464 -0.1870
  203loPI   PO4 3236   1.431   9.577  10.568  0.1336 -0.2103 -0.2235
  203loPI   GL1 3237   1.361   9.749  10.141  0.1122  0.3014  0.2870
  203loPI   GL2 3238   1.179   9.425   9.958  0.0572  0.2088 -0.0228
  203loPI   C1A 3239   1.480   9.933   9.683  0.1591  0.1806 -0.0985
  203loPI   C2A 3240   1.513   9.786   9.349 -0.0492 -0.1515  0.0052
  203loPI   C3A 3241   1.337   9.744   8.954 -0.3313 -0.2588  0.1738
  203loPI   C4A 3242   1.217   9.839   8.553  0.1481 -0.0843 -0.2008
  203loPI   C5A 3243   1.470   9.968   8.216  0.1214 -0.1863 -0.2565
  203loPI   C6A 3244   1.802   9.962   7.835 -0.1886  0.0893  0.2434
  203loPI   C1B 3245   1.102   9.575   9.544 -0.0790 -0.0319 -0.1310
  203loPI   C2B 3246   1.086   9.335   9.179 -0.0928  0.1423 -0.1734
  203loPI   C3B 3247   1.159   9.365   8.684 -0.0633 -0.1096  0.0522
  203loPI   C4B 3248   1.124   9.441   8.193  0.1098  0.0365  0.0014
  204loPI    C1 3249  11.807  11.911  10.639  0.0899  0.1752 -0.0593
  204loPI    C2 3250  12.133  12.077  10.799 -0.0585  0.3081  0.1098
  204loPI    C3 3251  11.791  12.069  11.006 -0.1647  0.1753 -0.0682
  204loPI   PO4 3252  11.888  11.692  10.520  0.0764 -0.3214  0.0624
  204loPI   GL1 3253  11.909  11.689  10.102 -0.1620 -0.1916 -0.2873
  204loPI   GL2 3254  11.538  11.854  10.222  0.0751  0.2992  0.3896
  204loPI   C1A 3255  11.978  11.638   9.691 -0.3744  0.1022  0.0451
  204loPI   C2A 3256  12.071  11.514   9.240 -0.2345  0.0348  0.2254
  204loPI   C3A 3257  12.075  11.478   8.814 -0.0724  0.1362 -0.1098
  204loPI   C4A 3258  12.198  11.400   8.377 -0.0949  0.0206  0.4056
  204loPI   C5A 3259  12.591  11.351   8.079 -0.0466  0.2676 -0.1065
  204loPI   C6A 3260  13.001  11.426   7.851  0.0435  0.0605  0.2319
  204loPI   C1B 3261  11.544  11.930   9.803 -0.3161  0.1228 -0.0489
  204loPI   C2B 3262  11.671  11.883   9.355 -0.0264 -0.1347 -0.1175
  204loPI   C3B 3263  11.734  11.944   8.968  0.1340 -0.4351 -0.1108
  204loPI   C4B 3264  11.931  11.924   8.667 -0.0743  0.2488  0.2254
  205loPI    C1 3265   3.413   8.758  10.518 -0.0036 -0.0672  0.0121
  205loPI    C2 3266   3.034   8.793  10.640  0.0064  0.1721 -0.0209
  205loPI    C3 3267   3.328   8.968  10.847  0.1056 -0.0534  0.0319
  205loPI   PO4 3268   3.427   8.804  10.291 -0.0355 -0.1073  0.0948
  205loPI   GL1 3269   3.169   8.738   9.989  0.0131 -0.1699  0.4194
  205loPI   GL2 3270   2.965   8.895  10.030 -0.1342  0.2788  0.0474
  205loPI   C1A 3271   3.065   8.474   9.620 -0.3063 -0.0896 -0.0217
  205loPI   C2A 3272   3.052   8.552   9.167  0.0108  0.1225 -0.0581
  205loPI   C3A 3273   3.043   8.650   8.748 -0.3296 -0.2197  0.1066
  205loPI   C4A 3274   2.827   8.606   8.454  0.2126  0.2958 -0.0130
  205loPI   C5A 3275   2.945   8.827   8.158 -0.2459 -0.0982 -0.0265
  205loPI   C6A 3276   3.086   9.181   7.896  0.0098 -0.0770  0.1782
  205loPI   C1B 3277   3.016   8.971   9.546  0.0942 -0.1245  0.2109
  205loPI   C2B 3278   3.103   9.045   9.128 -0.0333 -0.1333  0.0702
  205loPI   C3B 3279   2.896   9.113   8.785  0.0494  0.0150  0.4247
  205loPI   C4B 3280   2.700   9.064   8.504 -0.1196  0.0592 -0.0578
  206loPI    C1 3281  10.522  13.962  10.674 -0.0824  0.2169  0.0985
  206loPI    C2 3282  10.670  13.915  11.043  0.0487  0.0164  0.0220
  206loPI    C3 3283  10.298  13.794  10.960  0.0297  0.0342  0.0807
  206loPI   PO4 3284  10.515  14.241  10.610  0.4890  0.2798 -0.0559
  206loPI   GL1 3285  10.652  14.558  10.330  0.1256  0.0394 -0.2656
  206loPI   GL2 3286  10.910  14.225  10.310 -0.2572  0.0156  0.2035
  206loPI   C1A 3287  10.652  14.455   9.861 -0.0623 -0.0679 -0.3354
  206loPI   C2A 3288  10.692  14.404   9.484  0.0946  0.0847 -0.1237
  206loPI   C3A 3289  10.354  14.306   9.149 -0.1970  0.2935  0.1490
  206loPI   C4A 3290  10.255  14.345   8.751 -0.0421  0.1536  0.1993
  206loPI   C5A 3291   9.893  14.225   8.472 -0.2719 -0.1798 -0.3314
  206loPI   C6A 3292   9.444  14.331   8.559 -0.2677  0.0323  0.0219
  206loPI   C1B 3293  10.747  13.967   9.990 -0.1060  0.0806 -0.4268
  206loPI   C2B 3294  10.864  13.874   9.595  0.0406  0.1128 -0.0002
  206loPI   C3B 3295  10.728  13.608   9.285 -0.1559  0.0430 -0.0028
  206loPI   C4B 3296  11.058  13.681   8.901 -0.2829 -0.4320 -0.1039
  207loPI    C1 3297  10.257   6.094  10.725 -0.1193  0.0553 -0.2554
  207loPI    C2 3298  10.039   6.391  10.881 -0.0536 -0.0286  0.0019
  207loPI    C3 3299  10.436   6.389  10.927 -0.0850 -0.3299  0.3014
  207loPI   PO4 3300  10.127   6.012  10.471 -0.2574  0.4000 -0.0756
  207loPI   GL1 3301  10.284   5.918  10.054 -0.0826 -0.0747 -0.0636
  207loPI   GL2 3302  10.176   6.185   9.945 -0.1598  0.0186 -0.0759
  207loPI   C1A 3303  10.312   5.704   9.632 -0.2156  0.0522  0.0400
  207loPI   C2A 3304  10.226   5.392   9.283 -0.0746  0.0692 -0.5172
  207loPI   C3A 3305  10.109   5.170   8.860  0.0053  0.1918  0.0313
  207loPI   C4A 3306  10.148   5.175   8.417  0.0212  0.1883 -0.0732
  207loPI   C5A 3307   9.911   5.253   8.046  0.0245  0.0858 -0.1397
  207loPI   C6A 3308   9.775   5.272   7.615 -0.1124 -0.0178 -0.0306
  207loPI   C1B 3309  10.249   6.220   9.609  0.0491 -0.0273  0.3351
  207loPI   C2B 3310  10.504   6.458   9.321  0.0209 -0.1393 -0.0747
  207loPI   C3B 3311  10.660   6.374   8.871  0.2912 -0.0972  0.2791
  207loPI   C4B 3312  10.885   6.311   8.501  0.0607  0.2108 -0.0258
  208loPI    C1 3313   3.548   1.698  10.377 -0.0438 -0.3930  0.1210
  208loPI    C2 3314   3.901   1.694  10.566 -0.0113 -0.1999  0.0658
  208loPI    C3 3315   3.574   1.556  10.750  0.0607 -0.2168  0.1818
  208loPI   PO4 3316   3.562   1.872  10.220  0.2089 -0.0019  0.3605
  208loPI   GL1 3317   3.820   1.962   9.859 -0.0038 -0.1665 -0.0476
  208loPI   GL2 3318   4.025   1.780   9.621 -0.0880 -0.0052  0.0263
  208loPI   C1A 3319   3.600   2.132   9.526  0.1377  0.0989 -0.3055
  208loPI   C2A 3320   3.289   2.371   9.132 -0.2654  0.0927 -0.1882
  208loPI   C3A 3321   3.433   2.374   8.713 -0.0641  0.0062  0.1470
  208loPI   C4A 3322   3.659   2.623   8.399 -0.2653  0.1404 -0.2133
  208loPI   C5A 3323   3.549   2.654   7.990 -0.1544 -0.0103 -0.3523
  208loPI   C6A 3324   3.611   2.535   7.652 -0.0725  0.1065 -0.1711
  208loPI   C1B 3325   3.951   1.935   9.218 -0.0213 -0.2847 -0.2560
  208loPI   C2B 3326   4.009   1.830   8.852 -0.2278 -0.1604  0.1083
  208loPI   C3B 3327   4.051   1.684   8.532  0.1073 -0.2239  0.0811
  208loPI   C4B 3328   4.028   1.710   8.096  0.2421  0.2470 -0.1589
  209loPI    C1 3329  11.348  17.281  10.625 -0.0364  0.1591 -0.0845
  209loPI    C2 3330  11.469  17.164  10.988 -0.0035  0.1106 -0.1111
  209loPI    C3 3331  11.168  17.424  10.953 -0.3566 -0.2805 -0.0601
  209loPI   PO4 3332  11.476  17.192  10.485 -0.2566 -0.1449 -0.1088
  209loPI   GL1 3333  11.317  16.935  10.217 -0.4723 -0.0078 -0.1054
  209loPI   GL2 3334  11.161  17.155  10.071 -0.1649 -0.1937 -0.1620
  209loPI   C1A 3335  11.428  16.720   9.758 -0.2545  0.4112 -0.1986
  209loPI   C2A 3336  11.428  16.614   9.363  0.0767 -0.0550 -0.1849
  209loPI   C3A 3337  11.344  16.912   8.934  0.0507 -0.1460 -0.1772
  209loPI   C4A 3338  11.359  17.199   8.506 -0.0067  0.0843  0.1557
  209loPI   C5A 3339  11.146  17.472   8.330 -0.3153  0.1710  0.5176
  209loPI   C6A 3340  10.873  17.754   8.117 -0.2206  0.5144  0.0250
  209loPI   C1B 3341  11.400  17.208   9.668 -0.1682  0.1876  0.1410
  209loPI   C2B 3342  11.256  17.146   9.309  0.2907 -0.0518 -0.1441
  209loPI   C3B 3343  11.199  17.387   8.929  0.1897 -0.1181 -0.0199
  209loPI   C4B 3344  11.087  17.727   8.806  0.0012 -0.1383 -0.1073
  210loPI    C1 3345   4.585  15.517  10.429  0.2210 -0.1831 -0.2927
  210loPI    C2 3346   4.527  15.272  10.118  0.1913 -0.2108 -0.2654
  210loPI    C3 3347   4.592  15.121  10.483 -0.2302 -0.1813 -0.1720
  210loPI   PO4 3348   4.412  15.760  10.329  0.2047 -0.0817  0.2931
  210loPI   GL1 3349   4.247  15.854   9.947 -0.2767  0.0395  0.1415
  210loPI   GL2 3350   4.252  15.560   9.857  0.0786  0.0505 -0.1114
  210loPI   C1A 3351   4.284  16.189   9.570 -0.0466  0.2762  0.1904
  210loPI   C2A 3352   4.386  16.221   9.153 -0.2520  0.0491 -0.1615
  210loPI   C3A 3353   4.317  16.172   8.701  0.0915 -0.0294  0.3008
  210loPI   C4A 3354   4.339  16.312   8.264 -0.0891  0.0770 -0.1505
  210loPI   C5A 3355   4.089  16.199   7.778  0.1860  0.0394  0.2895
  210loPI   C6A 3356   4.386  16.262   7.340  0.2576 -0.1429  0.0842
  210loPI   C1B 3357   4.072  15.695   9.484  0.3522 -0.0969 -0.1602
  210loPI   C2B 3358   4.005  15.752   9.044 -0.0134  0.3781  0.1501
  210loPI   C3B 3359   4.107  15.712   8.602  0.0186 -0.0950 -0.0589
  210loPI   C4B 3360   4.219  15.726   8.128  0.1697 -0.1358 -0.1072
  211loPI    C1 3361   5.181  15.376  10.429 -0.0644 -0.0206  0.1798
  211loPI    C2 3362   5.356  15.638  10.182 -0.5347  0.0406 -0.1009
  211loPI    C3 3363   5.029  15.744  10.387 -0.5031 -0.2063  0.0813
  211loPI   PO4 3364   5.125  15.174  10.323  0.0766 -0.1452  0.2359
  211loPI   GL1 3365   5.183  15.025   9.883 -0.2801 -0.1068  0.0481
  211loPI   GL2 3366   4.845  14.954   9.906  0.2195 -0.0309 -0.0621
  211loPI   C1A 3367   5.136  15.018   9.405 -0.0320 -0.1708  0.0509
  211loPI   C2A 3368   5.149  14.894   8.983 -0.0430 -0.1174 -0.0038
  211loPI   C3A 3369   5.222  14.832   8.552  0.2666  0.1514  0.1218
  211loPI   C4A 3370   5.107  14.937   8.111 -0.0898  0.2120  0.0545
  211loPI   C5A 3371   4.714  14.959   7.860 -0.0582 -0.0249 -0.1800
  211loPI   C6A 3372   4.565  14.836   7.453 -0.0309  0.2490 -0.1388
  211loPI   C1B 3373   4.698  14.795   9.585 -0.0037 -0.1558  0.3228
  211loPI   C2B 3374   4.565  14.950   9.213  0.1160  0.2854 -0.1563
  211loPI   C3B 3375   4.650  14.885   8.827  0.2020 -0.1770  0.1428
  211loPI   C4B 3376   4.691  14.992   8.371  0.0561 -0.1737  0.0357
  212loPI    C1 3377  16.684  10.304  10.207 -0.4055  0.2172 -0.0643
  212loPI    C2 3378  16.499  10.393  10.551  0.0217  0.3935  0.1267
  212loPI    C3 3379  16.788  10.116  10.544 -0.1306  0.2360 -0.1366
  212loPI   PO4 3380  16.719  10.548  10.090 -0.3936  0.4269 -0.2116
  212loPI   GL1 3381  16.911  10.388   9.736 -0.1625  0.0390  0.1614
  212loPI   GL2 3382  16.688  10.183   9.668  0.1788  0.1679 -0.1274
  212loPI   C1A 3383  16.718  10.691   9.432 -0.0040  0.1152  0.1012
  212loPI   C2A 3384  16.642  10.773   9.015 -0.0236 -0.1160  0.0354
  212loPI   C3A 3385  16.596  10.687   8.519 -0.1218  0.1332  0.2403
  212loPI   C4A 3386  16.598  10.575   8.185  0.1609 -0.1438  0.0401
  212loPI   C5A 3387  16.775  10.613   7.750 -0.0670  0.2382  0.0908
  212loPI   C6A 3388  16.834  10.298   7.388 -0.1682  0.0291  0.1465
  212loPI   C1B 3389  16.595  10.117   9.281  0.1398 -0.2542 -0.0126
  212loPI   C2B 3390  16.498  10.275   8.890  0.0470 -0.1055  0.1495
  212loPI   C3B 3391  16.435  10.197   8.440 -0.3335  0.1210  0.0638
  212loPI   C4B 3392  16.430  10.148   7.900  0.2970  0.3112 -0.0370
  213loPI    C1 3393  12.274   3.558  10.801 -0.1197 -0.2188 -0.0087
  213loPI    C2 3394  12.674   3.552  10.788 -0.1158  0.0391 -0.0682
  213loPI    C3 3395  12.484   3.476  11.132 -0.0178 -0.1196 -0.0481
  213loPI   PO4 3396  12.208   3.384  10.661 -0.1718  0.0550 -0.3009
  213loPI   GL1 3397  12.402   3.328  10.296  0.1496 -0.1213 -0.0343
  213loPI   GL2 3398  12.130   3.442  10.065  0.0737 -0.1110  0.1522
  213loPI   C1A 3399  12.595   3.268   9.851 -0.1560 -0.0169 -0.1732
  213loPI   C2A 3400  12.788   3.217   9.501 -0.0968  0.0292  0.2380
  213loPI   C3A 3401  12.719   3.293   9.116  0.1070  0.1921  0.0348
  213loPI   C4A 3402  12.681   3.286   8.825 -0.2436 -0.0265  0.2768
  213loPI   C5A 3403  12.721   3.195   8.408 -0.2214 -0.0390  0.3895
  213loPI   C6A 3404  12.916   3.144   8.005 -0.2000 -0.0895  0.1456
  213loPI   C1B 3405  12.157   3.502   9.647  0.0593 -0.1560 -0.2499
  213loPI   C2B 3406  12.272   3.398   9.261 -0.0177 -0.1654 -0.0010
  213loPI   C3B 3407  12.097   3.193   8.895  0.2147 -0.1052  0.1607
  213loPI   C4B 3408  11.996   2.801   8.590 -0.0460 -0.1936  0.0036
  214loPI    C1 3409  11.423  18.347  10.619  0.0634 -0.2399  0.0472
  214loPI    C2 3410  11.332  18.105  10.924 -0.1225 -0.2017  0.0234
  214loPI    C3 3411  11.503  18.459  10.995 -0.3482 -0.1065  0.1004
  214loPI   PO4 3412  11.286  18.293  10.450  0.2317 -0.0508 -0.2944
  214loPI   GL1 3413  10.988  18.285  10.102 -0.0633  0.1721  0.2132
  214loPI   GL2 3414  10.639  18.392   9.964 -0.0715 -0.0018 -0.1672
  214loPI   C1A 3415  11.204  18.524   9.827 -0.0768 -0.0771 -0.1233
  214loPI   C2A 3416  11.299  18.658   9.442 -0.0610  0.2076 -0.0029
  214loPI   C3A 3417  11.537  18.650   9.018  0.2622 -0.1861  0.4138
  214loPI   C4A 3418  11.497  18.581   8.533 -0.1778 -0.2129 -0.0909
  214loPI   C5A 3419  11.578  18.354   8.165 -0.1806 -0.1903  0.2262
  214loPI   C6A 3420  11.664  17.958   8.147 -0.0525 -0.1810 -0.0911
  214loPI   C1B 3421  10.375  18.152   9.495 -0.0770 -0.1952  0.2458
  214loPI   C2B 3422  10.322  18.284   9.030  0.3147 -0.0209  0.3121
  214loPI   C3B 3423  10.223  18.267   8.622  0.0628  0.0827  0.1159
  214loPI   C4B 3424  10.327  17.990   8.265  0.0538 -0.1023  0.1947
  215loPI    C1 3425   8.978  10.175  10.845  0.1920 -0.0008  0.1726
  215loPI    C2 3426   8.594  10.092  10.916  0.1866 -0.0471  0.0902
  215loPI    C3 3427   8.705  10.467  10.834  0.1821 -0.0062  0.2672
  215loPI   PO4 3428   9.053   9.956  10.735  0.1226  0.2553  0.0487
  215loPI   GL1 3429   9.260   9.808  10.414 -0.0531 -0.0122  0.0393
  215loPI   GL2 3430   9.065   9.995  10.240  0.1220  0.1514 -0.0284
  215loPI   C1A 3431   9.432   9.759   9.996  0.3426  0.0218  0.1037
  215loPI   C2A 3432   9.506   9.636   9.602 -0.0857 -0.3125  0.2008
  215loPI   C3A 3433   9.428   9.517   9.132  0.0569  0.0113 -0.0574
  215loPI   C4A 3434   9.508   9.486   8.698  0.0988  0.1100  0.3480
  215loPI   C5A 3435   9.278   9.571   8.285  0.0024  0.1743  0.0162
  215loPI   C6A 3436   8.855   9.696   8.244 -0.0761 -0.1223 -0.2156
  215loPI   C1B 3437   8.996   9.992   9.800  0.1544 -0.0094 -0.2592
  215loPI   C2B 3438   9.190  10.038   9.376  0.0085  0.1572 -0.1186
  215loPI   C3B 3439   9.250   9.947   8.975 -0.1329 -0.1308  0.2275
  215loPI   C4B 3440   9.277  10.006   8.548  0.0761  0.2608 -0.1632
  216loPI    C1 3441  12.747   8.152  10.698  0.0529  0.0302  0.0979
  216loPI    C2 3442  12.896   8.011  11.041  0.0735  0.0181  0.0839
  216loPI    C3 3443  12.588   7.825  10.866 -0.1294  0.1940  0.2487
  216loPI   PO4 3444  12.937   8.249  10.562 -0.1279 -0.0774  0.3034
  216loPI   GL1 3445  12.829   8.470  10.263  0.4289 -0.2266 -0.3643
  216loPI   GL2 3446  12.589   8.520  10.065 -0.1178  0.3238  0.1149
  216loPI   C1A 3447  13.081   8.510   9.824 -0.2944  0.1089  0.2048
  216loPI   C2A 3448  13.003   8.523   9.406  0.1560 -0.1433  0.4256
  216loPI   C3A 3449  12.972   8.318   9.006 -0.3358  0.1118  0.0150
  216loPI   C4A 3450  13.037   8.055   8.676  0.1858  0.3009 -0.1896
  216loPI   C5A 3451  12.974   7.970   8.212  0.1719 -0.0433  0.4554
  216loPI   C6A 3452  13.093   8.129   7.946 -0.1810 -0.2221 -0.0291
  216loPI   C1B 3453  12.606   8.496   9.639  0.4277 -0.1852 -0.1893
  216loPI   C2B 3454  12.375   8.464   9.184  0.1529  0.2822 -0.2048
  216loPI   C3B 3455  12.047   8.322   9.069 -0.4340 -0.3006  0.0471
  216loPI   C4B 3456  11.694   8.098   9.022 -0.0413 -0.3029 -0.1783
  217loPI    C1 3457  10.727   3.518  10.660  0.0170  0.0894 -0.0706
  217loPI    C2 3458  10.571   3.868  10.775  0.0059  0.0709 -0.0296
  217loPI    C3 3459  10.673   3.595  11.049  0.1802  0.1125 -0.0518
  217loPI   PO4 3460  10.821   3.661  10.411  0.0908 -0.2399  0.2817
  217loPI   GL1 3461  10.876   3.780  10.048  0.1083 -0.0731 -0.0371
  217loPI   GL2 3462  10.798   4.181   9.923 -0.1287  0.1619  0.1804
  217loPI   C1A 3463  10.730   3.539   9.667 -0.0021  0.1976  0.2663
  217loPI   C2A 3464  10.756   3.466   9.275 -0.1785 -0.3008  0.1722
  217loPI   C3A 3465  10.856   3.646   8.847 -0.0164 -0.3737  0.1296
  217loPI   C4A 3466  10.825   3.944   8.517  0.0536  0.0886 -0.0762
  217loPI   C5A 3467  10.750   3.933   8.004 -0.0340 -0.0593  0.0447
  217loPI   C6A 3468  10.716   3.711   7.659 -0.0501  0.2936 -0.0443
  217loPI   C1B 3469  10.752   4.097   9.525 -0.2240 -0.1180  0.2749
  217loPI   C2B 3470  10.556   3.937   9.144 -0.2715  0.2363 -0.1807
  217loPI   C3B 3471  10.362   4.006   8.773 -0.0084 -0.0490 -0.2481
  217loPI   C4B 3472  10.323   4.036   8.268 -0.2491  0.4470  0.1106
  218loPI    C1 3473   3.168  12.483  10.368 -0.1111 -0.1804 -0.1894
  218loPI    C2 3474   3.276  12.185  10.612  0.0017  0.0083 -0.0054
  218loPI    C3 3475   2.979  12.432  10.717  0.0217  0.0638 -0.0788
  218loPI   PO4 3476   3.077  12.336  10.096 -0.3381  0.2609  0.1809
  218loPI   GL1 3477   2.868  12.423   9.741  0.2445  0.2854 -0.0150
  218loPI   GL2 3478   2.811  12.718   9.838 -0.0495 -0.0393  0.0094
  218loPI   C1A 3479   2.738  12.347   9.343 -0.0249 -0.2028  0.1129
  218loPI   C2A 3480   2.714  12.384   8.943  0.1704 -0.0518  0.1235
  218loPI   C3A 3481   2.806  12.547   8.543  0.1579 -0.1823 -0.1870
  218loPI   C4A 3482   2.903  12.430   8.103 -0.2407  0.0980 -0.0268
  218loPI   C5A 3483   2.604  12.510   7.776  0.1844  0.1420 -0.0915
  218loPI   C6A 3484   2.605  12.792   7.354  0.1891  0.1836 -0.3470
  218loPI   C1B 3485   2.951  12.783   9.357 -0.0173  0.1597 -0.2611
  218loPI   C2B 3486   3.032  12.917   8.981  0.0360  0.0035 -0.0214
  218loPI   C3B 3487   3.152  12.937   8.584  0.0949  0.1040  0.2112
  218loPI   C4B 3488   3.119  12.834   8.154 -0.3728  0.2451 -0.0662
  219loPI    C1 3489  13.780   0.213  10.315  0.0406 -0.1807 -0.0510
  219loPI    C2 3490  14.010   0.447  10.545  0.1133 -0.1521 -0.1524
  219loPI    C3 3491  13.623   0.400  10.632  0.2051 -0.3784  0.1501
  219loPI   PO4 3492  13.938   0.222  10.090  0.0220  0.1593 -0.0475
  219loPI   GL1 3493  13.915   0.480   9.692 -0.1863  0.0191  0.2073
  219loPI   GL2 3494  13.837   0.178   9.599 -0.1388  0.3378 -0.2850
  219loPI   C1A 3495  14.209   0.605   9.510  0.1872 -0.3378  0.1625
  219loPI   C2A 3496  14.512   0.841   9.151 -0.0528 -0.0373 -0.0027
  219loPI   C3A 3497  14.682   0.704   8.756 -0.2056 -0.1778  0.0475
  219loPI   C4A 3498  14.887   0.593   8.474  0.1115  0.1614 -0.0854
  219loPI   C5A 3499  15.105   0.718   7.959  0.0274  0.1980  0.1032
  219loPI   C6A 3500  15.098   0.740   7.533  0.0597 -0.1006 -0.2670
  219loPI   C1B 3501  13.815   0.027   9.175 -0.2126  0.0251  0.2365
  219loPI   C2B 3502  13.878   0.004   8.731 -0.4299 -0.0600 -0.0807
  219loPI   C3B 3503  14.007  -0.046   8.271  0.1025  0.1055 -0.1667
  219loPI   C4B 3504  14.213   0.129   7.957  0.1644 -0.0972  0.2660
  220loPI    C1 3505   7.696   3.744  10.573  0.1943  0.1736 -0.0463
  220loPI    C2 3506   7.541   3.917  10.899 -0.0636  0.1879 -0.1733
  220loPI    C3 3507   7.709   3.555  10.925  0.0027  0.2294 -0.0077
  220loPI   PO4 3508   7.738   3.878  10.397 -0.2327  0.2331 -0.0707
  220loPI   GL1 3509   7.800   3.904   9.966  0.1207  0.0950  0.0103
  220loPI   GL2 3510   8.180   3.772   9.825  0.1665 -0.2702 -0.2008
  220loPI   C1A 3511   7.656   4.292   9.633  0.1203 -0.1435  0.5920
  220loPI   C2A 3512   7.526   4.716   9.428 -0.1213 -0.2271 -0.0916
  220loPI   C3A 3513   7.333   4.795   9.079  0.0605 -0.2714  0.0926
  220loPI   C4A 3514   7.329   4.761   8.687  0.1258 -0.0277  0.3174
  220loPI   C5A 3515   7.319   4.832   8.346 -0.0640  0.1700 -0.1741
  220loPI   C6A 3516   7.415   4.754   7.903 -0.1172  0.1322  0.0292
  220loPI   C1B 3517   8.229   3.650   9.466  0.0765 -0.4892 -0.0614
  220loPI   C2B 3518   8.238   3.721   9.023  0.1890 -0.0573 -0.2079
  220loPI   C3B 3519   8.130   3.693   8.565  0.0377 -0.0894 -0.2555
  220loPI   C4B 3520   8.078   3.511   8.238  0.1239  0.0544  0.0896
  221loPI    C1 3521   0.603   4.590   9.947 -0.0891  0.0793 -0.0400
  221loPI    C2 3522   0.666   4.252  10.152 -0.0570  0.0386 -0.1161
  221loPI    C3 3523   0.864   4.586  10.251  0.1189 -0.0348 -0.2174
  221loPI   PO4 3524   0.413   4.635   9.930  0.0762  0.1320 -0.0477
  221loPI   GL1 3525   0.255   4.600   9.614 -0.1821 -0.0750  0.2410
  221loPI   GL2 3526   0.304   4.496   9.405 -0.1958  0.1549  0.0776
  221loPI   C1A 3527   0.397   5.008   9.347  0.0458 -0.0300 -0.1620
  221loPI   C2A 3528   0.383   5.040   8.974  0.2136 -0.4297  0.1061
  221loPI   C3A 3529   0.468   5.206   8.645 -0.0837  0.1469 -0.2138
  221loPI   C4A 3530   0.513   5.231   8.282  0.1144  0.0983  0.0897
  221loPI   C5A 3531   0.386   5.436   7.927 -0.0788 -0.0863  0.0368
  221loPI   C6A 3532   0.104   5.668   7.685  0.0237 -0.0756  0.2654
  221loPI   C1B 3533   0.298   4.477   8.946  0.2609 -0.1415 -0.4008
  221loPI   C2B 3534   0.372   4.658   8.624 -0.4486  0.1818  0.1369
  221loPI   C3B 3535   0.586   4.695   8.204 -0.0762 -0.0055  0.1837
  221loPI   C4B 3536   0.997   4.764   7.928  0.3340  0.0313 -0.1187
  222loPI    C1 3537   6.483  16.970  10.456  0.0581 -0.0133 -0.0023
  222loPI    C2 3538   6.760  16.771  10.663 -0.0751  0.0090  0.2007
  222loPI    C3 3539   6.435  16.911  10.848 -0.1629  0.0905 -0.0118
  222loPI   PO4 3540   6.547  16.815  10.210  0.2284 -0.0266  0.2115
  222loPI   GL1 3541   6.341  16.785   9.795 -0.2562  0.1760 -0.1303
  222loPI   GL2 3542   5.952  16.743   9.789  0.0170  0.1247 -0.0453
  222loPI   C1A 3543   6.231  16.849   9.421  0.4607 -0.1052 -0.1835
  222loPI   C2A 3544   6.044  16.819   9.044 -0.1707  0.1620  0.3238
  222loPI   C3A 3545   6.111  16.732   8.612  0.1055 -0.0405 -0.1564
  222loPI   C4A 3546   6.113  16.783   8.148 -0.3822  0.0198 -0.0109
  222loPI   C5A 3547   6.304  16.565   7.893 -0.3887  0.0988 -0.1878
  222loPI   C6A 3548   6.172  16.329   7.675  0.0655  0.3496 -0.0216
  222loPI   C1B 3549   5.713  16.731   9.483  0.4065  0.0341 -0.0007
  222loPI   C2B 3550   5.553  16.801   9.057  0.0475 -0.0638 -0.0274
  222loPI   C3B 3551   5.578  16.709   8.628 -0.0169  0.1594 -0.0308
  222loPI   C4B 3552   5.573  16.744   8.142 -0.2227 -0.2368 -0.0014
  223loPI    C1 3553   3.977  10.528  10.362  0.0956  0.1285  0.0235
  223loPI    C2 3554   3.837  10.442  10.726 -0.0578  0.0807 -0.0460
  223loPI    C3 3555   4.069  10.179  10.534 -0.2374 -0.0315 -0.1126
  223loPI   PO4 3556   4.110  10.754  10.393  0.1545  0.0918 -0.1995
  223loPI   GL1 3557   4.296  10.976  10.092 -0.2229 -0.0423  0.1287
  223loPI   GL2 3558   4.652  11.127  10.090  0.0939  0.0977  0.1590
  223loPI   C1A 3559   4.175  10.970   9.693  0.1470 -0.0973  0.1165
  223loPI   C2A 3560   4.315  10.819   9.352  0.0417  0.0837  0.0832
  223loPI   C3A 3561   4.329  10.885   8.981  0.3034  0.0174  0.0924
  223loPI   C4A 3562   4.222  10.859   8.633  0.3830 -0.2471  0.3613
  223loPI   C5A 3563   4.232  11.160   8.149  0.2027 -0.1856  0.1246
  223loPI   C6A 3564   4.219  11.612   8.147 -0.1731  0.0542 -0.1474
  223loPI   C1B 3565   4.697  10.995   9.668 -0.2947  0.0869  0.1755
  223loPI   C2B 3566   4.770  10.960   9.250  0.0905  0.3894  0.2875
  223loPI   C3B 3567   4.605  11.262   8.926  0.0196 -0.1246 -0.1616
  223loPI   C4B 3568   4.553  11.301   8.507  0.0320  0.3235  0.1594
  224loPI    C1 3569  15.357   3.691  10.458 -0.0086  0.0075  0.1048
  224loPI    C2 3570  15.639   3.947  10.584  0.0449  0.0512 -0.0999
  224loPI    C3 3571  15.572   3.607  10.785  0.3145 -0.0081 -0.1065
  224loPI   PO4 3572  15.347   3.727  10.201  0.0933 -0.0200  0.1216
  224loPI   GL1 3573  15.174   3.726   9.818  0.0126 -0.0578 -0.2545
  224loPI   GL2 3574  15.371   3.537   9.583 -0.1428  0.1604 -0.0032
  224loPI   C1A 3575  15.048   3.985   9.458  0.0323  0.1582  0.0354
  224loPI   C2A 3576  15.126   4.050   9.038 -0.1487  0.0010 -0.0551
  224loPI   C3A 3577  15.085   4.008   8.657 -0.1189  0.3622  0.2616
  224loPI   C4A 3578  14.893   3.812   8.230  0.0088 -0.1427  0.0429
  224loPI   C5A 3579  14.454   3.609   8.114 -0.0601 -0.0643  0.1205
  224loPI   C6A 3580  14.243   3.214   8.041  0.0935 -0.2149 -0.0592
  224loPI   C1B 3581  15.587   3.853   9.433  0.1101  0.1223  0.0544
  224loPI   C2B 3582  15.722   4.226   9.140 -0.1210 -0.0188 -0.1179
  224loPI   C3B 3583  15.559   4.288   8.666 -0.2854  0.0696 -0.0580
  224loPI   C4B 3584  15.529   4.033   8.389 -0.1788 -0.1286  0.3247
  225loPI    C1 3585  12.270   7.001  10.025 -0.0098  0.1365  0.1660
  225loPI    C2 3586  12.370   7.044  10.410  0.1134  0.2666  0.1205
  225loPI    C3 3587  12.650   7.078  10.125  0.1294 -0.3571  0.0468
  225loPI   PO4 3588  12.040   6.902  10.067 -0.4564  0.1942  0.2136
  225loPI   GL1 3589  11.874   6.855   9.712 -0.1769  0.0326  0.1948
  225loPI   GL2 3590  11.937   6.666   9.579  0.1441  0.2676 -0.2948
  225loPI   C1A 3591  11.782   7.206   9.361 -0.1037  0.0775 -0.1094
  225loPI   C2A 3592  11.753   7.508   8.925  0.0408  0.0818 -0.0403
  225loPI   C3A 3593  11.572   7.710   8.518 -0.0284  0.2429 -0.1700
  225loPI   C4A 3594  11.718   7.826   8.115  0.0165  0.0582 -0.2826
  225loPI   C5A 3595  11.596   8.105   7.881  0.2206  0.0902 -0.0546
  225loPI   C6A 3596  11.468   8.486   7.728  0.0662  0.0975 -0.1876
  225loPI   C1B 3597  12.126   6.849   9.220 -0.0736  0.0319  0.2348
  225loPI   C2B 3598  12.111   6.953   8.818  0.0925 -0.1835  0.1107
  225loPI   C3B 3599  12.238   6.622   8.489  0.0916  0.1519  0.0973
  225loPI   C4B 3600  12.284   6.577   8.095 -0.0189 -0.0996 -0.0330
  226loPI    C1 3601  12.128   0.543  11.009 -0.0227 -0.0109  0.0928
  226loPI    C2 3602  11.965   0.191  11.109  0.2845 -0.0950  0.3132
  226loPI    C3 3603  11.886   0.517  11.327 -0.0961  0.0032  0.0383
  226loPI   PO4 3604  12.146   0.528  10.706  0.1403 -0.1563  0.0652
  226loPI   GL1 3605  11.917   0.665  10.321  0.0408  0.0475 -0.0658
  226loPI   GL2 3606  12.018   0.425  10.196  0.0050 -0.1168  0.1839
  226loPI   C1A 3607  11.869   1.026  10.135 -0.1555 -0.0552 -0.0139
  226loPI   C2A 3608  11.703   1.308   9.874  0.2985 -0.1551  0.0137
  226loPI   C3A 3609  11.444   1.226   9.494  0.2175  0.2399  0.0167
  226loPI   C4A 3610  11.467   1.314   9.159  0.0096  0.1959 -0.1044
  226loPI   C5A 3611  11.883   1.261   8.851 -0.1821 -0.2057 -0.2762
  226loPI   C6A 3612  12.031   1.145   8.467 -0.0407  0.0661  0.1606
  226loPI   C1B 3613  12.200   0.234   9.931 -0.1145 -0.2178 -0.1896
  226loPI   C2B 3614  12.320   0.277   9.462 -0.3240  0.0348  0.1787
  226loPI   C3B 3615  12.126   0.189   9.120 -0.0072  0.1371 -0.1426
  226loPI   C4B 3616  11.995   0.115   8.707  0.2329  0.0861 -0.2345
  227loPI    C1 3617  18.246   5.897  10.233  0.0287 -0.1086  0.2815
  227loPI    C2 3618  18.223   5.498  10.207  0.1721 -0.1019  0.0137
  227loPI    C3 3619  17.904   5.710  10.321  0.0379 -0.2791 -0.0287
  227loPI   PO4 3620  18.325   6.013   9.970  0.0449 -0.2089  0.2311
  227loPI   GL1 3621  18.167   6.272   9.686 -0.1331  0.5253  0.0472
  227loPI   GL2 3622  18.372   5.939   9.511  0.0071 -0.0801 -0.1575
  227loPI   C1A 3623  18.082   6.220   9.197 -0.1082  0.1778 -0.2938
  227loPI   C2A 3624  17.755   6.132   9.058 -0.1199 -0.0722 -0.0297
  227loPI   C3A 3625  17.555   6.193   8.616  0.0374  0.0983 -0.0829
  227loPI   C4A 3626  17.642   6.470   8.363 -0.0257  0.2351 -0.3116
  227loPI   C5A 3627  17.623   6.601   7.866 -0.1476  0.1561  0.3125
  227loPI   C6A 3628  17.407   6.934   7.613  0.1060 -0.0671  0.0362
  227loPI   C1B 3629  18.645   5.876   9.121 -0.5411  0.0278 -0.1726
  227loPI   C2B 3630  18.672   6.030   8.631 -0.4552 -0.0058 -0.1684
  227loPI   C3B 3631  18.392   6.194   8.333  0.0387 -0.1510  0.2700
  227loPI   C4B 3632  18.151   6.366   8.126  0.0951 -0.0288 -0.0756
  228loPI    C1 3633   6.262   9.157  10.251  0.1677  0.1852  0.0009
  228loPI    C2 3634   6.340   9.395  10.562 -0.0256  0.0418  0.1616
  228loPI    C3 3635   6.092   9.084  10.605 -0.1229  0.0715 -0.1586
  228loPI   PO4 3636   6.322   9.262  10.061 -0.0511  0.2686  0.2027
  228loPI   GL1 3637   6.613   9.371   9.701 -0.0833 -0.1848  0.0272
  228loPI   GL2 3638   6.879   9.462   9.864 -0.1089 -0.0602 -0.1259
  228loPI   C1A 3639   6.458   9.272   9.320  0.1063 -0.2673  0.5627
  228loPI   C2A 3640   6.453   9.194   8.800 -0.1936  0.0532 -0.1654
  228loPI   C3A 3641   6.813   8.967   8.602 -0.0253 -0.0776 -0.0142
  228loPI   C4A 3642   6.958   9.079   8.174 -0.1570  0.0571 -0.0794
  228loPI   C5A 3643   6.778   9.348   7.841  0.0455  0.1948 -0.0488
  228loPI   C6A 3644   6.511   9.520   7.533 -0.1334 -0.0516 -0.1092
  228loPI   C1B 3645   6.964   9.784   9.607  0.0992  0.3583 -0.0356
  228loPI   C2B 3646   7.124   9.819   9.281 -0.0275  0.1963  0.0974
  228loPI   C3B 3647   7.147   9.833   8.912 -0.1299 -0.2091  0.0410
  228loPI   C4B 3648   7.266  10.056   8.612 -0.1801  0.2606  0.2929
  229loPI    C1 3649  16.945  13.133  10.317  0.1027  0.1898 -0.1491
  229loPI    C2 3650  16.661  13.248  10.573  0.0889  0.1626 -0.1521
  229loPI    C3 3651  17.036  13.194  10.701  0.0433 -0.0336 -0.0980
  229loPI   PO4 3652  16.819  12.979  10.105 -0.1592  0.0786 -0.0028
  229loPI   GL1 3653  16.896  12.925   9.676  0.3182 -0.1428  0.1347
  229loPI   GL2 3654  16.580  13.067   9.585 -0.1837 -0.4509  0.2978
  229loPI   C1A 3655  17.291  12.963   9.420 -0.3590  0.2313  0.0112
  229loPI   C2A 3656  17.340  12.878   8.971  0.2660  0.2121  0.0635
  229loPI   C3A 3657  17.385  12.848   8.532  0.1529 -0.1166 -0.0879
  229loPI   C4A 3658  17.231  13.045   8.207 -0.1690 -0.0417  0.0389
  229loPI   C5A 3659  17.263  12.926   7.845 -0.1446 -0.1455  0.0220
  229loPI   C6A 3660  17.415  12.573   7.535  0.4003 -0.0080 -0.2598
  229loPI   C1B 3661  16.840  13.156   9.196  0.3705  0.1810  0.0834
  229loPI   C2B 3662  16.734  13.405   8.814  0.0725 -0.1146 -0.0569
  229loPI   C3B 3663  16.696  13.457   8.419  0.1940  0.3290 -0.1311
  229loPI   C4B 3664  16.513  13.487   8.079  0.0260  0.3708  0.2837
  230loPI    C1 3665   6.694   1.318  10.527  0.2206 -0.1139 -0.0413
  230loPI    C2 3666   6.745   1.127  10.875  0.4387 -0.0947 -0.0613
  230loPI    C3 3667   6.811   1.521  10.851 -0.0899  0.0058 -0.0003
  230loPI   PO4 3668   6.517   1.185  10.401  0.2768 -0.0640 -0.2414
  230loPI   GL1 3669   6.329   1.388  10.098 -0.1304 -0.2515 -0.0294
  230loPI   GL2 3670   6.001   1.370  10.011 -0.0264 -0.0482  0.1265
  230loPI   C1A 3671   6.290   1.467   9.604 -0.0180  0.0681  0.2205
  230loPI   C2A 3672   6.266   1.516   9.101  0.0079  0.2985  0.2955
  230loPI   C3A 3673   6.046   1.405   8.733 -0.0662 -0.2638  0.3654
  230loPI   C4A 3674   5.753   1.237   8.397  0.1468  0.2868 -0.3700
  230loPI   C5A 3675   5.635   1.444   8.021 -0.0140  0.1204 -0.0029
  230loPI   C6A 3676   5.667   1.918   7.885 -0.1822 -0.3199 -0.0516
  230loPI   C1B 3677   5.801   1.535   9.577  0.1523 -0.3031  0.0310
  230loPI   C2B 3678   5.752   1.585   9.113  0.0671 -0.1380  0.1091
  230loPI   C3B 3679   5.583   1.584   8.689 -0.0044 -0.0796  0.1266
  230loPI   C4B 3680   5.150   1.529   8.485 -0.1227 -0.0713 -0.0539
  231loPI    C1 3681  12.578   3.082  10.719  0.1162 -0.0079  0.1620
  231loPI    C2 3682  12.678   3.041  11.104  0.0254  0.0718  0.1945
  231loPI    C3 3683  12.307   2.953  10.983  0.0563  0.0385  0.1234
  231loPI   PO4 3684  12.679   2.924  10.526 -0.0627 -0.0022  0.0783
  231loPI   GL1 3685  12.883   3.060  10.198  0.0208  0.0165 -0.0497
  231loPI   GL2 3686  12.983   3.399  10.196  0.1001 -0.0619  0.3475
  231loPI   C1A 3687  12.943   2.780   9.755  0.2073 -0.1995 -0.0227
  231loPI   C2A 3688  13.079   2.789   9.365 -0.1702 -0.1778 -0.3229
  231loPI   C3A 3689  13.054   2.867   9.024  0.0388 -0.0949  0.1686
  231loPI   C4A 3690  12.986   2.854   8.667 -0.1363 -0.2366 -0.2686
  231loPI   C5A 3691  12.750   2.647   8.325  0.3580 -0.3477  0.0423
  231loPI   C6A 3692  12.813   2.205   8.155  0.3993 -0.3334  0.0718
  231loPI   C1B 3693  13.061   3.510   9.728  0.1538  0.0975 -0.4210
  231loPI   C2B 3694  13.140   3.743   9.370  0.3441  0.1462  0.0109
  231loPI   C3B 3695  13.300   3.887   8.980  0.0616 -0.2170  0.1163
  231loPI   C4B 3696  13.456   3.908   8.607  0.2633 -0.2293 -0.0583
  232loPI    C1 3697   6.687   0.352  10.672 -0.0153 -0.0324  0.0113
  232loPI    C2 3698   6.509   0.080  10.905 -0.1408  0.1007  0.0727
  232loPI    C3 3699   6.304   0.254  10.609 -0.0081 -0.0018 -0.0810
  232loPI   PO4 3700   6.873   0.312  10.545 -0.0535  0.1865 -0.0666
  232loPI   GL1 3701   7.073   0.346  10.146  0.4315  0.1834  0.2421
  232loPI   GL2 3702   7.248   0.405   9.879 -0.2127 -0.2672  0.0149
  232loPI   C1A 3703   6.842   0.114   9.749 -0.0398  0.2117  0.3153
  232loPI   C2A 3704   6.578  -0.240   9.599 -0.1522 -0.0545  0.1775
  232loPI   C3A 3705   6.453  -0.373   9.183 -0.2488  0.1053  0.0431
  232loPI   C4A 3706   6.260  -0.387   8.790  0.0303 -0.0210 -0.0539
  232loPI   C5A 3707   6.104  -0.206   8.530 -0.2603  0.1664 -0.0852
  232loPI   C6A 3708   6.058  -0.006   8.122 -0.2014 -0.0516  0.0661
  232loPI   C1B 3709   7.193   0.228   9.465  0.1521  0.0545  0.2550
  232loPI   C2B 3710   7.059   0.329   9.042  0.0764 -0.1694 -0.2218
  232loPI   C3B 3711   6.972   0.178   8.558 -0.3305  0.0039 -0.0874
  232loPI   C4B 3712   7.236   0.257   8.116  0.1598  0.1119 -0.0841
  233loPI    C1 3713  18.283   5.044  10.095  0.0107 -0.0708  0.1007
  233loPI    C2 3714  18.423   4.690   9.970  0.0750 -0.0721  0.1761
  233loPI    C3 3715  18.542   4.840  10.322  0.2759  0.1618  0.0122
  233loPI   PO4 3716  18.256   5.151   9.816 -0.2982 -0.0209 -0.1170
  233loPI   GL1 3717  18.438   4.921   9.478  0.0807  0.0780  0.0788
  233loPI   GL2 3718  18.555   5.234   9.456 -0.0838 -0.1156  0.1641
  233loPI   C1A 3719  18.505   4.779   9.074  0.3188  0.2849  0.3296
  233loPI   C2A 3720  18.563   4.997   8.655 -0.0690 -0.2143  0.0948
  233loPI   C3A 3721  18.623   5.124   8.255  0.1066 -0.3607 -0.0281
  233loPI   C4A 3722  18.431   5.231   7.950  0.1370 -0.0462  0.0247
  233loPI   C5A 3723  18.242   5.478   7.594  0.0724 -0.0897  0.1731
  233loPI   C6A 3724  17.989   5.751   7.498 -0.2855 -0.2533 -0.1710
  233loPI   C1B 3725  18.598   5.344   9.033  0.1097 -0.1867  0.0394
  233loPI   C2B 3726  18.612   5.512   8.588 -0.0965 -0.0305 -0.1967
  233loPI   C3B 3727  18.371   5.593   8.252 -0.0989  0.1985  0.2070
  233loPI   C4B 3728  18.262   5.952   7.877 -0.1244  0.0585  0.0014
  234loPI    C1 3729   7.226   3.966  10.472  0.0513  0.0224 -0.2199
  234loPI    C2 3730   7.488   4.257  10.552 -0.0552  0.1186 -0.2189
  234loPI    C3 3731   7.151   4.226  10.767 -0.0291 -0.0251 -0.1980
  234loPI   PO4 3732   7.224   3.970  10.231  0.0276  0.2149 -0.2146
  234loPI   GL1 3733   7.271   3.825   9.710  0.2890  0.1191  0.3171
  234loPI   GL2 3734   7.159   3.583   9.563 -0.0517 -0.0209 -0.3299
  234loPI   C1A 3735   7.640   3.807   9.379  0.0428  0.0195  0.0885
  234loPI   C2A 3736   7.696   3.832   8.916  0.2236 -0.1055 -0.0786
  234loPI   C3A 3737   7.582   3.722   8.561 -0.2686  0.1664 -0.1521
  234loPI   C4A 3738   7.588   3.834   8.125 -0.1283  0.2660  0.0155
  234loPI   C5A 3739   7.894   3.768   7.834 -0.1779  0.1184  0.3868
  234loPI   C6A 3740   7.910   3.514   7.458 -0.3707 -0.2835 -0.0977
  234loPI   C1B 3741   7.372   3.486   9.147 -0.1754 -0.3266  0.0654
  234loPI   C2B 3742   7.322   3.353   8.775 -0.1838  0.0936  0.0908
  234loPI   C3B 3743   7.187   3.409   8.463 -0.1020  0.1591 -0.0786
  234loPI   C4B 3744   7.125   3.612   8.042 -0.3307 -0.3341  0.3450
  235loPI    C1 3745   9.455  10.911  10.549 -0.0802 -0.1381  0.1519
  235loPI    C2 3746   9.157  10.832  10.804 -0.0377 -0.4697  0.1040
  235loPI    C3 3747   9.509  10.963  10.942 -0.2360  0.0347  0.1514
  235loPI   PO4 3748   9.452  10.733  10.245  0.2961 -0.0787  0.0401
  235loPI   GL1 3749   9.634  10.904   9.802  0.0765 -0.2473  0.0859
  235loPI   GL2 3750   9.784  11.089  10.074  0.1965 -0.2868  0.0052
  235loPI   C1A 3751   9.665  11.048   9.433  0.0475  0.1628 -0.2690
  235loPI   C2A 3752   9.714  11.085   8.994 -0.0472  0.1377  0.4444
  235loPI   C3A 3753   9.743  11.149   8.525 -0.1129  0.1196  0.0791
  235loPI   C4A 3754   9.932  11.439   8.100  0.0111  0.0391 -0.1887
  235loPI   C5A 3755  10.466  11.533   8.093 -0.0038  0.3130 -0.1169
  235loPI   C6A 3756  10.767  11.819   7.789  0.2042  0.2914 -0.3939
  235loPI   C1B 3757  10.121  11.024   9.722 -0.0676 -0.0692 -0.0771
  235loPI   C2B 3758  10.219  11.035   9.265  0.4071  0.0393  0.1075
  235loPI   C3B 3759  10.168  11.055   8.817  0.0722 -0.0567 -0.2528
  235loPI   C4B 3760  10.264  11.060   8.324  0.0451  0.2190 -0.0202
  236loPI    C1 3761  18.540  13.622  10.263  0.0522 -0.0894 -0.0202
  236loPI    C2 3762  18.566  14.013  10.343 -0.1589 -0.0354 -0.2051
  236loPI    C3 3763  18.519  13.751  10.641 -0.1026  0.0871 -0.0873
  236loPI   PO4 3764  18.385  13.638  10.029 -0.1014 -0.0517 -0.2443
  236loPI   GL1 3765  18.151  13.426   9.780  0.0273  0.0943 -0.0669
  236loPI   GL2 3766  17.941  13.790   9.938 -0.1612  0.1913  0.0333
  236loPI   C1A 3767  18.170  13.399   9.367  0.1296 -0.1126 -0.1152
  236loPI   C2A 3768  18.158  13.396   8.968  0.1447 -0.0778  0.2369
  236loPI   C3A 3769  18.157  13.721   8.723 -0.1713 -0.0343 -0.0842
  236loPI   C4A 3770  18.133  13.796   8.267 -0.0432 -0.1199  0.0165
  236loPI   C5A 3771  18.156  13.860   7.814 -0.0581 -0.1668 -0.0328
  236loPI   C6A 3772  18.139  13.489   7.542 -0.0095 -0.1747 -0.1126
  236loPI   C1B 3773  18.103  13.899   9.568 -0.0548  0.0776  0.1263
  236loPI   C2B 3774  18.326  13.837   9.176  0.3408  0.0774 -0.0176
  236loPI   C3B 3775  18.638  13.627   8.982  0.1486  0.1430 -0.1250
  236loPI   C4B 3776  18.733  13.661   8.585 -0.2265  0.2231  0.0921
  237loPI    C1 3777  17.073  12.089  10.467  0.1697 -0.0300 -0.0288
  237loPI    C2 3778  16.872  11.744  10.437  0.0646  0.0483 -0.2482
  237loPI    C3 3779  16.681  12.078  10.548  0.1881  0.0166  0.0698
  237loPI   PO4 3780  17.215  12.106  10.244  0.0239 -0.1318 -0.0806
  237loPI   GL1 3781  17.202  12.217   9.818  0.2573 -0.0194  0.2078
  237loPI   GL2 3782  17.246  12.523   9.581 -0.0452 -0.1667  0.1796
  237loPI   C1A 3783  17.169  12.012   9.545 -0.2397 -0.0034  0.2031
  237loPI   C2A 3784  17.281  12.023   9.209  0.0827  0.2013 -0.0011
  237loPI   C3A 3785  17.382  12.330   8.846  0.0887  0.4649 -0.2853
  237loPI   C4A 3786  17.312  12.350   8.418  0.3615  0.1407 -0.1331
  237loPI   C5A 3787  17.007  12.564   8.179 -0.2305 -0.2099  0.0824
  237loPI   C6A 3788  16.869  12.630   7.730 -0.0351 -0.2509  0.2730
  237loPI   C1B 3789  16.949  12.488   9.303 -0.2633 -0.0476  0.2482
  237loPI   C2B 3790  16.893  12.660   8.948  0.0035 -0.0751  0.0762
  237loPI   C3B 3791  16.885  12.947   8.588  0.0004  0.1156 -0.0501
  237loPI   C4B 3792  16.717  12.963   8.150  0.2433  0.3235 -0.0041
  238loPI    C1 3793   7.872  12.682  10.320 -0.0223  0.0483 -0.0182
  238loPI    C2 3794   7.806  12.619  10.710  0.0449  0.5571  0.0823
  238loPI    C3 3795   7.534  12.814  10.489 -0.0013  0.2550 -0.1338
  238loPI   PO4 3796   8.033  12.542  10.178 -0.0192 -0.1571  0.1732
  238loPI   GL1 3797   8.058  12.396   9.802 -0.0673  0.0370  0.2232
  238loPI   GL2 3798   8.347  12.303   9.857  0.0094 -0.1409  0.2690
  238loPI   C1A 3799   8.089  12.217   9.463  0.0542 -0.2018  0.1676
  238loPI   C2A 3800   8.393  12.296   9.097 -0.2547 -0.1209  0.0121
  238loPI   C3A 3801   8.468  12.065   8.731  0.0390  0.2747  0.1160
  238loPI   C4A 3802   8.744  11.921   8.398 -0.0715 -0.0408 -0.1871
  238loPI   C5A 3803   8.849  12.184   8.054 -0.0476  0.1377 -0.1696
  238loPI   C6A 3804   8.772  12.542   7.967 -0.1145 -0.2434  0.0188
  238loPI   C1B 3805   8.625  12.275   9.603 -0.2994  0.0459  0.2409
  238loPI   C2B 3806   8.836  12.093   9.382  0.0197 -0.0730 -0.2363
  238loPI   C3B 3807   8.958  12.200   8.927  0.3034  0.1764 -0.3043
  238loPI   C4B 3808   8.901  12.472   8.564  0.0884  0.0583 -0.1548
  239loPI    C1 3809   0.764   3.271   9.861 -0.0188  0.1231  0.0323
  239loPI    C2 3810   0.502   3.418  10.125 -0.2106  0.2216 -0.2099
  239loPI    C3 3811   0.408   3.096   9.907 -0.0454  0.1288 -0.1458
  239loPI   PO4 3812   0.888   3.425   9.611 -0.1734 -0.0391 -0.2288
  239loPI   GL1 3813   0.695   3.482   9.310 -0.0851  0.1176 -0.0569
  239loPI   GL2 3814   0.315   3.379   9.346  0.0615  0.3541 -0.1030
  239loPI   C1A 3815   0.862   3.428   8.960 -0.1133  0.0934 -0.4974
  239loPI   C2A 3816   0.656   3.532   8.639  0.0913  0.1368  0.0212
  239loPI   C3A 3817   0.597   3.648   8.257 -0.1510 -0.0978 -0.1573
  239loPI   C4A 3818   0.359   3.932   7.998  0.1602 -0.1042 -0.3379
  239loPI   C5A 3819   0.253   4.098   7.667  0.3381 -0.0574  0.1714
  239loPI   C6A 3820   0.566   4.096   7.320  0.3130 -0.0497  0.1163
  239loPI   C1B 3821   0.073   3.274   8.971  0.3946 -0.0171 -0.0014
  239loPI   C2B 3822   0.198   3.210   8.507  0.0122  0.0983  0.0508
  239loPI   C3B 3823   0.204   3.059   8.079 -0.2221 -0.1238  0.2687
  239loPI   C4B 3824   0.432   3.041   7.604  0.0579  0.0145  0.1893
  240loPI    C1 3825  14.318  12.201  10.386  0.0923  0.2188 -0.2235
  240loPI    C2 3826  14.129  11.868  10.499  0.1130  0.1836 -0.2921
  240loPI    C3 3827  14.107  12.197  10.726  0.0428  0.1538 -0.2549
  240loPI   PO4 3828  14.305  12.114  10.135  0.0729 -0.4013 -0.1037
  240loPI   GL1 3829  14.020  12.157   9.761  0.0621 -0.1913 -0.2125
  240loPI   GL2 3830  14.084  12.438   9.676  0.0181  0.0554 -0.0794
  240loPI   C1A 3831  13.906  12.065   9.350 -0.0562 -0.4836 -0.0213
  240loPI   C2A 3832  13.918  12.019   8.819  0.3795  0.0645 -0.2407
  240loPI   C3A 3833  13.960  12.168   8.493 -0.3417  0.2596  0.0241
  240loPI   C4A 3834  14.192  12.150   8.158 -0.0051  0.2097  0.0204
  240loPI   C5A 3835  14.090  12.371   7.755 -0.0450 -0.0648 -0.0490
  240loPI   C6A 3836  14.083  12.384   7.325  0.0850  0.3807  0.1174
  240loPI   C1B 3837  14.087  12.510   9.201 -0.0141 -0.1789 -0.0625
  240loPI   C2B 3838  14.015  12.554   8.821 -0.0704 -0.1222  0.3511
  240loPI   C3B 3839  14.334  12.569   8.647 -0.2790  0.0462  0.2569
  240loPI   C4B 3840  14.679  12.379   8.464  0.2722  0.0545  0.0080
  241loPI    C1 3841  15.653  10.260  10.441  0.2521  0.1280  0.1113
  241loPI    C2 3842  15.745  10.649  10.451  0.3703  0.1003  0.1059
  241loPI    C3 3843  15.388  10.525  10.581  0.2551  0.2335 -0.0789
  241loPI   PO4 3844  15.702  10.158  10.191 -0.3607 -0.0391  0.2527
  241loPI   GL1 3845  15.773  10.126   9.759  0.0989  0.0548  0.1945
  241loPI   GL2 3846  15.684   9.782   9.776 -0.0394  0.0889 -0.0610
  241loPI   C1A 3847  15.543  10.305   9.490 -0.1673 -0.4205 -0.2629
  241loPI   C2A 3848  15.465  10.143   9.123  0.0897  0.0593  0.0296
  241loPI   C3A 3849  15.516  10.177   8.717 -0.0749 -0.1448  0.0481
  241loPI   C4A 3850  15.495  10.098   8.355  0.2190 -0.0267 -0.0521
  241loPI   C5A 3851  15.557  10.274   7.936  0.1337 -0.3022  0.0649
  241loPI   C6A 3852  15.660  10.685   7.813 -0.1240 -0.0156 -0.1774
  241loPI   C1B 3853  15.736   9.791   9.349 -0.0429 -0.0273  0.3123
  241loPI   C2B 3854  15.738   9.715   8.908 -0.0060 -0.1905  0.1041
  241loPI   C3B 3855  15.775   9.680   8.420  0.3624 -0.1924  0.2405
  241loPI   C4B 3856  15.499   9.663   8.048  0.2433 -0.3042 -0.0481
  242loPI    C1 3857   9.954  11.598  10.747  0.0816  0.0581 -0.2357
  242loPI    C2 3858   9.647  11.837  10.841  0.0867 -0.0603  0.0942
  242loPI    C3 3859   9.631  11.447  10.927  0.1847 -0.1348 -0.2100
  242loPI   PO4 3860  10.061  11.556  10.523 -0.0957 -0.0209 -0.0783
  242loPI   GL1 3861  10.272  11.811  10.218 -0.1473  0.0070  0.0796
  242loPI   GL2 3862  10.510  11.571  10.356  0.0289  0.2760  0.0229
  242loPI   C1A 3863  10.293  11.998   9.804  0.0934 -0.3345 -0.1606
  242loPI   C2A 3864  10.264  12.185   9.375 -0.1539  0.0137  0.0946
  242loPI   C3A 3865  10.243  12.016   9.050 -0.2083  0.1991  0.2455
  242loPI   C4A 3866  10.329  12.044   8.543  0.2003 -0.0636  0.1947
  242loPI   C5A 3867  10.515  12.222   8.072 -0.3618  0.2149 -0.0524
  242loPI   C6A 3868  10.880  12.359   7.849  0.2223  0.1230 -0.0940
  242loPI   C1B 3869  10.604  11.617   9.894  0.0477  0.1010 -0.3239
  242loPI   C2B 3870  10.700  11.582   9.478 -0.2458 -0.0016  0.1553
  242loPI   C3B 3871  10.978  11.445   9.075  0.1484  0.2604 -0.0398
  242loPI   C4B 3872  11.058  11.499   8.736  0.1161  0.3307 -0.0216
  243loPI    C1 3873   5.192  17.970  10.508 -0.0612 -0.2176 -0.0067
  243loPI    C2 3874   5.059  18.221  10.790 -0.2130 -0.1884 -0.1033
  243loPI    C3 3875   5.251  17.887  10.895  0.0939  0.0233  0.0231
  243loPI   PO4 3876   5.008  17.997  10.296 -0.1838 -0.0345  0.0363
  243loPI   GL1 3877   4.729  18.221   9.980  0.0570 -0.1539  0.1178
  243loPI   GL2 3878   4.887  18.492   9.910  0.2637 -0.1903 -0.0489
  243loPI   C1A 3879   4.711  18.027   9.607  0.3044  0.0544 -0.0925
  243loPI   C2A 3880   4.736  18.066   9.212  0.2909  0.2232 -0.0326
  243loPI   C3A 3881   4.741  18.007   8.686 -0.0730 -0.2491  0.0959
  243loPI   C4A 3882   4.778  18.043   8.261  0.3129  0.0868  0.0869
  243loPI   C5A 3883   4.877  17.922   7.763  0.1825 -0.2294  0.1351
  243loPI   C6A 3884   4.837  18.295   7.543  0.0344  0.1222  0.2733
  243loPI   C1B 3885   5.042  18.501   9.479 -0.0129 -0.0842 -0.0525
  243loPI   C2B 3886   4.971  18.535   9.044  0.2234 -0.1464  0.1220
  243loPI   C3B 3887   5.008  18.582   8.693  0.3536  0.1691  0.1868
  243loPI   C4B 3888   4.973  18.535   8.271 -0.0377 -0.0415  0.1186
  244loPI    C1 3889   8.072   6.186  10.629 -0.0693  0.1277  0.1832
  244loPI    C2 3890   8.406   6.209  10.847  0.0274  0.2039  0.0293
  244loPI    C3 3891   8.051   6.172  11.028  0.1368 -0.1148  0.1882
  244loPI   PO4 3892   8.203   6.050  10.432 -0.2281 -0.0119  0.2409
  244loPI   GL1 3893   8.388   6.195  10.038  0.0642 -0.1132 -0.0560
  244loPI   GL2 3894   8.034   6.204   9.964  0.1693  0.0512 -0.1429
  244loPI   C1A 3895   8.533   6.043   9.660  0.0973 -0.4753 -0.1845
  244loPI   C2A 3896   8.435   6.008   9.190  0.0165  0.1790 -0.2508
  244loPI   C3A 3897   8.524   5.984   8.798  0.2084  0.0277 -0.0026
  244loPI   C4A 3898   8.402   5.914   8.331 -0.2207 -0.0248 -0.0172
  244loPI   C5A 3899   8.432   5.803   7.932  0.1965  0.0493  0.3568
  244loPI   C6A 3900   8.517   5.559   7.587 -0.1563 -0.0197  0.0935
  244loPI   C1B 3901   8.051   6.009   9.551 -0.0550  0.1799 -0.0699
  244loPI   C2B 3902   7.895   6.131   9.115 -0.1718  0.0590  0.2130
  244loPI   C3B 3903   7.975   6.063   8.776 -0.1417  0.0298  0.0925
  244loPI   C4B 3904   7.844   5.971   8.308 -0.1801 -0.1463 -0.3080
  245loPI    C1 3905   3.276   6.406  10.594 -0.0838 -0.0280 -0.0921
  245loPI    C2 3906   3.446   6.542  10.930 -0.0589 -0.0547 -0.0940
  245loPI    C3 3907   3.115   6.716  10.789  0.1092  0.1620 -0.2284
  245loPI   PO4 3908   3.395   6.425  10.405  0.0372 -0.0888  0.0647
  245loPI   GL1 3909   3.537   6.524   9.917 -0.1899 -0.0338 -0.1200
  245loPI   GL2 3910   3.679   6.657   9.662  0.1428 -0.0452 -0.0757
  245loPI   C1A 3911   3.213   6.744   9.609 -0.1570 -0.1282  0.1563
  245loPI   C2A 3912   3.174   6.674   9.229 -0.0643  0.4313  0.0411
  245loPI   C3A 3913   3.291   6.819   8.823 -0.0208  0.0142  0.1494
  245loPI   C4A 3914   3.188   6.929   8.361  0.0289 -0.1000  0.1582
  245loPI   C5A 3915   3.073   6.843   7.991 -0.2332 -0.0184 -0.1546
  245loPI   C6A 3916   3.020   6.530   7.740  0.2409  0.1815  0.3075
  245loPI   C1B 3917   3.605   6.459   9.266 -0.4195 -0.0106 -0.2155
  245loPI   C2B 3918   3.561   6.358   8.903 -0.0346  0.2145  0.2297
  245loPI   C3B 3919   3.451   6.397   8.481  0.0782 -0.0301 -0.0292
  245loPI   C4B 3920   3.340   6.429   8.108  0.0924  0.0974 -0.2818
  246loPI    C1 3921   3.358   4.222  10.472 -0.1599 -0.2741  0.0246
  246loPI    C2 3922   2.969   4.135  10.437 -0.2601  0.1991 -0.1023
  246loPI    C3 3923   3.096   4.364  10.739 -0.0603 -0.0435  0.0013
  246loPI   PO4 3924   3.385   4.335  10.106 -0.2094  0.3616 -0.1010
  246loPI   GL1 3925   3.293   4.405   9.677 -0.1972 -0.1326 -0.2511
  246loPI   GL2 3926   3.001   4.306   9.482  0.2093 -0.1139  0.0837
  246loPI   C1A 3927   3.524   4.383   9.332 -0.1637  0.1284 -0.0548
  246loPI   C2A 3928   3.592   4.467   8.917 -0.1048  0.0754 -0.0193
  246loPI   C3A 3929   3.706   4.522   8.532 -0.0010 -0.0379 -0.0244
  246loPI   C4A 3930   3.483   4.553   8.169 -0.0250  0.0342 -0.3666
  246loPI   C5A 3931   3.455   4.603   7.724  0.1655  0.2632 -0.1296
  246loPI   C6A 3932   3.462   4.977   7.490 -0.2818  0.0411  0.1359
  246loPI   C1B 3933   3.068   4.222   9.066  0.1372 -0.1110  0.0185
  246loPI   C2B 3934   3.184   4.202   8.603 -0.2827 -0.1291 -0.0224
  246loPI   C3B 3935   3.244   4.113   8.172  0.4628 -0.0313  0.0520
  246loPI   C4B 3936   3.228   4.068   7.710 -0.1105 -0.1293  0.0578
  247loPI    C1 3937  18.096  12.691  10.314  0.0080 -0.1308 -0.0123
  247loPI    C2 3938  17.906  12.506  10.613 -0.0135  0.0055  0.0590
  247loPI    C3 3939  18.203  12.761  10.693 -0.0968  0.1315 -0.0291
  247loPI   PO4 3940  18.023  12.514  10.079  0.1134  0.0269 -0.0937
  247loPI   GL1 3941  18.443  12.138   9.987 -0.1425  0.0520  0.1093
  247loPI   GL2 3942  18.586  12.444   9.820  0.4557  0.2396  0.0238
  247loPI   C1A 3943  18.286  11.990   9.547  0.0054  0.0755  0.0059
  247loPI   C2A 3944  18.334  11.832   9.156  0.0486 -0.0597 -0.1302
  247loPI   C3A 3945  18.439  11.717   8.711  0.2411 -0.1011  0.0029
  247loPI   C4A 3946  18.403  11.459   8.383  0.1420  0.1882  0.1567
  247loPI   C5A 3947  18.619  11.482   7.982  0.1535 -0.3211 -0.0142
  247loPI   C6A 3948  18.676  11.304   7.591 -0.1160  0.2395  0.0479
  247loPI   C1B 3949  18.733  12.548   9.361 -0.4331  0.1465  0.2006
  247loPI   C2B 3950  18.699  12.634   8.872 -0.0925 -0.4614 -0.2838
  247loPI   C3B 3951  18.682  12.767   8.465  0.2606  0.2846 -0.0442
  247loPI   C4B 3952  18.722  12.888   7.978 -0.1163  0.0579  0.1544
  248loPI    C1 3953  13.240  11.815  10.414 -0.0986  0.0651 -0.0233
  248loPI    C2 3954  13.202  11.921  10.798 -0.1893  0.1103 -0.0446
  248loPI    C3 3955  12.892  11.760  10.604 -0.0616 -0.1723 -0.0200
  248loPI   PO4 3956  13.362  11.929  10.258  0.0177 -0.2124  0.0039
  248loPI   GL1 3957  13.163  12.202   9.910  0.2179 -0.2852 -0.3567
  248loPI   GL2 3958  13.488  12.412   9.931  0.2356 -0.0022  0.0605
  248loPI   C1A 3959  13.278  12.087   9.532 -0.0604  0.3159 -0.1983
  248loPI   C2A 3960  13.396  12.070   9.135  0.1742  0.1018 -0.1175
  248loPI   C3A 3961  13.474  12.237   8.633  0.0442  0.1782 -0.0267
  248loPI   C4A 3962  13.527  12.377   8.247 -0.2450  0.1049 -0.0396
  248loPI   C5A 3963  13.595  12.590   7.849 -0.0350  0.0532 -0.2600
  248loPI   C6A 3964  13.881  12.819   7.735 -0.1602  0.1471 -0.1341
  248loPI   C1B 3965  13.596  12.444   9.509  0.0260  0.0694 -0.0506
  248loPI   C2B 3966  13.602  12.556   9.146  0.0150  0.0688 -0.3895
  248loPI   C3B 3967  13.502  12.758   8.682 -0.1614  0.1156 -0.4238
  248loPI   C4B 3968  13.417  12.937   8.264  0.0656 -0.0756  0.0566
  249loPI    C1 3969  11.733  13.197  10.856 -0.0541 -0.0080  0.0044
  249loPI    C2 3970  11.568  12.841  10.782  0.2187 -0.1232 -0.0639
  249loPI    C3 3971  11.707  12.924  11.147 -0.1891  0.0592  0.0563
  249loPI   PO4 3972  11.644  13.332  10.576 -0.2041  0.0953 -0.0350
  249loPI   GL1 3973  11.905  13.290  10.114  0.0346 -0.2076 -0.0198
  249loPI   GL2 3974  11.694  13.503  10.101 -0.0067 -0.2464  0.0028
  249loPI   C1A 3975  11.819  12.939   9.866 -0.1082 -0.0894 -0.1332
  249loPI   C2A 3976  11.660  12.710   9.554 -0.1445 -0.1852  0.0405
  249loPI   C3A 3977  11.662  12.380   9.196  0.3363  0.0634 -0.2375
  249loPI   C4A 3978  11.546  12.430   8.803  0.0049 -0.1456  0.0700
  249loPI   C5A 3979  11.672  12.249   8.387 -0.0842  0.2051 -0.2923
  249loPI   C6A 3980  11.467  12.417   8.021  0.0352 -0.2199  0.3403
  249loPI   C1B 3981  11.385  13.280   9.731  0.2592  0.2146 -0.1379
  249loPI   C2B 3982  11.055  13.305   9.442  0.1642  0.0580 -0.4518
  249loPI   C3B 3983  11.008  13.250   9.107 -0.2185 -0.0972  0.2672
  249loPI   C4B 3984  10.704  13.367   8.806 -0.0877 -0.1792 -0.2530
  250loPI    C1 3985   7.827   0.990  10.215  0.1558  0.2145 -0.1768
  250loPI    C2 3986   7.689   1.187   9.895 -0.1210  0.1464 -0.1024
  250loPI    C3 3987   7.671   1.356  10.258  0.1186  0.1912 -0.1098
  250loPI   PO4 3988   8.070   0.958  10.185  0.0689  0.1550 -0.0977
  250loPI   GL1 3989   8.268   1.043   9.844  0.2081  0.1887  0.1922
  250loPI   GL2 3990   8.080   0.814   9.658 -0.0434 -0.0697 -0.2031
  250loPI   C1A 3991   8.239   1.313   9.528 -0.0876 -0.3024 -0.1267
  250loPI   C2A 3992   8.164   1.392   9.139  0.0785  0.2101  0.0747
  250loPI   C3A 3993   7.803   1.514   8.880  0.3297 -0.0335 -0.1170
  250loPI   C4A 3994   7.445   1.366   8.649  0.0519 -0.1511  0.2866
  250loPI   C5A 3995   7.087   1.471   8.419  0.0496  0.0371 -0.1170
  250loPI   C6A 3996   6.848   1.209   8.066  0.2729 -0.0785  0.0222
  250loPI   C1B 3997   8.339   0.827   9.326 -0.1572 -0.4182 -0.1278
  250loPI   C2B 3998   8.297   0.927   8.960  0.0580  0.0366 -0.0801
  250loPI   C3B 3999   7.907   1.030   8.794  0.0417  0.1847  0.0924
  250loPI   C4B 4000   7.761   1.012   8.389  0.0698  0.2893  0.0379
  251loPI    C1 4001  10.022   0.520  10.580  0.0521 -0.0106  0.0376
  251loPI    C2 4002   9.706   0.360  10.393 -0.0194  0.1146  0.0499
  251loPI    C3 4003   9.684   0.448  10.782 -0.0537  0.3488 -0.0031
  251loPI   PO4 4004  10.023   0.789  10.408 -0.1226 -0.0277  0.5209
  251loPI   GL1 4005  10.109   0.907   9.962 -0.2271  0.0723 -0.0194
  251loPI   GL2 4006  10.450   1.091   9.810  0.2502  0.1645  0.0520
  251loPI   C1A 4007   9.937   0.801   9.628 -0.3035  0.4215 -0.0968
  251loPI   C2A 4008  10.032   0.492   9.226 -0.0159 -0.0219 -0.0436
  251loPI   C3A 4009  10.103   0.455   8.737 -0.2494  0.4001 -0.2292
  251loPI   C4A 4010  10.228   0.750   8.448  0.0220  0.2802  0.2048
  251loPI   C5A 4011  10.206   1.199   8.295 -0.1822 -0.0431 -0.2182
  251loPI   C6A 4012  10.119   1.524   8.035  0.1182  0.0979 -0.0136
  251loPI   C1B 4013  10.328   1.094   9.387 -0.1985  0.1059 -0.2147
  251loPI   C2B 4014  10.037   0.986   9.128 -0.0319 -0.1254 -0.0340
  251loPI   C3B 4015   9.882   0.994   8.765  0.0338  0.1318  0.4079
  251loPI   C4B 4016   9.686   0.990   8.424  0.0598 -0.0972 -0.0091
  252loPI    C1 4017  16.617   6.907  10.245 -0.1162  0.0108 -0.0117
  252loPI    C2 4018  16.837   7.026  10.557 -0.0524 -0.1229 -0.0051
  252loPI    C3 4019  16.521   7.242  10.441  0.1985  0.1796 -0.1391
  252loPI   PO4 4020  16.727   6.900  10.044  0.0054 -0.0121  0.1691
  252loPI   GL1 4021  16.855   7.111   9.700  0.0983  0.1963  0.2453
  252loPI   GL2 4022  17.177   7.278   9.650 -0.1092  0.1307 -0.2023
  252loPI   C1A 4023  16.837   7.063   9.203 -0.0409  0.0191 -0.4025
  252loPI   C2A 4024  16.756   7.134   8.806  0.0024  0.2613  0.2097
  252loPI   C3A 4025  16.615   7.227   8.378  0.1304  0.0720  0.0164
  252loPI   C4A 4026  16.151   7.309   8.224  0.0045  0.0630  0.5678
  252loPI   C5A 4027  16.058   7.645   7.966  0.1564 -0.2455 -0.0373
  252loPI   C6A 4028  15.861   7.637   7.574  0.0860  0.3425  0.1102
  252loPI   C1B 4029  17.513   7.426   9.446  0.0628  0.0315  0.0133
  252loPI   C2B 4030  17.535   7.453   9.153 -0.0968 -0.1985  0.2658
  252loPI   C3B 4031  17.613   7.421   8.695  0.0726  0.0698 -0.3535
  252loPI   C4B 4032  17.469   7.507   8.261 -0.1702 -0.1289  0.0265
  253loPI    C1 4033  11.877   1.814  10.819 -0.0486 -0.2373 -0.1451
  253loPI    C2 4034  11.561   1.717  11.044  0.1629 -0.1657  0.1906
  253loPI    C3 4035  11.870   1.465  11.013  0.0640 -0.2493 -0.1620
  253loPI   PO4 4036  11.722   2.038  10.694  0.0387  0.0189 -0.1312
  253loPI   GL1 4037  11.650   2.005  10.308  0.0071 -0.0636 -0.1903
  253loPI   GL2 4038  11.653   2.307  10.027  0.2962  0.3060  0.2778
  253loPI   C1A 4039  11.487   1.769   9.826 -0.1101 -0.1300  0.0739
  253loPI   C2A 4040  11.504   1.777   9.353 -0.1773 -0.1394 -0.2335
  253loPI   C3A 4041  11.477   1.798   8.932  0.0007  0.1292 -0.3740
  253loPI   C4A 4042  11.384   2.100   8.547 -0.0892 -0.1756 -0.4438
  253loPI   C5A 4043  11.742   2.273   8.270  0.1353 -0.0603  0.1753
  253loPI   C6A 4044  12.038   2.059   7.980  0.0780 -0.2955 -0.0572
  253loPI   C1B 4045  11.683   2.177   9.577  0.0230  0.1349  0.2647
  253loPI   C2B 4046  11.675   2.215   9.115  0.0809 -0.2236 -0.1102
  253loPI   C3B 4047  11.893   2.078   8.725 -0.1152  0.0481 -0.1893
  253loPI   C4B 4048  11.776   1.667   8.434  0.0513  0.1781 -0.2427
  254loPI    C1 4049   7.522   7.336  10.689  0.2134 -0.0353  0.0283
  254loPI    C2 4050   7.780   7.034  10.641  0.1930 -0.0674  0.1194
  254loPI    C3 4051   7.881   7.350  10.864  0.2567  0.0450 -0.0660
  254loPI   PO4 4052   7.462   7.347  10.467  0.1548  0.1635 -0.4799
  254loPI   GL1 4053   7.537   7.436  10.057 -0.2054  0.2244  0.2712
  254loPI   GL2 4054   7.317   7.689   9.815  0.0020  0.0381  0.3849
  254loPI   C1A 4055   7.652   7.261   9.740  0.0116 -0.0467 -0.0527
  254loPI   C2A 4056   7.635   7.102   9.429  0.0880 -0.1025  0.4172
  254loPI   C3A 4057   7.506   7.114   9.027 -0.1596 -0.1227  0.1180
  254loPI   C4A 4058   7.579   6.958   8.591  0.0607  0.1031  0.0763
  254loPI   C5A 4059   7.386   6.783   8.252  0.0946  0.0228 -0.1162
  254loPI   C6A 4060   7.286   6.950   7.805 -0.1000  0.0347 -0.0215
  254loPI   C1B 4061   7.444   7.704   9.529 -0.1293 -0.1079  0.0767
  254loPI   C2B 4062   7.504   7.569   9.206  0.1669  0.2052  0.0204
  254loPI   C3B 4063   7.396   7.595   8.731 -0.1014  0.0681  0.1283
  254loPI   C4B 4064   7.374   7.298   8.307  0.1247  0.0108 -0.1025
  255loPI    C1 4065   3.967  15.900  10.444  0.2827  0.2710  0.0762
  255loPI    C2 4066   3.990  16.063  10.809  0.1842 -0.1668  0.2838
  255loPI    C3 4067   3.699  15.801  10.724  0.1998 -0.0614 -0.1148
  255loPI   PO4 4068   3.990  16.176  10.262  0.0166  0.2157 -0.0818
  255loPI   GL1 4069   3.890  16.209   9.928 -0.2765  0.4720  0.1525
  255loPI   GL2 4070   3.631  16.358   9.837 -0.0269 -0.1482 -0.0170
  255loPI   C1A 4071   4.047  16.618   9.682  0.4576 -0.1808  0.0086
  255loPI   C2A 4072   4.025  16.695   9.241  0.2306  0.2645  0.0963
  255loPI   C3A 4073   3.996  16.684   8.796  0.3228  0.0951 -0.3710
  255loPI   C4A 4074   4.031  16.755   8.226 -0.0045  0.0073 -0.0251
  255loPI   C5A 4075   3.886  16.751   7.805  0.3057  0.0451  0.3660
  255loPI   C6A 4076   3.827  16.644   7.427  0.0820  0.1624  0.0405
  255loPI   C1B 4077   3.725  16.165   9.384 -0.0497  0.0316  0.1995
  255loPI   C2B 4078   3.806  16.238   9.003 -0.0642 -0.0658 -0.0566
  255loPI   C3B 4079   3.843  16.211   8.611  0.1004 -0.0882 -0.4514
  255loPI   C4B 4080   3.759  16.295   8.219  0.1139  0.2051  0.0630
  256loPI    C1 4081  14.658  14.367  10.182 -0.0730 -0.1691 -0.0111
  256loPI    C2 4082  14.720  14.335  10.575  0.0163  0.1073 -0.0009
  256loPI    C3 4083  14.350  14.393  10.435 -0.0791 -0.4220  0.0107
  256loPI   PO4 4084  14.742  14.064   9.975  0.2336  0.0297 -0.1768
  256loPI   GL1 4085  14.978  13.957   9.660  0.2507 -0.0852 -0.0339
  256loPI   GL2 4086  15.007  13.700   9.479  0.0153  0.3013 -0.2326
  256loPI   C1A 4087  14.883  14.209   9.303 -0.2128  0.0563  0.0626
  256loPI   C2A 4088  15.012  14.292   8.859 -0.1498  0.1645 -0.1464
  256loPI   C3A 4089  15.024  14.508   8.469  0.0686 -0.0399  0.3326
  256loPI   C4A 4090  14.789  14.380   8.052  0.0451  0.3347  0.0856
  256loPI   C5A 4091  14.883  14.385   7.636  0.0046  0.0704 -0.1040
  256loPI   C6A 4092  14.844  14.240   7.208 -0.1079 -0.1938 -0.1896
  256loPI   C1B 4093  15.222  13.874   9.090 -0.1055 -0.1687  0.0149
  256loPI   C2B 4094  15.284  13.802   8.669  0.1869 -0.0096  0.0594
  256loPI   C3B 4095  15.253  13.797   8.218 -0.1539  0.2077 -0.1944
  256loPI   C4B 4096  14.984  13.933   7.867  0.1562  0.2109 -0.0731
  257loPI    C1 4097   1.821  17.334  10.401  0.0115  0.0350 -0.0792
  257loPI    C2 4098   2.034  17.013  10.508  0.1355  0.1502  0.0240
  257loPI    C3 4099   1.928  17.283  10.783 -0.0598  0.1445 -0.0441
  257loPI   PO4 4100   1.934  17.362  10.118 -0.2356  0.2557 -0.2283
  257loPI   GL1 4101   2.012  17.555   9.763 -0.0711  0.2641 -0.0275
  257loPI   GL2 4102   2.207  17.300   9.762  0.1694 -0.0087  0.5627
  257loPI   C1A 4103   2.229  17.781   9.440 -0.3111 -0.1977  0.0564
  257loPI   C2A 4104   2.183  17.899   9.011  0.1431 -0.0975 -0.1389
  257loPI   C3A 4105   2.294  18.093   8.684  0.0866  0.2625 -0.4984
  257loPI   C4A 4106   2.299  18.141   8.294 -0.0651 -0.1237 -0.3504
  257loPI   C5A 4107   2.288  18.125   7.919 -0.1994  0.2879  0.1266
  257loPI   C6A 4108   2.521  18.255   7.569  0.3670  0.1348  0.2001
  257loPI   C1B 4109   2.110  17.327   9.212  0.2358  0.0588 -0.0433
  257loPI   C2B 4110   1.926  17.493   8.798  0.1481 -0.0254 -0.0544
  257loPI   C3B 4111   2.124  17.374   8.391  0.0007 -0.1856  0.3394
  257loPI   C4B 4112   2.166  17.247   7.986 -0.0661  0.2164  0.1129
  258loPI    C1 4113  14.361  18.213  10.554  0.0023 -0.1311 -0.0300
  258loPI    C2 4114  14.269  18.158  10.939 -0.0221  0.0209 -0.0137
  258loPI    C3 4115  14.203  18.513  10.767  0.0581 -0.0243 -0.1380
  258loPI   PO4 4116  14.325  18.000  10.450 -0.1497 -0.1220  0.2069
  258loPI   GL1 4117  14.266  17.951  10.084  0.0026  0.0808  0.0536
  258loPI   GL2 4118  14.476  17.807   9.881  0.2965  0.3826  0.1602
  258loPI   C1A 4119  14.077  18.288   9.752  0.0450  0.0012  0.5597
  258loPI   C2A 4120  14.239  18.559   9.419  0.0456 -0.0495 -0.2410
  258loPI   C3A 4121  14.337  18.401   8.984  0.2355 -0.1904  0.1360
  258loPI   C4A 4122  14.496  18.481   8.654 -0.1683 -0.1607 -0.0706
  258loPI   C5A 4123  14.526  18.838   8.425 -0.1581  0.1601 -0.1375
  258loPI   C6A 4124  14.781  18.829   8.078 -0.1531 -0.0894  0.0569
  258loPI   C1B 4125  14.381  17.571   9.435  0.0970 -0.1947  0.2769
  258loPI   C2B 4126  14.249  17.605   9.004  0.1986 -0.1055 -0.1069
  258loPI   C3B 4127  14.010  17.651   8.669 -0.2487 -0.0877 -0.2564
  258loPI   C4B 4128  13.913  17.633   8.185  0.0179  0.1819 -0.1038
  259loPI    C1 4129  15.490  14.834  10.459 -0.0190  0.0962  0.0785
  259loPI    C2 4130  15.617  15.179  10.617  0.0424  0.1124 -0.0056
  259loPI    C3 4131  15.634  14.842  10.832 -0.2866  0.2110  0.1815
  259loPI   PO4 4132  15.588  14.836  10.245 -0.1185 -0.1479  0.2331
  259loPI   GL1 4133  15.554  14.803   9.799 -0.0181  0.0130 -0.2079
  259loPI   GL2 4134  15.482  14.546   9.883 -0.2263  0.2163  0.0248
  259loPI   C1A 4135  15.307  14.845   9.485 -0.3134 -0.3781  0.3408
  259loPI   C2A 4136  14.924  14.705   9.399  0.1436  0.0059  0.1851
  259loPI   C3A 4137  14.621  14.577   9.120 -0.1565  0.1853  0.0707
  259loPI   C4A 4138  14.549  14.423   8.663 -0.0229  0.0006 -0.0703
  259loPI   C5A 4139  14.334  14.157   8.307 -0.0582  0.0466  0.0873
  259loPI   C6A 4140  14.280  13.766   8.001  0.1091  0.0860  0.1443
  259loPI   C1B 4141  15.410  14.301   9.466 -0.2099 -0.3656  0.3018
  259loPI   C2B 4142  15.604  14.215   9.009  0.0154  0.1639 -0.3894
  259loPI   C3B 4143  15.842  13.928   8.735  0.0729 -0.0265 -0.1031
  259loPI   C4B 4144  15.629  13.530   8.521  0.0040  0.2195 -0.0937
  260loPI    C1 4145  18.516   7.785  10.656  0.0687 -0.0469  0.0516
  260loPI    C2 4146  18.732   7.899  10.973 -0.0241 -0.2995  0.2085
  260loPI    C3 4147  18.345   7.810  11.017 -0.1029 -0.0842 -0.0264
  260loPI   PO4 4148  18.619   7.810  10.507  0.3349 -0.0248 -0.2738
  260loPI   GL1 4149  18.608   8.003  10.165 -0.2482  0.1388  0.2390
  260loPI   GL2 4150  18.417   7.714  10.077  0.0768  0.0864  0.0668
  260loPI   C1A 4151  18.809   7.876   9.837  0.0377 -0.0422  0.0371
  260loPI   C2A 4152  18.831   8.014   9.354 -0.0197  0.5016  0.1646
  260loPI   C3A 4153  18.802   8.216   8.946 -0.1779 -0.0175 -0.1571
  260loPI   C4A 4154  18.698   8.329   8.519 -0.3974  0.2243 -0.1154
  260loPI   C5A 4155  18.886   8.300   8.091  0.2363 -0.2424 -0.1020
  260loPI   C6A 4156  19.176   8.090   7.763 -0.0505  0.0788 -0.0177
  260loPI   C1B 4157  18.379   7.968   9.622  0.1639 -0.1318 -0.0898
  260loPI   C2B 4158  18.367   7.963   9.199 -0.2373 -0.0977 -0.3379
  260loPI   C3B 4159  18.399   7.995   8.813  0.1949  0.4235 -0.0983
  260loPI   C4B 4160  18.289   8.022   8.371 -0.1015  0.3199  0.2576
  261loPI    C1 4161   8.952   2.713  10.807  0.0114 -0.0877  0.0675
  261loPI    C2 4162   8.612   2.896  10.913 -0.1448 -0.3325 -0.0003
  261loPI    C3 4163   8.642   2.498  10.940  0.1090 -0.3207 -0.0743
  261loPI   PO4 4164   9.020   2.824  10.524 -0.0557 -0.3131 -0.1306
  261loPI   GL1 4165   8.741   2.991  10.259  0.0239  0.2745 -0.0644
  261loPI   GL2 4166   8.893   3.035  10.111  0.0240  0.0884 -0.0474
  261loPI   C1A 4167   8.584   2.738   9.858 -0.1144  0.1601 -0.1932
  261loPI   C2A 4168   8.161   2.799   9.719  0.1069 -0.0335  0.1362
  261loPI   C3A 4169   7.786   2.998   9.485  0.0093 -0.0783 -0.0325
  261loPI   C4A 4170   7.763   2.845   8.971 -0.2121  0.0320 -0.2226
  261loPI   C5A 4171   7.831   2.833   8.587  0.1182  0.0377  0.2440
  261loPI   C6A 4172   7.772   2.753   8.102 -0.1617  0.1549 -0.0679
  261loPI   C1B 4173   8.954   3.049   9.723 -0.0640  0.0357  0.0008
  261loPI   C2B 4174   8.863   3.102   9.248 -0.0549  0.1420  0.0789
  261loPI   C3B 4175   8.778   3.109   8.745 -0.0835  0.2641 -0.1570
  261loPI   C4B 4176   8.669   2.740   8.517 -0.1429 -0.2079 -0.1856
  262loPI    C1 4177   3.355  18.497  10.641  0.1418 -0.1880 -0.2461
  262loPI    C2 4178   3.063  18.224  10.644  0.0581 -0.0990  0.0560
  262loPI    C3 4179   3.413  18.145  10.822  0.0262 -0.0040  0.1624
  262loPI   PO4 4180   3.185  18.649  10.381  0.0041 -0.0304 -0.1348
  262loPI   GL1 4181   3.252  18.683   9.950 -0.0055  0.2642 -0.0458
  262loPI   GL2 4182   3.464  18.916   9.748  0.2825  0.0631  0.1597
  262loPI   C1A 4183   3.396  18.438   9.547 -0.0892  0.2544 -0.0526
  262loPI   C2A 4184   3.392  18.418   9.106  0.0750  0.0600  0.0606
  262loPI   C3A 4185   3.449  18.486   8.753 -0.0547 -0.0069  0.0416
  262loPI   C4A 4186   3.538  18.561   8.409  0.0607 -0.1669  0.0613
  262loPI   C5A 4187   3.519  18.387   7.902  0.0844  0.0832 -0.3837
  262loPI   C6A 4188   3.531  18.199   7.488 -0.0037  0.1945  0.1316
  262loPI   C1B 4189   3.387  18.881   9.293  0.4329 -0.1402  0.0206
  262loPI   C2B 4190   3.196  18.911   8.881  0.0957  0.0621  0.1642
  262loPI   C3B 4191   3.283  19.047   8.448  0.3977  0.3760  0.1585
  262loPI   C4B 4192   3.271  18.901   8.083 -0.2097 -0.0413 -0.0486
  263loPI    C1 4193   9.671   2.981  10.690 -0.1265  0.1997  0.1141
  263loPI    C2 4194   9.444   2.671  10.800  0.0234  0.1025  0.1517
  263loPI    C3 4195   9.329   3.044  10.887 -0.1365  0.0559  0.1432
  263loPI   PO4 4196   9.862   2.776  10.559  0.1331 -0.2611  0.1537
  263loPI   GL1 4197   9.938   2.839  10.177  0.1722 -0.0002  0.1045
  263loPI   GL2 4198  10.312   2.801  10.114  0.0604  0.0563  0.1363
  263loPI   C1A 4199   9.947   2.815   9.753  0.3009  0.1053  0.0058
  263loPI   C2A 4200   9.929   2.783   9.281 -0.0158  0.0725  0.1876
  263loPI   C3A 4201   9.759   2.790   8.823 -0.1715  0.2603  0.2891
  263loPI   C4A 4202   9.603   2.761   8.376 -0.1201 -0.0120  0.0590
  263loPI   C5A 4203   9.482   2.874   7.869 -0.2699 -0.1153 -0.0172
  263loPI   C6A 4204   9.621   3.035   7.546 -0.2012 -0.0015  0.1658
  263loPI   C1B 4205  10.302   2.508   9.687  0.1114  0.0726  0.1404
  263loPI   C2B 4206  10.284   2.472   9.257 -0.2054  0.3088  0.4780
  263loPI   C3B 4207  10.201   2.480   8.914  0.2305 -0.0742 -0.1626
  263loPI   C4B 4208  10.040   2.401   8.516  0.1025  0.3213  0.0383
  264loPI    C1 4209   6.055  12.937  10.216 -0.1595  0.0709  0.0529
  264loPI    C2 4210   6.285  13.236  10.349  0.0933 -0.1018  0.0123
  264loPI    C3 4211   6.242  12.904  10.568 -0.0687 -0.0965 -0.0098
  264loPI   PO4 4212   6.107  12.893   9.885  0.1204 -0.0467  0.1473
  264loPI   GL1 4213   5.946  13.120   9.545  0.1496  0.0177  0.1935
  264loPI   GL2 4214   5.675  13.037   9.506 -0.0473  0.0879 -0.2124
  264loPI   C1A 4215   6.309  13.257   9.295  0.0455 -0.1715  0.1360
  264loPI   C2A 4216   6.432  13.136   9.024 -0.1601 -0.3909 -0.0115
  264loPI   C3A 4217   6.594  13.078   8.599 -0.1730  0.3751 -0.0146
  264loPI   C4A 4218   6.660  12.737   8.344 -0.0815 -0.1010 -0.1746
  264loPI   C5A 4219   6.819  12.701   7.980  0.2388 -0.0739 -0.1603
  264loPI   C6A 4220   7.034  12.959   7.705  0.2232  0.1517  0.0009
  264loPI   C1B 4221   5.474  13.131   9.071 -0.0865 -0.3856  0.3675
  264loPI   C2B 4222   5.483  13.514   8.747  0.0801  0.1255 -0.2076
  264loPI   C3B 4223   5.435  13.573   8.251 -0.2439  0.0503  0.0588
  264loPI   C4B 4224   5.524  13.558   7.802 -0.0167  0.0459 -0.1329
  265loPI    C1 4225   5.147   7.943  10.293 -0.3210  0.0999  0.1765
  265loPI    C2 4226   4.911   7.842  10.599 -0.0357  0.1105  0.4046
  265loPI    C3 4227   5.305   7.775  10.619 -0.0313 -0.0242 -0.0230
  265loPI   PO4 4228   5.057   7.836  10.105 -0.1453 -0.1453  0.1946
  265loPI   GL1 4229   5.167   7.546   9.789 -0.0511  0.1036  0.2140
  265loPI   GL2 4230   5.079   7.231   9.565 -0.1237 -0.0719  0.0013
  265loPI   C1A 4231   5.343   7.793   9.443 -0.0245 -0.0991  0.0956
  265loPI   C2A 4232   5.204   7.861   8.889 -0.0202  0.1802 -0.3093
  265loPI   C3A 4233   5.263   8.011   8.481 -0.1891  0.0638  0.4500
  265loPI   C4A 4234   5.460   8.394   8.230 -0.3529  0.1271  0.1245
  265loPI   C5A 4235   5.376   8.680   7.972  0.2004 -0.2019  0.2876
  265loPI   C6A 4236   5.179   8.787   7.627 -0.1157  0.1273 -0.1573
  265loPI   C1B 4237   5.243   7.388   9.165  0.2610 -0.0163  0.1168
  265loPI   C2B 4238   5.196   7.263   8.829  0.2622  0.1346  0.0083
  265loPI   C3B 4239   5.037   7.079   8.414  0.2922  0.1513  0.1205
  265loPI   C4B 4240   4.943   6.953   8.036 -0.0848  0.2954  0.1379
  266loPI    C1 4241   0.003   8.283  10.661  0.0100 -0.0279  0.1143
  266loPI    C2 4242  -0.106   8.547  10.941 -0.0429  0.0091  0.0592
  266loPI    C3 4243  -0.378   8.301  10.781 -0.0325  0.0556 -0.0304
  266loPI   PO4 4244   0.144   8.440  10.533 -0.2815 -0.0348  0.2544
  266loPI   GL1 4245   0.313   8.418  10.093  0.0762  0.1732  0.2703
  266loPI   GL2 4246   0.520   8.636   9.936  0.1927  0.1338  0.1979
  266loPI   C1A 4247   0.110   8.338   9.733  0.2729 -0.2576 -0.0066
  266loPI   C2A 4248  -0.112   8.463   9.305  0.0944 -0.1140 -0.0192
  266loPI   C3A 4249  -0.205   8.477   8.904  0.1142  0.0867 -0.3851
  266loPI   C4A 4250  -0.340   8.507   8.538 -0.3201  0.0733 -0.0175
  266loPI   C5A 4251  -0.228   8.453   8.136 -0.0977 -0.3510  0.1141
  266loPI   C6A 4252  -0.248   8.103   7.859 -0.3234  0.1751 -0.0222
  266loPI   C1B 4253   0.333   8.755   9.454  0.3160 -0.0836  0.3171
  266loPI   C2B 4254   0.202   8.830   8.932  0.2540 -0.0480  0.4919
  266loPI   C3B 4255   0.050   8.974   8.566 -0.0873  0.0577 -0.3367
  266loPI   C4B 4256  -0.118   9.066   8.149  0.0332  0.2875  0.0063
  267loPI    C1 4257  16.012  17.341  10.149 -0.1241  0.0735  0.1770
  267loPI    C2 4258  16.210  17.092  10.390  0.0056  0.0538  0.0513
  267loPI    C3 4259  15.867  17.258  10.512  0.1131  0.1099  0.2816
  267loPI   PO4 4260  16.381  17.531  10.032 -0.0157  0.0583  0.1457
  267loPI   GL1 4261  16.823  17.511   9.816  0.1447 -0.0795 -0.0145
  267loPI   GL2 4262  16.841  17.151   9.719 -0.0795  0.1118 -0.1562
  267loPI   C1A 4263  16.928  17.524   9.445  0.2392  0.3652 -0.0652
  267loPI   C2A 4264  17.044  17.430   9.054  0.0252  0.0484 -0.2844
  267loPI   C3A 4265  17.263  17.599   8.692  0.1538  0.0228 -0.2552
  267loPI   C4A 4266  17.489  17.700   8.260 -0.3535 -0.1266 -0.0038
  267loPI   C5A 4267  17.284  18.062   8.032 -0.2802  0.1286  0.2608
  267loPI   C6A 4268  17.366  18.412   7.670  0.0116  0.1396  0.2836
  267loPI   C1B 4269  16.742  16.953   9.273 -0.2894 -0.1931  0.0579
  267loPI   C2B 4270  16.596  16.900   8.825  0.0042 -0.0567  0.3727
  267loPI   C3B 4271  16.531  17.084   8.408  0.0358  0.1790 -0.2815
  267loPI   C4B 4272  16.204  17.161   8.124 -0.2139 -0.1971 -0.0039
  268loPI    C1 4273  10.681   7.463  10.930 -0.1322  0.0329  0.1485
  268loPI    C2 4274  10.323   7.302  10.852 -0.1478  0.1791 -0.0925
  268loPI    C3 4275  10.385   7.493  11.198 -0.1928 -0.1553  0.1046
  268loPI   PO4 4276  10.757   7.660  10.688 -0.2284  0.1770  0.3107
  268loPI   GL1 4277  10.873   7.876  10.264  0.0515  0.1558  0.1258
  268loPI   GL2 4278  10.985   7.686  10.020  0.2367 -0.0627 -0.2008
  268loPI   C1A 4279  10.897   8.172   9.922  0.0401 -0.0084 -0.0959
  268loPI   C2A 4280  10.885   8.276   9.468  0.0423 -0.0022  0.0478
  268loPI   C3A 4281  10.844   8.286   9.055  0.0914  0.2828 -0.0682
  268loPI   C4A 4282  10.863   8.206   8.551  0.0953  0.0775  0.1855
  268loPI   C5A 4283  10.803   8.047   8.094 -0.0716 -0.2026 -0.2519
  268loPI   C6A 4284  11.078   7.866   7.751 -0.1672  0.1136 -0.0244
  268loPI   C1B 4285  10.831   7.786   9.633  0.3856  0.1623 -0.0761
  268loPI   C2B 4286  10.628   7.831   9.154 -0.2462  0.0620  0.1445
  268loPI   C3B 4287  10.643   7.782   8.716  0.2542  0.1297 -0.0589
  268loPI   C4B 4288  10.870   7.644   8.394 -0.1100  0.2299  0.2146
  269loPI    C1 4289   2.720  17.240   9.953 -0.0727  0.1161 -0.0572
  269loPI    C2 4290   2.448  17.193  10.242 -0.0632  0.2864 -0.0196
  269loPI    C3 4291   2.736  17.468  10.281 -0.0358  0.2800 -0.1711
  269loPI   PO4 4292   2.693  16.921   9.896  0.0882  0.1005  0.1044
  269loPI   GL1 4293   2.450  16.778   9.616 -0.0117 -0.3053 -0.3476
  269loPI   GL2 4294   2.332  16.690   9.432  0.0030 -0.1535 -0.1341
  269loPI   C1A 4295   2.580  17.123   9.328  0.0229  0.1266  0.2473
  269loPI   C2A 4296   2.781  17.063   9.009  0.2495 -0.0132  0.0534
  269loPI   C3A 4297   2.763  17.094   8.552 -0.0444  0.1298  0.0932
  269loPI   C4A 4298   2.590  17.185   8.265  0.1842  0.1558  0.0853
  269loPI   C5A 4299   2.720  17.139   7.876 -0.0767  0.2953 -0.1565
  269loPI   C6A 4300   2.486  17.074   7.428  0.0854 -0.0435  0.0073
  269loPI   C1B 4301   2.483  16.657   9.054  0.0134 -0.0926 -0.1585
  269loPI   C2B 4302   2.512  16.686   8.573 -0.1879  0.0762  0.0389
  269loPI   C3B 4303   2.426  16.638   8.099  0.0499 -0.1684  0.1776
  269loPI   C4B 4304   2.116  16.690   7.800 -0.2458  0.1545 -0.0265
  270loPI    C1 4305  12.522  16.160  10.807 -0.1230  0.2524 -0.0140
  270loPI    C2 4306  12.392  16.373  11.120  0.1556  0.2071  0.1355
  270loPI    C3 4307  12.420  15.974  11.147  0.0887  0.1942  0.0192
  270loPI   PO4 4308  12.337  16.210  10.623  0.1922 -0.2809  0.2773
  270loPI   GL1 4309  11.998  16.247  10.516 -0.1603  0.1664  0.2142
  270loPI   GL2 4310  12.068  15.952  10.269 -0.0002 -0.0762 -0.0340
  270loPI   C1A 4311  11.630  16.129  10.109 -0.2468  0.0886  0.0892
  270loPI   C2A 4312  11.360  16.154   9.687  0.0262 -0.1399 -0.2723
  270loPI   C3A 4313  11.449  16.047   9.142  0.0509 -0.2742 -0.1943
  270loPI   C4A 4314  11.238  15.839   8.910  0.1317  0.1570 -0.1051
  270loPI   C5A 4315  10.717  15.936   8.810 -0.0953 -0.0107  0.1983
  270loPI   C6A 4316  10.368  15.983   9.154  0.1141  0.1738 -0.2076
  270loPI   C1B 4317  11.961  15.855   9.827 -0.3630 -0.0122 -0.2218
  270loPI   C2B 4318  11.695  15.830   9.476 -0.3166 -0.0176 -0.0754
  270loPI   C3B 4319  11.339  15.622   9.386  0.0402 -0.1845 -0.2701
  270loPI   C4B 4320  10.871  15.697   9.200 -0.1570  0.0865 -0.1077
  271loPI    C1 4321  13.358   3.292  10.472 -0.0432 -0.1351 -0.1569
  271loPI    C2 4322  13.205   3.579  10.705  0.0393  0.0062 -0.2750
  271loPI    C3 4323  13.049   3.211  10.713  0.0504  0.0056  0.0131
  271loPI   PO4 4324  13.655   3.348  10.513  0.2462 -0.0618  0.2052
  271loPI   GL1 4325  14.019   3.326  10.312 -0.0550  0.1780  0.1837
  271loPI   GL2 4326  14.049   3.651  10.215  0.2768 -0.2994 -0.3792
  271loPI   C1A 4327  13.972   3.294   9.806 -0.0322 -0.0088  0.1220
  271loPI   C2A 4328  13.807   3.289   9.413 -0.1094 -0.0454  0.2727
  271loPI   C3A 4329  13.637   3.070   9.071  0.0986  0.3120 -0.1967
  271loPI   C4A 4330  13.433   2.929   8.750  0.1287  0.1147 -0.0868
  271loPI   C5A 4331  13.295   2.982   8.298  0.0277  0.2566  0.0761
  271loPI   C6A 4332  13.335   2.940   7.797  0.0466 -0.0781 -0.2423
  271loPI   C1B 4333  14.018   3.905   9.900  0.0895  0.1442 -0.0943
  271loPI   C2B 4334  14.063   4.149   9.620  0.1089  0.1141  0.0179
  271loPI   C3B 4335  13.865   4.459   9.400 -0.0444  0.2544  0.1339
  271loPI   C4B 4336  13.758   4.662   9.040  0.0330  0.0163 -0.0948
  272loPI    C1 4337  16.766   3.026  10.162  0.1827  0.0288 -0.2296
  272loPI    C2 4338  16.462   3.019  10.421  0.2014  0.1205 -0.2044
  272loPI    C3 4339  16.610   3.369  10.296  0.3035  0.0763 -0.2087
  272loPI   PO4 4340  16.777   2.830  10.061 -0.1592  0.0617 -0.2113
  272loPI   GL1 4341  16.587   2.649   9.684  0.2623 -0.1446  0.2625
  272loPI   GL2 4342  16.659   2.887   9.344 -0.3277  0.0911  0.0917
  272loPI   C1A 4343  16.388   2.500   9.294 -0.4175 -0.0612 -0.0409
  272loPI   C2A 4344  16.249   2.242   9.054  0.1479 -0.0262 -0.0135
  272loPI   C3A 4345  16.399   2.081   8.754 -0.2473 -0.0695 -0.0139
  272loPI   C4A 4346  16.454   2.132   8.316 -0.0505 -0.0418  0.2821
  272loPI   C5A 4347  16.396   2.503   8.052 -0.1293 -0.2905 -0.0109
  272loPI   C6A 4348  16.730   2.771   7.889  0.2548  0.2852  0.1456
  272loPI   C1B 4349  16.525   3.068   8.983 -0.2923  0.2349 -0.3300
  272loPI   C2B 4350  16.471   3.191   8.591 -0.0395  0.0813 -0.3582
  272loPI   C3B 4351  16.222   3.304   8.285 -0.2315  0.0124  0.0152
  272loPI   C4B 4352  16.244   3.562   7.968  0.1029 -0.0867 -0.3093
  273loPI    C1 4353  14.979  11.611  10.510  0.1766  0.2317 -0.0576
  273loPI    C2 4354  14.906  11.710  10.130  0.0589 -0.1370 -0.1343
  273loPI    C3 4355  14.677  11.859  10.422 -0.0220 -0.0669 -0.2328
  273loPI   PO4 4356  14.916  11.283  10.425  0.2361 -0.1805 -0.0069
  273loPI   GL1 4357  15.005  11.141   9.994 -0.2291 -0.0685 -0.0478
  273loPI   GL2 4358  14.732  11.298   9.897  0.1179 -0.2059 -0.0177
  273loPI   C1A 4359  14.797  10.863   9.637  0.0042 -0.1024 -0.1647
  273loPI   C2A 4360  14.761  10.732   9.240  0.1139 -0.0409  0.1993
  273loPI   C3A 4361  14.657  10.628   8.873  0.2042 -0.1415  0.4144
  273loPI   C4A 4362  14.595  10.520   8.468 -0.0915  0.0819 -0.2635
  273loPI   C5A 4363  14.721  10.736   8.054  0.2229  0.1342  0.0852
  273loPI   C6A 4364  14.538  10.709   7.665 -0.0018 -0.0025 -0.0759
  273loPI   C1B 4365  14.480  11.252   9.517 -0.0953  0.0238 -0.3111
  273loPI   C2B 4366  14.424  11.174   9.134  0.0807 -0.1890 -0.1972
  273loPI   C3B 4367  14.369  11.095   8.764 -0.3768 -0.0688  0.1427
  273loPI   C4B 4368  14.289  11.095   8.292  0.1777 -0.1143  0.2169
  274loPI    C1 4369   7.260   8.946  10.309  0.0102  0.1372  0.1699
  274loPI    C2 4370   6.947   8.833  10.531  0.1901 -0.1681  0.2741
  274loPI    C3 4371   7.318   8.799  10.676  0.2749  0.2040  0.1569
  274loPI   PO4 4372   7.207   8.783  10.096 -0.1085 -0.0704  0.0364
  274loPI   GL1 4373   7.276   8.840   9.681  0.1689 -0.2236 -0.1119
  274loPI   GL2 4374   7.074   9.036   9.708  0.0948 -0.1656 -0.2653
  274loPI   C1A 4375   7.307   8.971   9.189 -0.4477  0.1803 -0.0774
  274loPI   C2A 4376   7.281   8.993   8.837 -0.0476  0.1329  0.2947
  274loPI   C3A 4377   7.468   9.049   8.439 -0.1711  0.1882  0.1661
  274loPI   C4A 4378   7.878   8.951   8.371  0.1206  0.0097 -0.2701
  274loPI   C5A 4379   8.270   8.887   8.153  0.2685 -0.0578 -0.1230
  274loPI   C6A 4380   8.497   8.693   7.898 -0.0418 -0.0799 -0.0146
  274loPI   C1B 4381   6.999   9.355   9.364 -0.1538  0.1840 -0.2011
  274loPI   C2B 4382   6.920   9.335   8.911  0.0016  0.1274  0.2285
  274loPI   C3B 4383   6.809   9.451   8.424  0.0721 -0.0468  0.0591
  274loPI   C4B 4384   6.459   9.131   8.256  0.0164  0.1034 -0.2449
  275loPI    C1 4385  17.367  16.871  10.169 -0.0420  0.0834 -0.1739
  275loPI    C2 4386  17.474  16.509  10.300  0.0036  0.1249 -0.0952
  275loPI    C3 4387  17.744  16.803  10.283 -0.0569  0.1825 -0.0621
  275loPI   PO4 4388  17.089  16.763  10.104  0.1719  0.2440  0.0622
  275loPI   GL1 4389  17.121  16.670   9.677 -0.1087 -0.0800  0.1699
  275loPI   GL2 4390  17.317  16.906   9.693 -0.0975  0.0563 -0.0715
  275loPI   C1A 4391  17.155  16.663   9.243 -0.0112  0.1149 -0.0773
  275loPI   C2A 4392  17.060  16.849   8.846 -0.1315  0.0577  0.0017
  275loPI   C3A 4393  17.022  17.172   8.564 -0.1368  0.0637  0.2546
  275loPI   C4A 4394  17.080  17.400   8.219  0.2389 -0.2191  0.3935
  275loPI   C5A 4395  17.152  17.467   7.701  0.2371  0.0730 -0.3136
  275loPI   C6A 4396  17.311  17.102   7.465 -0.1986  0.1734  0.0469
  275loPI   C1B 4397  17.411  17.095   9.250 -0.1544  0.4990 -0.0052
  275loPI   C2B 4398  17.453  17.164   8.833  0.5346  0.0568 -0.1254
  275loPI   C3B 4399  17.531  17.205   8.475  0.1080  0.2438 -0.2020
  275loPI   C4B 4400  17.602  17.226   8.014  0.0898  0.1938  0.0679
  276loPI    C1 4401  13.541  16.351  10.674  0.0166  0.1625  0.2410
  276loPI    C2 4402  13.814  16.494  10.930  0.0202  0.2188  0.2058
  276loPI    C3 4403  13.425  16.559  10.996  0.0078  0.0310  0.3232
  276loPI   PO4 4404  13.750  16.351  10.437  0.0034  0.0081 -0.0542
  276loPI   GL1 4405  13.541  16.128  10.169  0.0834  0.0678 -0.0986
  276loPI   GL2 4406  13.522  15.892  10.085 -0.1796  0.0048  0.0371
  276loPI   C1A 4407  13.519  16.265   9.769 -0.2111  0.1377  0.1777
  276loPI   C2A 4408  13.287  16.213   9.419 -0.2830 -0.0812 -0.2840
  276loPI   C3A 4409  12.884  16.570   9.319  0.0145  0.1017  0.2306
  276loPI   C4A 4410  12.763  16.680   8.951 -0.0882  0.0932 -0.3746
  276loPI   C5A 4411  12.481  16.652   8.588  0.2177 -0.2163 -0.0182
  276loPI   C6A 4412  12.443  16.750   8.190  0.1284 -0.0008  0.2330
  276loPI   C1B 4413  13.642  15.796   9.677 -0.0257  0.2099  0.0468
  276loPI   C2B 4414  13.608  15.856   9.154 -0.0318  0.1038 -0.0508
  276loPI   C3B 4415  13.394  16.069   8.924  0.1641 -0.2206  0.1934
  276loPI   C4B 4416  13.058  16.211   8.961  0.1003  0.3886 -0.0398
  277loPI    C1 4417  18.565   3.491   9.825  0.2644  0.1957 -0.0330
  277loPI    C2 4418  18.608   3.376  10.206  0.1044 -0.1773 -0.1240
  277loPI    C3 4419  18.393   3.702  10.119  0.0502 -0.1524  0.0977
  277loPI   PO4 4420  18.532   3.189   9.669 -0.2791 -0.0665 -0.1997
  277loPI   GL1 4421  18.410   2.976   9.371  0.0824 -0.1374 -0.1444
  277loPI   GL2 4422  18.382   2.668   9.368  0.1053 -0.0568  0.1595
  277loPI   C1A 4423  18.671   2.785   9.006  0.1267  0.1090  0.0694
  277loPI   C2A 4424  18.863   2.754   8.643  0.1793  0.1630  0.0411
  277loPI   C3A 4425  18.982   2.657   8.273  0.1447 -0.0001 -0.0185
  277loPI   C4A 4426  19.124   2.713   7.901  0.0607  0.1758 -0.0819
  277loPI   C5A 4427  19.450   2.945   7.720 -0.0314 -0.2123 -0.2024
  277loPI   C6A 4428  19.695   3.142   7.259 -0.0325 -0.0624 -0.1291
  277loPI   C1B 4429  18.169   2.615   9.015  0.2274  0.1745  0.1735
  277loPI   C2B 4430  18.302   2.688   8.588 -0.2078  0.1528  0.4493
  277loPI   C3B 4431  18.508   2.528   8.252 -0.0316  0.1020 -0.0643
  277loPI   C4B 4432  18.657   2.686   7.739  0.1868  0.1516  0.3689
  278loPI    C1 4433   4.156   7.926  10.369 -0.2263 -0.1788  0.3059
  278loPI    C2 4434   4.393   8.039  10.670  0.1331  0.2770 -0.1291
  278loPI    C3 4435   4.000   8.107  10.689  0.1101  0.0533  0.3449
  278loPI   PO4 4436   4.237   7.963  10.103 -0.1512  0.1947  0.1887
  278loPI   GL1 4437   4.500   8.023   9.764 -0.0700  0.1023  0.0320
  278loPI   GL2 4438   4.813   8.117   9.783  0.0134 -0.3248 -0.1444
  278loPI   C1A 4439   4.430   7.984   9.326  0.1507  0.1899 -0.0013
  278loPI   C2A 4440   4.314   8.092   9.006  0.2200 -0.1037  0.0167
  278loPI   C3A 4441   4.315   8.124   8.552  0.1222  0.3170  0.1062
  278loPI   C4A 4442   4.295   7.873   8.179  0.1255 -0.2413 -0.0534
  278loPI   C5A 4443   4.270   7.735   7.725 -0.0330 -0.0261  0.2141
  278loPI   C6A 4444   4.385   7.665   7.334 -0.0098  0.2182  0.2712
  278loPI   C1B 4445   4.875   8.166   9.305 -0.0708 -0.1287 -0.0055
  278loPI   C2B 4446   4.896   8.310   8.859  0.1974  0.1243 -0.2239
  278loPI   C3B 4447   4.809   8.353   8.532  0.0355 -0.0333 -0.3971
  278loPI   C4B 4448   4.943   8.336   8.091 -0.0258 -0.2629 -0.1075
  279loPI    C1 4449   5.649  10.661  10.559  0.0316 -0.2601  0.3760
  279loPI    C2 4450   5.995  10.851  10.491 -0.1130 -0.1274 -0.0172
  279loPI    C3 4451   5.779  10.938  10.816 -0.1202  0.3025 -0.1321
  279loPI   PO4 4452   5.614  10.459  10.424 -0.0513 -0.2477 -0.0837
  279loPI   GL1 4453   5.523  10.209  10.061 -0.0883  0.0206  0.0030
  279loPI   GL2 4454   5.463   9.840  10.100 -0.0045  0.2082  0.2679
  279loPI   C1A 4455   5.541  10.257   9.728  0.2506  0.1795 -0.0407
  279loPI   C2A 4456   5.333  10.145   9.380  0.3516 -0.1084  0.2371
  279loPI   C3A 4457   5.175  10.255   8.981 -0.2266  0.1137  0.3478
  279loPI   C4A 4458   5.120  10.504   8.623  0.0354  0.0461 -0.2224
  279loPI   C5A 4459   5.216  10.561   8.131  0.1302 -0.1563 -0.0847
  279loPI   C6A 4460   5.489  10.758   7.913 -0.0218 -0.2398 -0.0105
  279loPI   C1B 4461   5.648   9.716   9.753  0.2493  0.3109 -0.1801
  279loPI   C2B 4462   5.716   9.847   9.294 -0.0434 -0.0001  0.0219
  279loPI   C3B 4463   5.580  10.018   8.975 -0.2668  0.0995  0.1842
  279loPI   C4B 4464   5.666  10.196   8.602 -0.1059 -0.1101 -0.1695
  280loPI    C1 4465   1.627   4.111  10.164  0.2147  0.1669 -0.1035
  280loPI    C2 4466   1.630   3.800  10.416  0.3932  0.0829 -0.2073
  280loPI    C3 4467   1.656   4.173  10.559 -0.0807  0.0677 -0.0636
  280loPI   PO4 4468   1.880   4.170   9.939 -0.1816 -0.4672 -0.1788
  280loPI   GL1 4469   2.092   3.950   9.664  0.0412  0.1674 -0.1002
  280loPI   GL2 4470   2.490   4.170   9.635  0.3252  0.0115 -0.0592
  280loPI   C1A 4471   2.119   3.881   9.298  0.0503  0.0213 -0.1679
  280loPI   C2A 4472   2.163   3.862   8.809 -0.2311 -0.4720 -0.0529
  280loPI   C3A 4473   2.157   3.969   8.493  0.0381 -0.2322 -0.1277
  280loPI   C4A 4474   2.259   4.046   8.068 -0.0824  0.1953  0.2441
  280loPI   C5A 4475   2.347   4.152   7.645  0.1100 -0.2651  0.1570
  280loPI   C6A 4476   2.724   4.349   7.521 -0.0648 -0.1475 -0.2105
  280loPI   C1B 4477   2.565   4.124   9.159 -0.1677 -0.1199 -0.1634
  280loPI   C2B 4478   2.652   3.990   8.793  0.3200 -0.4082  0.0433
  280loPI   C3B 4479   2.708   4.147   8.333  0.1100  0.2560 -0.0595
  280loPI   C4B 4480   2.757   4.023   7.891  0.0990 -0.0601  0.0446
  281loPI    C1 4481   1.838   5.421  10.874  0.1772  0.0285  0.1834
  281loPI    C2 4482   1.601   5.685  11.057 -0.1268 -0.1242  0.0174
  281loPI    C3 4483   1.837   5.445  11.273 -0.1948 -0.0382  0.1898
  281loPI   PO4 4484   1.835   5.484  10.557  0.0599 -0.0084  0.0037
  281loPI   GL1 4485   1.869   5.660  10.196 -0.0628 -0.0533  0.1519
  281loPI   GL2 4486   1.840   5.756  10.037 -0.0890 -0.0489 -0.3415
  281loPI   C1A 4487   1.652   5.311   9.805  0.0335 -0.0626 -0.3081
  281loPI   C2A 4488   1.476   5.241   9.411 -0.3545  0.1707 -0.0732
  281loPI   C3A 4489   1.398   5.240   8.916  0.0659 -0.2755  0.3263
  281loPI   C4A 4490   1.439   5.160   8.530  0.0702  0.1777 -0.0481
  281loPI   C5A 4491   1.481   5.111   8.089  0.0369  0.3312 -0.1139
  281loPI   C6A 4492   1.465   5.191   7.716 -0.2193 -0.1670  0.0212
  281loPI   C1B 4493   1.812   5.707   9.531  0.2182 -0.0969  0.0004
  281loPI   C2B 4494   1.888   5.386   9.150 -0.3039 -0.1100 -0.0544
  281loPI   C3B 4495   1.958   5.478   8.721  0.0452  0.1132  0.0714
  281loPI   C4B 4496   1.848   5.366   8.246  0.0573 -0.0385 -0.7007
  282loPI    C1 4497  18.181   6.515  10.465  0.0608 -0.0989  0.0430
  282loPI    C2 4498  17.984   6.772  10.701  0.1274  0.0664 -0.0794
  282loPI    C3 4499  18.373   6.701  10.762  0.1524  0.1335 -0.1576
  282loPI   PO4 4500  18.100   6.642  10.223  0.2183  0.1991 -0.0562
  282loPI   GL1 4501  17.683   6.603   9.853  0.1183 -0.1657  0.0230
  282loPI   GL2 4502  17.630   6.918   9.903  0.0268 -0.1154  0.0343
  282loPI   C1A 4503  17.763   6.512   9.437  0.2629 -0.0927 -0.2375
  282loPI   C2A 4504  17.739   6.819   9.057  0.3724 -0.0226 -0.0144
  282loPI   C3A 4505  17.629   6.982   8.606  0.2048  0.2938  0.0735
  282loPI   C4A 4506  17.547   7.031   8.214 -0.1504  0.0581 -0.0625
  282loPI   C5A 4507  17.679   7.299   7.881  0.1095 -0.1544  0.2304
  282loPI   C6A 4508  18.150   7.455   7.754  0.1097 -0.1462 -0.1562
  282loPI   C1B 4509  17.750   7.004   9.519 -0.1573 -0.0582  0.1199
  282loPI   C2B 4510  18.079   7.262   9.343 -0.3009 -0.4654  0.1061
  282loPI   C3B 4511  18.049   7.171   8.755 -0.0776  0.2213 -0.0096
  282loPI   C4B 4512  17.932   7.318   8.324 -0.0070  0.3088  0.1973
  283loPI    C1 4513   3.869  14.259  10.234  0.0844 -0.0243 -0.1841
  283loPI    C2 4514   3.871  13.859  10.246 -0.1299 -0.0232 -0.0538
  283loPI    C3 4515   3.810  14.069  10.581 -0.0239  0.1196 -0.1228
  283loPI   PO4 4516   4.123  14.286  10.119  0.1307 -0.1527  0.3809
  283loPI   GL1 4517   4.404  14.479   9.854  0.1457  0.3729  0.1152
  283loPI   GL2 4518   4.627  14.290   9.792 -0.0638 -0.0051 -0.1284
  283loPI   C1A 4519   4.276  14.927   9.781 -0.0258  0.0265 -0.0144
  283loPI   C2A 4520   4.340  15.267   9.491  0.0253  0.2002 -0.2673
  283loPI   C3A 4521   4.320  15.408   9.151 -0.0227  0.3439  0.2138
  283loPI   C4A 4522   4.493  15.410   8.782  0.0774 -0.1427  0.0675
  283loPI   C5A 4523   4.404  15.378   8.375 -0.1148 -0.1523 -0.3411
  283loPI   C6A 4524   4.572  15.410   7.920 -0.2004  0.1729 -0.0676
  283loPI   C1B 4525   4.580  14.374   9.393  0.1052  0.0224  0.1975
  283loPI   C2B 4526   4.439  14.432   8.971 -0.1075 -0.0224 -0.2682
  283loPI   C3B 4527   4.465  14.482   8.545 -0.2740 -0.3605  0.2841
  283loPI   C4B 4528   4.434  14.529   8.196 -0.0174  0.0859 -0.2679
  284loPI    C1 4529  14.395  17.454  10.525 -0.2245 -0.0864 -0.1764
  284loPI    C2 4530  14.040  17.341  10.671  0.0794 -0.3420  0.3966
  284loPI    C3 4531  14.219  17.670  10.812 -0.1955  0.1428 -0.3284
  284loPI   PO4 4532  14.439  17.525  10.289 -0.0149  0.1043 -0.2786
  284loPI   GL1 4533  14.681  17.324  10.035 -0.1779 -0.3019  0.0926
  284loPI   GL2 4534  14.952  17.488  10.042  0.4623  0.1891 -0.1433
  284loPI   C1A 4535  14.596  17.163   9.660 -0.4083 -0.0925 -0.0484
  284loPI   C2A 4536  14.398  17.062   9.242  0.0492 -0.1437 -0.1965
  284loPI   C3A 4537  14.433  17.200   8.828  0.2566 -0.1393  0.0259
  284loPI   C4A 4538  14.255  17.149   8.294 -0.1103 -0.1189  0.0645
  284loPI   C5A 4539  14.185  17.403   7.850  0.1283 -0.2306  0.0533
  284loPI   C6A 4540  14.135  17.551   7.355 -0.2124 -0.3328  0.1921
  284loPI   C1B 4541  14.877  17.602   9.648  0.3171 -0.0185 -0.0774
  284loPI   C2B 4542  14.822  17.444   9.236  0.1105 -0.4543 -0.0314
  284loPI   C3B 4543  14.873  17.635   8.814 -0.1238  0.2641 -0.0626
  284loPI   C4B 4544  15.103  17.718   8.395  0.2392 -0.0791 -0.3881
  285loPI    C1 4545  14.922   3.341  10.576 -0.1562  0.0576  0.1439
  285loPI    C2 4546  15.254   3.178  10.727 -0.1779  0.0098  0.1403
  285loPI    C3 4547  14.952   3.277  10.969 -0.1752  0.0202  0.1393
  285loPI   PO4 4548  14.950   3.238  10.313  0.0349 -0.0449 -0.2113
  285loPI   GL1 4549  14.895   2.930  10.001  0.1669 -0.1009  0.1196
  285loPI   GL2 4550  14.972   2.657   9.807 -0.0437 -0.1628  0.4587
  285loPI   C1A 4551  14.944   3.097   9.541 -0.2337  0.0085  0.1021
  285loPI   C2A 4552  14.998   3.128   9.164 -0.2155  0.0261 -0.3245
  285loPI   C3A 4553  15.045   3.291   8.740 -0.1078 -0.1101 -0.3132
  285loPI   C4A 4554  15.130   3.104   8.378  0.1190  0.2646  0.4598
  285loPI   C5A 4555  15.362   2.946   8.005 -0.0272  0.2459 -0.0292
  285loPI   C6A 4556  15.636   2.817   7.638 -0.3010 -0.0636 -0.2187
  285loPI   C1B 4557  14.582   2.562   9.453 -0.0871  0.0644 -0.0116
  285loPI   C2B 4558  14.546   2.718   9.137 -0.2545 -0.0322 -0.0559
  285loPI   C3B 4559  14.610   3.065   8.836  0.0447  0.0035  0.0983
  285loPI   C4B 4560  14.573   3.138   8.420  0.0730  0.2757 -0.2599
  286loPI    C1 4561  15.195   5.264  10.291 -0.0786 -0.0564  0.1332
  286loPI    C2 4562  15.283   5.206  10.677  0.1688 -0.0113  0.0854
  286loPI    C3 4563  15.214   5.576  10.541 -0.0012 -0.0360  0.1022
  286loPI   PO4 4564  15.369   5.173  10.083  0.1104 -0.0350 -0.1184
  286loPI   GL1 4565  15.488   4.971   9.768 -0.6821 -0.0497 -0.1253
  286loPI   GL2 4566  15.164   5.081   9.646 -0.2265 -0.0876 -0.2207
  286loPI   C1A 4567  15.639   4.937   9.421 -0.0349 -0.0177  0.0265
  286loPI   C2A 4568  15.640   4.778   9.093 -0.3487 -0.0946  0.0523
  286loPI   C3A 4569  15.568   4.776   8.655 -0.2127 -0.4063 -0.2463
  286loPI   C4A 4570  15.388   4.843   8.198  0.0876  0.2875 -0.0667
  286loPI   C5A 4571  14.875   4.927   8.238 -0.1073  0.1063 -0.2128
  286loPI   C6A 4572  14.633   5.100   7.920  0.1364  0.4180 -0.2204
  286loPI   C1B 4573  15.136   4.965   9.244  0.0495  0.1784  0.0310
  286loPI   C2B 4574  15.227   5.062   8.801  0.0012  0.0916 -0.0516
  286loPI   C3B 4575  15.408   5.286   8.459 -0.2631 -0.0398 -0.0438
  286loPI   C4B 4576  15.271   5.391   8.116  0.1106  0.0267  0.1313
  287loPI    C1 4577  12.300   1.026  10.874 -0.0717 -0.2448  0.0885
  287loPI    C2 4578  12.130   1.079  11.232 -0.1277  0.0538  0.0198
  287loPI    C3 4579  12.468   0.867  11.200 -0.1181  0.0325  0.2502
  287loPI   PO4 4580  12.313   1.313  10.735  0.1151 -0.0976 -0.2170
  287loPI   GL1 4581  12.215   1.332  10.241 -0.1574 -0.1316  0.2740
  287loPI   GL2 4582  12.426   1.236  10.064 -0.0519 -0.1878 -0.1931
  287loPI   C1A 4583  11.978   1.708   9.992 -0.0915  0.0392 -0.0985
  287loPI   C2A 4584  11.937   1.765   9.580  0.2935 -0.0063  0.1464
  287loPI   C3A 4585  12.063   1.860   9.229 -0.0264  0.2437  0.1384
  287loPI   C4A 4586  12.382   1.830   8.966 -0.1916 -0.0501  0.0099
  287loPI   C5A 4587  12.664   1.888   8.598  0.1213 -0.1418 -0.0396
  287loPI   C6A 4588  12.399   1.883   8.242 -0.0788  0.0176  0.2843
  287loPI   C1B 4589  12.172   1.254   9.784  0.0990  0.1619  0.3545
  287loPI   C2B 4590  12.378   1.451   9.383  0.2225  0.1616  0.2294
  287loPI   C3B 4591  12.380   1.279   8.980  0.1755  0.1608 -0.1407
  287loPI   C4B 4592  12.352   1.512   8.536 -0.0617 -0.0129  0.1699
  288loPI    C1 4593  12.687  14.853  10.805  0.1277 -0.0932  0.3892
  288loPI    C2 4594  12.518  15.056  11.105  0.0078 -0.3430  0.4926
  288loPI    C3 4595  12.409  14.678  11.032 -0.0734 -0.2373  0.0388
  288loPI   PO4 4596  12.754  15.078  10.629  0.4102 -0.1125 -0.1304
  288loPI   GL1 4597  12.775  15.120  10.252  0.0898  0.0250  0.2379
  288loPI   GL2 4598  12.725  14.941   9.993  0.2138 -0.1330 -0.2369
  288loPI   C1A 4599  12.824  15.429   9.799  0.0393 -0.2055  0.1069
  288loPI   C2A 4600  12.603  15.457   9.387  0.0397 -0.0320  0.2475
  288loPI   C3A 4601  12.740  15.357   9.046 -0.0919  0.1586  0.0562
  288loPI   C4A 4602  12.623  15.330   8.667  0.1206  0.1039 -0.0249
  288loPI   C5A 4603  12.602  15.054   8.318 -0.1694 -0.1900  0.0692
  288loPI   C6A 4604  12.638  14.733   8.017 -0.2079  0.2806  0.2051
  288loPI   C1B 4605  12.904  15.051   9.520 -0.3047  0.2844  0.3642
  288loPI   C2B 4606  13.059  14.989   9.090 -0.1298 -0.1490 -0.2380
  288loPI   C3B 4607  13.058  15.056   8.596 -0.1289  0.0816 -0.0567
  288loPI   C4B 4608  13.199  14.901   8.231  0.3072 -0.1656  0.0890
  289loPI    C1 4609  12.945  12.504  10.381 -0.0014 -0.1336  0.0375
  289loPI    C2 4610  13.117  12.601  10.728 -0.0932 -0.1539  0.0891
  289loPI    C3 4611  12.727  12.669  10.673 -0.0413  0.0202 -0.0774
  289loPI   PO4 4612  13.004  12.240  10.369  0.1294  0.1620 -0.0280
  289loPI   GL1 4613  12.800  11.889  10.131  0.0157  0.3131  0.1646
  289loPI   GL2 4614  13.032  11.712   9.880  0.1069  0.3090 -0.1258
  289loPI   C1A 4615  12.437  11.830   9.903 -0.1488 -0.1662 -0.2272
  289loPI   C2A 4616  12.621  11.757   9.550  0.0113 -0.0481  0.1910
  289loPI   C3A 4617  12.590  11.552   9.081 -0.1100  0.1643 -0.2949
  289loPI   C4A 4618  12.549  11.613   8.653  0.0889  0.0689  0.2847
  289loPI   C5A 4619  12.503  12.079   8.440 -0.0230  0.3995 -0.4104
  289loPI   C6A 4620  12.591  12.332   8.749 -0.1682  0.1345 -0.3233
  289loPI   C1B 4621  13.128  11.640   9.487 -0.1690  0.0149  0.0135
  289loPI   C2B 4622  13.135  11.533   9.113 -0.0221  0.0087 -0.0668
  289loPI   C3B 4623  13.066  11.472   8.762  0.3196  0.0076 -0.2409
  289loPI   C4B 4624  12.959  11.580   8.373  0.1224 -0.0972 -0.1181
  290loPI    C1 4625   8.690  18.125  10.474  0.2743  0.2677 -0.1099
  290loPI    C2 4626   8.643  18.236  10.855  0.0651  0.0384 -0.0657
  290loPI    C3 4627   8.846  17.903  10.768  0.0539  0.0536 -0.1504
  290loPI   PO4 4628   8.389  18.075  10.328 -0.0090 -0.0201 -0.3287
  290loPI   GL1 4629   8.225  18.142   9.884 -0.0278  0.4241  0.1516
  290loPI   GL2 4630   8.161  17.890   9.804  0.1851 -0.1563 -0.0347
  290loPI   C1A 4631   8.162  18.426   9.519 -0.1520 -0.0378  0.0138
  290loPI   C2A 4632   7.998  18.476   9.127  0.0267  0.0021  0.1189
  290loPI   C3A 4633   7.902  18.466   8.726  0.2117 -0.1979 -0.3558
  290loPI   C4A 4634   8.077  18.623   8.335 -0.0481  0.0789  0.1748
  290loPI   C5A 4635   8.242  18.969   8.002 -0.0412  0.0827 -0.1459
  290loPI   C6A 4636   8.566  18.992   7.854  0.1077 -0.0537 -0.2453
  290loPI   C1B 4637   8.427  18.019   9.416 -0.1183 -0.0474 -0.3183
  290loPI   C2B 4638   8.320  17.966   9.045 -0.2149 -0.2441 -0.0183
  290loPI   C3B 4639   8.148  17.877   8.662  0.4178 -0.2509  0.0385
  290loPI   C4B 4640   7.988  18.044   8.255  0.0102 -0.2270 -0.0549
  291loPI    C1 4641   9.168  11.520  10.725  0.0888 -0.1507 -0.1826
  291loPI    C2 4642   9.192  11.302  11.060  0.2119 -0.2138 -0.2318
  291loPI    C3 4643   9.013  11.659  11.066  0.0623 -0.2896 -0.1372
  291loPI   PO4 4644   9.118  11.274  10.548 -0.0570  0.1371  0.1167
  291loPI   GL1 4645   9.051  11.282  10.069 -0.0508 -0.1975  0.0124
  291loPI   GL2 4646   9.298  11.199  10.076 -0.0332 -0.0833  0.0138
  291loPI   C1A 4647   9.050  11.325   9.634  0.1704  0.2090  0.0452
  291loPI   C2A 4648   9.246  11.328   9.283 -0.0070 -0.0072 -0.1975
  291loPI   C3A 4649   9.226  11.345   8.882 -0.0440 -0.1934  0.1845
  291loPI   C4A 4650   9.397  11.501   8.488  0.0258 -0.3585 -0.1980
  291loPI   C5A 4651   9.164  11.693   8.073  0.0016  0.3695  0.0449
  291loPI   C6A 4652   9.060  11.853   7.733  0.1349 -0.2286  0.1199
  291loPI   C1B 4653   9.528  11.410   9.745  0.1228 -0.1700 -0.0528
  291loPI   C2B 4654   9.650  11.538   9.397  0.0430 -0.4740 -0.0391
  291loPI   C3B 4655   9.816  11.539   9.007  0.1603 -0.0008  0.1822
  291loPI   C4B 4656   9.996  11.585   8.556  0.1279 -0.1891  0.2019
  292loPI    C1 4657   1.959   1.832  10.386  0.1234  0.3135  0.1828
  292loPI    C2 4658   1.609   1.857  10.578  0.0212 -0.1221  0.0641
  292loPI    C3 4659   1.936   1.733  10.773  0.0173 -0.1251  0.0688
  292loPI   PO4 4660   1.915   1.788  10.178 -0.1161 -0.0209 -0.2473
  292loPI   GL1 4661   1.842   1.946   9.772 -0.1334 -0.0734  0.1955
  292loPI   GL2 4662   1.517   1.921   9.576  0.2429 -0.3828  0.2159
  292loPI   C1A 4663   1.985   1.795   9.388 -0.2909  0.1240 -0.0378
  292loPI   C2A 4664   1.985   1.592   9.032 -0.1179  0.0079  0.3648
  292loPI   C3A 4665   1.998   1.720   8.582  0.2771 -0.0789 -0.2804
  292loPI   C4A 4666   1.916   1.621   8.134  0.3848 -0.0650  0.0279
  292loPI   C5A 4667   1.781   1.772   7.724  0.0744  0.0541  0.0203
  292loPI   C6A 4668   1.923   1.741   7.390 -0.1890 -0.0472  0.1561
  292loPI   C1B 4669   1.663   2.024   9.143 -0.0227  0.0790  0.0006
  292loPI   C2B 4670   1.519   1.847   8.821 -0.1314  0.1890 -0.4750
  292loPI   C3B 4671   1.391   1.809   8.485 -0.1719 -0.1158 -0.2255
  292loPI   C4B 4672   1.378   1.628   7.999 -0.0158 -0.2197  0.0357
  293loPI    C1 4673   8.077   9.560  10.578 -0.3680 -0.0341 -0.1454
  293loPI    C2 4674   8.199   9.911  10.430 -0.1043 -0.0731 -0.0277
  293loPI    C3 4675   8.214   9.844  10.824 -0.1328 -0.2244 -0.0514
  293loPI   PO4 4676   7.925   9.464  10.337  0.2791  0.2280 -0.0642
  293loPI   GL1 4677   7.834   9.353   9.935  0.2217  0.0703 -0.2666
  293loPI   GL2 4678   7.785   9.156   9.764  0.0356 -0.0886  0.0731
  293loPI   C1A 4679   7.955   9.551   9.513  0.0420 -0.1820 -0.0848
  293loPI   C2A 4680   7.975   9.388   9.088  0.2117  0.0091  0.3360
  293loPI   C3A 4681   7.952   9.328   8.685 -0.2096  0.3188  0.3711
  293loPI   C4A 4682   7.988   9.423   8.302 -0.1171 -0.0285  0.0143
  293loPI   C5A 4683   7.859   9.252   7.839  0.0719 -0.0590 -0.0454
  293loPI   C6A 4684   7.591   9.298   7.359  0.0197 -0.1735 -0.0667
  293loPI   C1B 4685   7.776   8.990   9.377 -0.0086 -0.1854 -0.2979
  293loPI   C2B 4686   7.753   8.840   8.870  0.1673 -0.4557 -0.2411
  293loPI   C3B 4687   7.585   8.572   8.547  0.0274 -0.1782 -0.0937
  293loPI   C4B 4688   7.187   8.639   8.436 -0.1704  0.3353  0.1608
  294loPI    C1 4689  11.395   8.741  10.730  0.2479 -0.1139 -0.0277
  294loPI    C2 4690  11.555   8.545  11.040  0.0448 -0.2957 -0.0354
  294loPI    C3 4691  11.268   8.372  10.821 -0.1439  0.0134 -0.0377
  294loPI   PO4 4692  11.567   8.855  10.532  0.0393  0.1387 -0.0952
  294loPI   GL1 4693  11.586   9.050  10.093 -0.4631  0.0730  0.1584
  294loPI   GL2 4694  11.837   9.013   9.919 -0.0256 -0.2799 -0.0895
  294loPI   C1A 4695  11.360   9.184   9.661  0.1337  0.0946  0.0363
  294loPI   C2A 4696  11.430   9.161   9.183 -0.0584 -0.1166 -0.4621
  294loPI   C3A 4697  11.284   9.079   8.820 -0.3335  0.0054 -0.0794
  294loPI   C4A 4698  11.321   9.210   8.406 -0.2061 -0.2361  0.0616
  294loPI   C5A 4699  11.629   9.428   8.174 -0.1586 -0.0198 -0.1727
  294loPI   C6A 4700  11.748   9.488   7.834 -0.0489 -0.0548  0.0709
  294loPI   C1B 4701  11.766   8.930   9.456  0.0215 -0.1450  0.1770
  294loPI   C2B 4702  11.621   8.666   9.153 -0.3578  0.2016 -0.0312
  294loPI   C3B 4703  11.542   8.541   8.728 -0.1260 -0.0180  0.0378
  294loPI   C4B 4704  11.690   8.170   8.489 -0.0262 -0.2408 -0.1144
  295loPI    C1 4705  15.529  17.969  10.408 -0.1379  0.2056  0.2242
  295loPI    C2 4706  15.539  17.675  10.680  0.3607 -0.0455 -0.0515
  295loPI    C3 4707  15.864  17.756  10.461  0.1257  0.4958 -0.2163
  295loPI   PO4 4708  15.298  17.906  10.217  0.0843 -0.1288 -0.0637
  295loPI   GL1 4709  15.285  17.879   9.787  0.2324 -0.1151  0.0972
  295loPI   GL2 4710  14.907  18.043   9.842 -0.2631  0.0730 -0.2582
  295loPI   C1A 4711  15.331  17.639   9.365 -0.2321  0.0281 -0.0573
  295loPI   C2A 4712  15.757  17.510   9.217  0.2910 -0.2888 -0.3157
  295loPI   C3A 4713  15.843  17.376   8.871 -0.2055 -0.1198  0.0141
  295loPI   C4A 4714  16.181  17.536   8.476 -0.1427 -0.1329 -0.0444
  295loPI   C5A 4715  16.570  17.563   8.258  0.1542  0.2018  0.2526
  295loPI   C6A 4716  16.676  17.306   7.896 -0.3077  0.1051  0.2430
  295loPI   C1B 4717  14.970  18.017   9.396  0.1835  0.3426 -0.0313
  295loPI   C2B 4718  15.222  17.964   9.033  0.0308 -0.0373  0.0752
  295loPI   C3B 4719  15.407  18.181   8.567 -0.0276 -0.3142 -0.0435
  295loPI   C4B 4720  15.586  18.158   8.139  0.2644  0.0371  0.0611
  296loPI    C1 4721   4.787   3.317  10.464 -0.1382  0.1003  0.0586
  296loPI    C2 4722   4.692   3.677  10.611 -0.1175  0.1296  0.0005
  296loPI    C3 4723   4.483   3.354  10.722  0.0290  0.1193  0.2561
  296loPI   PO4 4724   4.748   3.330  10.136  0.0934  0.2941 -0.1794
  296loPI   GL1 4725   4.514   3.423   9.818 -0.0391  0.0472  0.0306
  296loPI   GL2 4726   4.792   3.360   9.686  0.1943  0.0112  0.1036
  296loPI   C1A 4727   4.266   3.304   9.586  0.1099  0.3107  0.2630
  296loPI   C2A 4728   4.238   3.170   9.205  0.0741  0.0907 -0.1919
  296loPI   C3A 4729   4.258   3.355   8.837 -0.0756 -0.0287  0.3637
  296loPI   C4A 4730   4.362   3.322   8.388 -0.0458  0.2074 -0.0857
  296loPI   C5A 4731   4.453   3.024   8.161 -0.0510  0.1837  0.4745
  296loPI   C6A 4732   4.624   2.728   8.017  0.1251 -0.0173  0.1995
  296loPI   C1B 4733   4.682   3.101   9.385 -0.0988 -0.1423  0.1434
  296loPI   C2B 4734   4.609   3.046   8.959 -0.2090 -0.2070  0.1470
  296loPI   C3B 4735   4.779   3.014   8.545 -0.1063  0.1484 -0.0444
  296loPI   C4B 4736   5.012   2.956   8.137 -0.0128  0.0852 -0.0450
  297loPI    C1 4737   6.110  16.582  10.253 -0.2396  0.0203  0.0658
  297loPI    C2 4738   6.246  16.208  10.289  0.1035  0.1166 -0.1777
  297loPI    C3 4739   6.335  16.481  10.568  0.0962  0.0882 -0.1476
  297loPI   PO4 4740   5.842  16.488  10.220 -0.4900  0.0757  0.1294
  297loPI   GL1 4741   5.613  16.336   9.814 -0.0153  0.1919 -0.2008
  297loPI   GL2 4742   5.464  16.657   9.942 -0.1040  0.0450  0.1172
  297loPI   C1A 4743   5.383  16.401   9.401 -0.1994  0.0648 -0.2065
  297loPI   C2A 4744   5.240  16.240   9.077 -0.0169  0.0690 -0.0468
  297loPI   C3A 4745   5.344  16.277   8.680 -0.0378  0.0394  0.1616
  297loPI   C4A 4746   5.423  16.303   8.307 -0.2940 -0.0858 -0.0341
  297loPI   C5A 4747   5.423  16.317   7.831  0.1730  0.0223  0.1715
  297loPI   C6A 4748   5.583  16.389   7.502  0.1721  0.0563  0.1371
  297loPI   C1B 4749   5.185  16.752   9.757 -0.2857 -0.0877 -0.0898
  297loPI   C2B 4750   5.034  16.785   9.350 -0.1400  0.1821 -0.3340
  297loPI   C3B 4751   5.009  16.692   8.927  0.0428  0.2579  0.1415
  297loPI   C4B 4752   5.122  16.728   8.465 -0.0892  0.1404 -0.0475
  298loPI    C1 4753   4.592  10.172  10.350 -0.1736 -0.0785 -0.1139
  298loPI    C2 4754   4.390   9.842  10.249  0.0421 -0.2469 -0.0033
  298loPI    C3 4755   4.529   9.885  10.622 -0.1041  0.0327  0.0209
  298loPI   PO4 4756   4.812  10.201  10.236  0.0210 -0.2761 -0.2042
  298loPI   GL1 4757   5.070  10.069   9.917  0.1195 -0.1369  0.1212
  298loPI   GL2 4758   4.731   9.899   9.826 -0.1180  0.1356  0.1833
  298loPI   C1A 4759   5.153   9.689   9.700 -0.0594 -0.2624  0.2319
  298loPI   C2A 4760   5.422   9.465   9.376  0.1418 -0.2050 -0.1186
  298loPI   C3A 4761   5.548   9.470   8.933  0.2028  0.0599 -0.1821
  298loPI   C4A 4762   5.674   9.487   8.484  0.0497 -0.2939 -0.0538
  298loPI   C5A 4763   5.911   9.302   8.245  0.5771 -0.0126 -0.2882
  298loPI   C6A 4764   6.070   9.307   7.773  0.0254 -0.1085 -0.2295
  298loPI   C1B 4765   4.808   9.955   9.357  0.0804  0.1472  0.1544
  298loPI   C2B 4766   5.135   9.706   9.015  0.0328 -0.2335 -0.4325
  298loPI   C3B 4767   5.234   9.883   8.594  0.0572 -0.2096  0.0100
  298loPI   C4B 4768   5.341  10.016   8.203 -0.0044 -0.1395  0.0174
  299loPI    C1 4769   3.909  13.133  10.343 -0.0786  0.0055 -0.0892
  299loPI    C2 4770   3.774  13.376  10.056 -0.0993 -0.0214 -0.1021
  299loPI    C3 4771   3.522  13.235  10.334 -0.0594  0.0866 -0.0105
  299loPI   PO4 4772   4.028  12.934  10.201  0.0072  0.1963  0.0614
  299loPI   GL1 4773   4.107  12.881   9.760 -0.0650  0.0663 -0.1019
  299loPI   GL2 4774   3.975  12.726   9.597  0.0535  0.6376 -0.0247
  299loPI   C1A 4775   4.231  13.218   9.457 -0.0472  0.0423 -0.0485
  299loPI   C2A 4776   4.267  13.258   9.081 -0.2037 -0.1199 -0.0281
  299loPI   C3A 4777   4.372  13.333   8.694  0.2435  0.0369 -0.0821
  299loPI   C4A 4778   4.400  13.576   8.279 -0.1801  0.0859 -0.1624
  299loPI   C5A 4779   4.163  13.547   7.988 -0.0761  0.2208 -0.0989
  299loPI   C6A 4780   4.003  13.213   7.756  0.2312  0.0594  0.0680
  299loPI   C1B 4781   4.028  12.768   9.120  0.0612  0.4951  0.1395
  299loPI   C2B 4782   4.051  12.953   8.738 -0.1037 -0.0713 -0.1570
  299loPI   C3B 4783   4.128  13.052   8.252 -0.0473  0.2097  0.1267
  299loPI   C4B 4784   4.250  12.764   7.964  0.1922 -0.2540 -0.0289
  300loPI    C1 4785   7.319  11.162  10.108  0.0650  0.0150 -0.1535
  300loPI    C2 4786   7.687  11.046  10.004  0.1820 -0.0282  0.2873
  300loPI    C3 4787   7.563  11.002  10.382 -0.2668  0.0152  0.1508
  300loPI   PO4 4788   7.187  11.070   9.922  0.0896 -0.2058 -0.3110
  300loPI   GL1 4789   7.157  11.284   9.519  0.1362  0.1418 -0.1660
  300loPI   GL2 4790   7.455  11.107   9.472 -0.2811  0.2209 -0.0222
  300loPI   C1A 4791   6.869  11.223   9.199  0.0386 -0.1601  0.0137
  300loPI   C2A 4792   6.835  11.502   8.895  0.0332 -0.1115 -0.1397
  300loPI   C3A 4793   6.754  11.441   8.407 -0.0480  0.1353 -0.1702
  300loPI   C4A 4794   6.595  11.393   7.998 -0.2530  0.2282 -0.0389
  300loPI   C5A 4795   6.162  11.350   7.833 -0.0330  0.2288  0.0427
  300loPI   C6A 4796   5.740  11.360   7.758  0.0819  0.2390 -0.1766
  300loPI   C1B 4797   7.856  10.824   9.364  0.1613  0.1294  0.1892
  300loPI   C2B 4798   7.972  10.747   8.949  0.2510  0.0514  0.2151
  300loPI   C3B 4799   8.014  10.580   8.534  0.0680  0.1762 -0.0668
  300loPI   C4B 4800   7.956  10.251   8.362  0.1423  0.1136  0.3361
  301loPI    C1 4801   4.835   9.138  10.483  0.1122 -0.2103  0.2524
  301loPI    C2 4802   4.462   9.022  10.393  0.0884  0.0637 -0.0209
  301loPI    C3 4803   4.528   9.387  10.544  0.2293 -0.0537  0.2084
  301loPI   PO4 4804   5.003   9.039  10.310 -0.1595  0.1776 -0.0971
  301loPI   GL1 4805   5.134   8.869   9.993 -0.0180  0.3582 -0.3355
  301loPI   GL2 4806   5.446   8.764   9.920  0.2463  0.3178  0.2121
  301loPI   C1A 4807   5.029   8.673   9.662  0.2154  0.0863  0.2839
  301loPI   C2A 4808   4.930   8.688   9.180  0.0703 -0.0369  0.0198
  301loPI   C3A 4809   4.997   8.780   8.743  0.1093  0.2674  0.0266
  301loPI   C4A 4810   5.069   8.789   8.427  0.0084 -0.0831 -0.0382
  301loPI   C5A 4811   4.934   9.137   8.207 -0.3398  0.0604 -0.0246
  301loPI   C6A 4812   4.562   9.258   7.976 -0.1403  0.0692  0.3512
  301loPI   C1B 4813   5.460   9.000   9.555 -0.3634  0.1202  0.0296
  301loPI   C2B 4814   5.448   8.888   9.099  0.1192  0.1525 -0.1350
  301loPI   C3B 4815   5.482   8.960   8.710  0.1987 -0.0566 -0.0210
  301loPI   C4B 4816   5.449   9.097   8.314  0.2134  0.0805  0.3357
  302loPI    C1 4817  12.904   5.266  10.656  0.0613  0.0611 -0.1075
  302loPI    C2 4818  13.191   5.115  10.890 -0.0085  0.0370 -0.0369
  302loPI    C3 4819  13.275   5.413  10.636  0.0748  0.0417 -0.0041
  302loPI   PO4 4820  12.802   5.006  10.575 -0.1147 -0.1182 -0.1573
  302loPI   GL1 4821  12.702   5.043  10.117 -0.0911 -0.0167  0.2538
  302loPI   GL2 4822  12.546   5.220   9.848  0.0736 -0.1756 -0.2153
  302loPI   C1A 4823  13.068   5.022   9.885 -0.1153  0.0138  0.0432
  302loPI   C2A 4824  13.287   4.893   9.596  0.0016 -0.0502 -0.2435
  302loPI   C3A 4825  13.311   4.934   9.226 -0.0142 -0.0797  0.1857
  302loPI   C4A 4826  13.429   5.051   8.800  0.0249  0.5305 -0.0884
  302loPI   C5A 4827  13.554   4.809   8.441 -0.0229 -0.2407 -0.0125
  302loPI   C6A 4828  13.616   4.814   7.927 -0.1689  0.1705  0.0602
  302loPI   C1B 4829  12.430   4.863   9.641 -0.1785  0.1496 -0.0434
  302loPI   C2B 4830  12.442   4.766   9.189  0.0550  0.0595 -0.2495
  302loPI   C3B 4831  12.521   4.815   8.739  0.1658  0.2108  0.5304
  302loPI   C4B 4832  12.582   4.544   8.414 -0.1764  0.0738  0.0098
  303loPI    C1 4833  11.645   5.494  10.736  0.3144 -0.2410  0.0225
  303loPI    C2 4834  11.287   5.315  10.722  0.3136 -0.2249 -0.1939
  303loPI    C3 4835  11.494   5.323  11.064 -0.0599  0.0941  0.0327
  303loPI   PO4 4836  11.670   5.562  10.511  0.0703 -0.0859 -0.0915
  303loPI   GL1 4837  11.834   5.504  10.106  0.0621  0.0468 -0.1812
  303loPI   GL2 4838  12.158   5.711  10.059 -0.0497  0.1440 -0.3159
  303loPI   C1A 4839  11.566   5.400   9.761 -0.0844  0.0016  0.2433
  303loPI   C2A 4840  11.516   5.258   9.446 -0.0196 -0.1560  0.0093
  303loPI   C3A 4841  11.552   5.220   9.035 -0.1404  0.4158  0.0894
  303loPI   C4A 4842  11.557   5.131   8.689  0.4472  0.1848  0.2057
  303loPI   C5A 4843  11.547   4.990   8.257  0.2127 -0.0512  0.0066
  303loPI   C6A 4844  11.597   4.916   7.830 -0.1980 -0.1121 -0.2526
  303loPI   C1B 4845  12.104   5.493   9.670  0.0404  0.0095  0.1310
  303loPI   C2B 4846  12.081   5.702   9.272 -0.1178 -0.1382 -0.1802
  303loPI   C3B 4847  11.897   5.525   8.827  0.1387 -0.2726  0.1652
  303loPI   C4B 4848  11.671   5.531   8.454  0.2866 -0.0730  0.0225
  304loPI    C1 4849  15.104   8.350  10.679  0.2674 -0.1568 -0.3475
  304loPI    C2 4850  15.298   8.664  10.833 -0.2536  0.0276 -0.0402
  304loPI    C3 4851  15.446   8.296  10.879  0.0955  0.1752  0.0521
  304loPI   PO4 4852  15.052   8.449  10.465 -0.0244 -0.4202  0.0376
  304loPI   GL1 4853  15.265   8.736  10.155 -0.1354 -0.1209  0.3394
  304loPI   GL2 4854  15.297   8.482   9.990 -0.0270 -0.0349 -0.2097
  304loPI   C1A 4855  15.392   8.910   9.762 -0.2225 -0.2344  0.1000
  304loPI   C2A 4856  15.263   8.872   9.250  0.0628  0.0232  0.3303
  304loPI   C3A 4857  15.335   8.757   8.775 -0.0900  0.0005 -0.2585
  304loPI   C4A 4858  15.062   8.716   8.357 -0.1911 -0.1512  0.1776
  304loPI   C5A 4859  14.716   8.996   8.063 -0.3234  0.2097  0.2517
  304loPI   C6A 4860  14.411   9.145   8.036  0.0080  0.0183  0.1427
  304loPI   C1B 4861  15.561   8.486   9.569  0.1328  0.0518  0.0650
  304loPI   C2B 4862  15.423   8.392   9.101  0.2715 -0.3130  0.1209
  304loPI   C3B 4863  15.531   8.307   8.631 -0.0912 -0.0091  0.1443
  304loPI   C4B 4864  15.375   8.353   8.116 -0.0157  0.0533  0.0186
  305loPI    C1 4865   5.681   8.136  10.523  0.3001 -0.0402  0.0902
  305loPI    C2 4866   5.487   8.461  10.394 -0.1242 -0.3263 -0.0133
  305loPI    C3 4867   5.586   8.427  10.780  0.2242  0.0703 -0.0611
  305loPI   PO4 4868   5.902   8.133  10.403  0.3495  0.1880  0.0446
  305loPI   GL1 4869   6.065   7.996   9.940  0.2764  0.0966  0.0028
  305loPI   GL2 4870   6.071   8.160   9.713 -0.2315  0.3315  0.1996
  305loPI   C1A 4871   5.794   7.769   9.728  0.2056 -0.0430  0.2935
  305loPI   C2A 4872   5.770   7.681   9.259  0.1598  0.0551  0.1831
  305loPI   C3A 4873   5.653   7.555   8.868 -0.1911  0.1554  0.2823
  305loPI   C4A 4874   5.551   7.420   8.370  0.0292  0.2404 -0.1160
  305loPI   C5A 4875   5.477   7.752   7.963 -0.0145 -0.0652  0.0172
  305loPI   C6A 4876   5.267   8.151   7.670 -0.1133 -0.1660 -0.2199
  305loPI   C1B 4877   5.866   8.187   9.370 -0.2611 -0.1312  0.1280
  305loPI   C2B 4878   5.786   8.097   8.947 -0.2169  0.0880  0.0939
  305loPI   C3B 4879   5.755   7.953   8.519 -0.0379  0.1360 -0.1780
  305loPI   C4B 4880   5.873   8.040   8.092 -0.0372 -0.1029  0.2916
  306loPI    C1 4881   5.584   3.114  10.349 -0.1066  0.3565  0.0401
  306loPI    C2 4882   5.740   3.029  10.707 -0.1574 -0.1433 -0.0494
  306loPI    C3 4883   5.362   3.155  10.679 -0.0171  0.3325  0.1039
  306loPI   PO4 4884   5.741   3.103  10.160  0.1710  0.0926  0.0714
  306loPI   GL1 4885   5.893   2.847   9.882  0.0289  0.2062 -0.0408
  306loPI   GL2 4886   5.520   2.715   9.879  0.0583 -0.0355 -0.0359
  306loPI   C1A 4887   5.736   3.087   9.498 -0.1068 -0.0801  0.0931
  306loPI   C2A 4888   5.963   2.979   9.106 -0.0277 -0.5828 -0.2284
  306loPI   C3A 4889   6.147   3.079   8.619 -0.2623 -0.0748 -0.3990
  306loPI   C4A 4890   6.435   3.117   8.301  0.1789  0.0877 -0.2243
  306loPI   C5A 4891   6.478   3.059   7.825 -0.1970 -0.2238  0.0187
  306loPI   C6A 4892   6.797   2.799   7.619 -0.0522 -0.3298 -0.1841
  306loPI   C1B 4893   5.535   2.571   9.530 -0.4184  0.0993  0.0218
  306loPI   C2B 4894   5.504   2.752   9.187 -0.2176 -0.1263  0.2008
  306loPI   C3B 4895   5.620   2.823   8.791 -0.0636  0.1327  0.1008
  306loPI   C4B 4896   5.845   2.756   8.404 -0.1783  0.2488 -0.0781
  307loPI    C1 4897  14.807   4.251  10.502  0.0253 -0.2971 -0.0426
  307loPI    C2 4898  14.948   4.443  10.823 -0.1050  0.0287 -0.1757
  307loPI    C3 4899  15.190   4.207  10.608  0.1212  0.2265 -0.1430
  307loPI   PO4 4900  14.717   4.450  10.321  0.0399 -0.1332 -0.2407
  307loPI   GL1 4901  14.467   4.342   9.976  0.3093  0.1541 -0.1908
  307loPI   GL2 4902  14.587   4.571   9.823 -0.0853  0.0809 -0.1496
  307loPI   C1A 4903  14.616   4.070   9.637  0.3003 -0.1047 -0.2478
  307loPI   C2A 4904  14.350   4.046   9.234 -0.0038  0.1029 -0.2689
  307loPI   C3A 4905  14.254   3.918   8.760  0.0583  0.1800  0.2389
  307loPI   C4A 4906  13.979   3.836   8.435 -0.0034  0.0183 -0.1994
  307loPI   C5A 4907  13.773   3.674   8.146 -0.0684 -0.0130  0.2531
  307loPI   C6A 4908  13.329   3.571   8.112 -0.2539 -0.1455  0.0069
  307loPI   C1B 4909  14.418   4.539   9.437 -0.0359 -0.0982 -0.2395
  307loPI   C2B 4910  14.258   4.414   8.967 -0.0331 -0.0455  0.2540
  307loPI   C3B 4911  14.067   4.377   8.602  0.1377 -0.4354 -0.1862
  307loPI   C4B 4912  13.582   4.338   8.414 -0.0622 -0.4408  0.1653
  308loPI    C1 4913   4.797  17.077  10.661 -0.0545 -0.0229 -0.2219
  308loPI    C2 4914   4.467  16.916  10.820 -0.1612  0.0357 -0.3816
  308loPI    C3 4915   4.827  16.782  10.929 -0.2346  0.0238 -0.1488
  308loPI   PO4 4916   4.721  17.024  10.400 -0.1619  0.0712  0.3556
  308loPI   GL1 4917   4.594  16.857   9.994 -0.0812 -0.1365  0.1562
  308loPI   GL2 4918   4.778  16.528   9.813  0.0715  0.0044  0.0672
  308loPI   C1A 4919   4.663  17.176   9.653  0.2768  0.0410  0.0904
  308loPI   C2A 4920   4.722  17.150   9.274  0.1040  0.1009  0.2818
  308loPI   C3A 4921   4.689  17.119   8.846 -0.0305 -0.1701  0.2445
  308loPI   C4A 4922   4.840  17.082   8.488 -0.3508  0.4411  0.0508
  308loPI   C5A 4923   4.730  17.179   8.052  0.2455  0.0544  0.1142
  308loPI   C6A 4924   4.759  16.946   7.583  0.1500 -0.0777  0.2509
  308loPI   C1B 4925   4.512  16.707   9.435  0.0087  0.2164  0.0344
  308loPI   C2B 4926   4.481  16.750   9.035 -0.0404  0.4936  0.2007
  308loPI   C3B 4927   4.504  16.642   8.558 -0.1086  0.1989  0.1695
  308loPI   C4B 4928   4.587  16.735   8.156  0.0621 -0.0126 -0.1433
  309loPI    C1 4929  13.412   5.870  10.713 -0.2373  0.2483  0.0335
  309loPI    C2 4930  13.524   5.983  11.080  0.3563  0.1020 -0.0916
  309loPI    C3 4931  13.615   5.617  10.948 -0.1780  0.0203 -0.2576
  309loPI   PO4 4932  13.448   6.085  10.593  0.0104 -0.0996 -0.0439
  309loPI   GL1 4933  13.676   6.222  10.218  0.0702  0.0890 -0.0748
  309loPI   GL2 4934  13.975   6.117  10.217 -0.3184 -0.1353 -0.1546
  309loPI   C1A 4935  13.588   6.277   9.799  0.0219 -0.2214  0.0788
  309loPI   C2A 4936  13.633   6.368   9.406  0.3460  0.1400  0.3543
  309loPI   C3A 4937  13.745   6.241   9.072 -0.1412  0.2385  0.0034
  309loPI   C4A 4938  13.780   6.010   8.776 -0.1035  0.2186 -0.2255
  309loPI   C5A 4939  13.606   5.812   8.330 -0.1435  0.0600 -0.0434
  309loPI   C6A 4940  13.833   5.746   7.848 -0.0856  0.0506 -0.1199
  309loPI   C1B 4941  14.054   6.133   9.799 -0.2995 -0.1482  0.0317
  309loPI   C2B 4942  14.170   6.243   9.350 -0.1538 -0.1056 -0.0698
  309loPI   C3B 4943  14.249   6.167   8.906  0.0552 -0.0781 -0.1783
  309loPI   C4B 4944  14.240   5.840   8.642 -0.0422 -0.0132 -0.0111
  310loPI    C1 4945  12.383  17.425  10.616  0.0508  0.0860  0.1575
  310loPI    C2 4946  12.635  17.138  10.733  0.1111  0.0763  0.0053
  310loPI    C3 4947  12.539  17.433  10.984  0.2673  0.0752  0.0673
  310loPI   PO4 4948  12.392  17.414  10.376 -0.0682 -0.1717  0.1134
  310loPI   GL1 4949  12.085  17.538   9.999  0.0076  0.2357  0.0332
  310loPI   GL2 4950  12.213  17.719   9.892  0.2563 -0.0035  0.1751
  310loPI   C1A 4951  11.771  17.514   9.623  0.3353 -0.3567 -0.1616
  310loPI   C2A 4952  11.599  17.466   9.219 -0.2339  0.2258 -0.0158
  310loPI   C3A 4953  11.701  17.298   8.877 -0.0004  0.0672  0.0712
  310loPI   C4A 4954  11.819  17.300   8.457  0.1056  0.0821 -0.1325
  310loPI   C5A 4955  11.604  17.424   8.091 -0.3716 -0.1574  0.3201
  310loPI   C6A 4956  11.297  17.645   7.842  0.1342 -0.0092  0.1107
  310loPI   C1B 4957  12.146  17.850   9.562  0.2396 -0.1747 -0.1047
  310loPI   C2B 4958  11.955  17.828   9.210 -0.2372  0.2065  0.0730
  310loPI   C3B 4959  11.583  17.874   8.961  0.0103  0.3998  0.1254
  310loPI   C4B 4960  11.475  17.767   8.553  0.1774 -0.1735  0.2080
  311loPI    C1 4961   0.793   1.878  10.526 -0.3218  0.0061 -0.1691
  311loPI    C2 4962   0.711   1.514  10.671 -0.1790  0.0759  0.0928
  311loPI    C3 4963   0.588   1.840  10.867  0.1698  0.1736  0.1549
  311loPI   PO4 4964   0.893   1.797  10.211  0.1286 -0.2281  0.1326
  311loPI   GL1 4965   0.997   1.781   9.743  0.0887  0.0263  0.0616
  311loPI   GL2 4966   0.630   1.783   9.659 -0.0991 -0.2052 -0.0847
  311loPI   C1A 4967   1.157   1.803   9.298 -0.2949  0.1406 -0.0233
  311loPI   C2A 4968   1.035   1.515   8.926 -0.0890  0.0535 -0.0598
  311loPI   C3A 4969   1.030   1.485   8.476 -0.1648  0.1862 -0.0998
  311loPI   C4A 4970   1.025   1.354   8.089  0.0695  0.1778  0.0784
  311loPI   C5A 4971   1.188   0.993   7.749 -0.1025 -0.2346  0.3074
  311loPI   C6A 4972   1.069   0.584   7.540  0.1217 -0.1460  0.1348
  311loPI   C1B 4973   0.724   1.569   9.312  0.2582  0.3178  0.0755
  311loPI   C2B 4974   0.588   1.220   9.079  0.0249 -0.0484  0.1474
  311loPI   C3B 4975   0.773   1.108   8.718  0.0591 -0.0089 -0.0130
  311loPI   C4B 4976   0.636   1.164   8.342  0.0363  0.1733  0.4295
  312loPI    C1 4977   4.203   3.992  10.444 -0.1237  0.2127 -0.0120
  312loPI    C2 4978   4.357   4.055  10.808 -0.1181  0.1915 -0.0108
  312loPI    C3 4979   4.112   3.745  10.744  0.2314 -0.0673 -0.1279
  312loPI   PO4 4980   4.317   4.184  10.282  0.0680  0.0049  0.2066
  312loPI   GL1 4981   4.311   4.158   9.910 -0.1311 -0.0481 -0.2463
  312loPI   GL2 4982   4.206   3.845   9.933  0.2379 -0.0424 -0.0404
  312loPI   C1A 4983   4.439   4.355   9.552  0.2357  0.2246  0.1489
  312loPI   C2A 4984   4.471   4.351   9.108  0.2991 -0.1520  0.0907
  312loPI   C3A 4985   4.572   4.341   8.711 -0.1835 -0.2181 -0.0052
  312loPI   C4A 4986   4.678   4.255   8.256  0.0722 -0.0141 -0.0679
  312loPI   C5A 4987   4.699   4.286   7.830 -0.0882  0.2171  0.0733
  312loPI   C6A 4988   4.923   4.116   7.405 -0.0359  0.0376 -0.0378
  312loPI   C1B 4989   4.275   3.829   9.544  0.2529  0.1034  0.2609
  312loPI   C2B 4990   4.335   3.892   9.063 -0.1404 -0.2135 -0.0460
  312loPI   C3B 4991   4.491   3.779   8.674 -0.0659 -0.3250 -0.0500
  312loPI   C4B 4992   4.519   3.761   8.309 -0.0793 -0.0996  0.2459
  313loPI    C1 4993  12.751   1.477  10.494  0.1798  0.0903 -0.2235
  313loPI    C2 4994  12.936   1.679  10.786 -0.2337 -0.0371  0.1385
  313loPI    C3 4995  13.111   1.358  10.623  0.0261  0.0690  0.2021
  313loPI   PO4 4996  12.634   1.637  10.343  0.1244  0.0458 -0.0345
  313loPI   GL1 4997  12.698   1.654   9.919 -0.0060 -0.0975 -0.1534
  313loPI   GL2 4998  12.466   1.766   9.798 -0.0432 -0.0404 -0.1166
  313loPI   C1A 4999  12.778   1.177   9.691  0.0226  0.2773 -0.1416
  313loPI   C2A 5000  12.745   1.043   9.234 -0.1813 -0.0157  0.0679
  313loPI   C3A 5001  12.844   1.039   8.848 -0.0599 -0.0072 -0.0560
  313loPI   C4A 5002  13.002   0.925   8.402  0.2904 -0.0564  0.1770
  313loPI   C5A 5003  12.861   1.172   8.072 -0.0592 -0.0679 -0.1712
  313loPI   C6A 5004  12.651   1.291   7.692 -0.0693  0.0362  0.3251
  313loPI   C1B 5005  12.591   1.917   9.416 -0.1423 -0.1536 -0.1541
  313loPI   C2B 5006  12.870   1.975   9.079  0.0976 -0.2149  0.1214
  313loPI   C3B 5007  13.212   1.889   8.833 -0.1300  0.1726 -0.3024
  313loPI   C4B 5008  13.322   2.003   8.402  0.0807  0.0879 -0.0397
  314loPI    C1 5009  11.272   9.817  10.454  0.1090 -0.0587  0.3357
  314loPI    C2 5010  11.430  10.008  10.768  0.2710  0.0765  0.1744
  314loPI    C3 5011  11.668   9.812  10.514  0.1333 -0.0947  0.1761
  314loPI   PO4 5012  11.123  10.046  10.328  0.0346 -0.0557 -0.4457
  314loPI   GL1 5013  11.248  10.202  10.043  0.0435  0.2710  0.2241
  314loPI   GL2 5014  11.566  10.109  10.088 -0.1489 -0.1122  0.2422
  314loPI   C1A 5015  11.282  10.156   9.504  0.0322 -0.1659  0.0422
  314loPI   C2A 5016  11.244  10.053   9.078  0.1553 -0.0617 -0.2700
  314loPI   C3A 5017  11.245  10.126   8.670  0.0071  0.0089 -0.2448
  314loPI   C4A 5018  11.270  10.249   8.236  0.1111  0.0557 -0.3290
  314loPI   C5A 5019  11.221  10.091   7.830 -0.3697  0.1193  0.2500
  314loPI   C6A 5020  11.286   9.678   7.718 -0.0071 -0.1588 -0.0308
  314loPI   C1B 5021  11.782  10.284   9.750 -0.3706  0.0885 -0.0387
  314loPI   C2B 5022  11.861  10.253   9.390 -0.0354  0.3045 -0.2265
  314loPI   C3B 5023  11.759  10.109   8.957  0.0436  0.3115  0.1539
  314loPI   C4B 5024  11.764  10.009   8.509 -0.1836 -0.0933 -0.0432
  315loPI    C1 5025  18.004   8.928  10.287 -0.0662 -0.0417  0.1881
  315loPI    C2 5026  18.290   8.758  10.508  0.0715  0.2454  0.2360
  315loPI    C3 5027  18.171   9.131  10.588 -0.1177  0.2297  0.0375
  315loPI   PO4 5028  17.963   8.884  10.003 -0.2011  0.0105  0.1499
  315loPI   GL1 5029  17.812   9.097   9.630  0.2584 -0.0242  0.2443
  315loPI   GL2 5030  17.854   8.717   9.523  0.1482  0.0524  0.1503
  315loPI   C1A 5031  18.051   9.239   9.307  0.1007 -0.0262 -0.0938
  315loPI   C2A 5032  17.964   9.536   8.998 -0.3964  0.1079 -0.1335
  315loPI   C3A 5033  17.994   9.685   8.599 -0.3273 -0.2867  0.2522
  315loPI   C4A 5034  18.088   9.662   8.139  0.0768  0.0899 -0.2647
  315loPI   C5A 5035  18.284   9.879   7.804 -0.1172  0.1216 -0.1999
  315loPI   C6A 5036  18.484   9.744   7.412 -0.0694 -0.0990  0.0425
  315loPI   C1B 5037  18.032   8.744   9.129  0.3217  0.2277  0.0599
  315loPI   C2B 5038  17.859   8.689   8.794 -0.0772 -0.1798  0.2147
  315loPI   C3B 5039  17.835   8.894   8.418 -0.1328  0.0394  0.2333
  315loPI   C4B 5040  17.892   9.212   8.065 -0.2573 -0.0006  0.0982
  316loPI    C1 5041   9.556  11.831  10.398 -0.0229 -0.1722  0.0383
  316loPI    C2 5042   9.801  11.720  10.101  0.0255 -0.1072  0.0538
  316loPI    C3 5043   9.822  12.091  10.250 -0.0289 -0.1260  0.1086
  316loPI   PO4 5044   9.339  11.702  10.294 -0.4391 -0.1597  0.0784
  316loPI   GL1 5045   9.205  11.784   9.907 -0.1067  0.1257 -0.0636
  316loPI   GL2 5046   9.423  12.058   9.912  0.0054  0.5180  0.0120
  316loPI   C1A 5047   9.201  11.803   9.480  0.0578 -0.2146 -0.1205
  316loPI   C2A 5048   9.338  11.827   9.070  0.1189  0.2419  0.1652
  316loPI   C3A 5049   9.307  11.946   8.649  0.2031 -0.1926 -0.2197
  316loPI   C4A 5050   9.277  12.122   8.308  0.1184 -0.0418 -0.1968
  316loPI   C5A 5051   9.394  12.290   7.880  0.0723 -0.1515 -0.0831
  316loPI   C6A 5052   9.619  12.519   7.557  0.0127 -0.0360  0.3499
  316loPI   C1B 5053   9.782  12.021   9.588  0.0785 -0.0565  0.1506
  316loPI   C2B 5054   9.761  12.053   9.227  0.0668  0.1561  0.1175
  316loPI   C3B 5055   9.842  12.128   8.792 -0.2373  0.0652 -0.0068
  316loPI   C4B 5056   9.844  12.082   8.500 -0.2248 -0.0107 -0.5346
  317loPI    C1 5057  15.308   4.666  10.503 -0.1289 -0.3572  0.2007
  317loPI    C2 5058  15.620   4.483  10.674  0.0097 -0.0718  0.2607
  317loPI    C3 5059  15.436   4.782  10.864 -0.2153 -0.1477  0.1653
  317loPI   PO4 5060  15.294   4.650  10.203 -0.0883  0.0588  0.1781
  317loPI   GL1 5061  15.158   4.567   9.768  0.2501  0.0074 -0.1013
  317loPI   GL2 5062  15.390   4.501   9.425 -0.0050 -0.4023  0.0942
  317loPI   C1A 5063  14.913   4.557   9.411  0.3492  0.1956  0.2459
  317loPI   C2A 5064  14.752   4.327   9.064 -0.0371 -0.3787 -0.0636
  317loPI   C3A 5065  14.678   4.310   8.636  0.1810  0.1921  0.0445
  317loPI   C4A 5066  14.431   4.181   8.298 -0.3025 -0.0082 -0.4606
  317loPI   C5A 5067  14.339   4.052   7.933 -0.1125 -0.0637 -0.0514
  317loPI   C6A 5068  14.583   3.847   7.640  0.1512  0.0962  0.0402
  317loPI   C1B 5069  15.165   4.525   8.927  0.4900  0.0105  0.0608
  317loPI   C2B 5070  15.105   4.501   8.490 -0.1887  0.2601  0.1734
  317loPI   C3B 5071  15.028   4.467   8.090  0.1130  0.0136 -0.0323
  317loPI   C4B 5072  14.785   4.194   7.916  0.2406  0.0604 -0.0257
  318loPI    C1 5073   1.790   1.370  10.475 -0.1219  0.0795  0.0784
  318loPI    C2 5074   1.556   1.403  10.798  0.0392 -0.0182  0.2065
  318loPI    C3 5075   1.899   1.197  10.819  0.0470 -0.0321 -0.0295
  318loPI   PO4 5076   1.626   1.373  10.282 -0.0813  0.1886  0.0716
  318loPI   GL1 5077   1.739   1.429   9.889 -0.3771 -0.3344 -0.2616
  318loPI   GL2 5078   1.422   1.455   9.748  0.1045 -0.0653  0.0042
  318loPI   C1A 5079   1.945   1.273   9.527  0.0873  0.1660  0.0092
  318loPI   C2A 5080   1.950   1.133   9.107 -0.3389  0.2547  0.3462
  318loPI   C3A 5081   2.012   1.197   8.659 -0.1066 -0.3096  0.2273
  318loPI   C4A 5082   2.126   1.180   8.202  0.2419  0.0914 -0.2988
  318loPI   C5A 5083   2.110   1.077   7.785  0.1027  0.0716 -0.1852
  318loPI   C6A 5084   2.093   0.781   7.448  0.0541 -0.1214  0.3705
  318loPI   C1B 5085   1.580   1.491   9.247  0.0358  0.1924 -0.0201
  318loPI   C2B 5086   1.538   1.374   8.801  0.1881  0.2729 -0.0744
  318loPI   C3B 5087   1.585   1.251   8.346  0.0179 -0.2846  0.0651
  318loPI   C4B 5088   1.615   1.206   7.938  0.0461 -0.0820 -0.1981
  319loPI    C1 5089   6.094   5.021  10.636  0.3688  0.0162 -0.2405
  319loPI    C2 5090   6.133   5.271  10.946  0.0145 -0.1502 -0.0563
  319loPI    C3 5091   6.405   4.983  10.886  0.1714 -0.0163  0.0038
  319loPI   PO4 5092   6.016   5.200  10.407 -0.1871 -0.4954  0.0953
  319loPI   GL1 5093   5.902   5.181   9.983  0.0260  0.0188 -0.0590
  319loPI   GL2 5094   5.667   4.987   9.766 -0.4494 -0.1222 -0.0335
  319loPI   C1A 5095   6.189   5.049   9.711 -0.1935 -0.1439  0.1837
  319loPI   C2A 5096   6.365   5.079   9.260 -0.1302 -0.2481  0.1386
  319loPI   C3A 5097   6.366   5.161   8.834  0.1918  0.0336  0.0372
  319loPI   C4A 5098   6.262   5.278   8.429  0.4750 -0.3544  0.0857
  319loPI   C5A 5099   6.132   5.516   8.119  0.0534 -0.3036  0.1364
  319loPI   C6A 5100   6.489   5.658   7.773 -0.2235 -0.1621  0.4177
  319loPI   C1B 5101   5.869   5.178   9.343  0.2381  0.1212 -0.2064
  319loPI   C2B 5102   5.845   5.210   8.823 -0.4328 -0.2287 -0.1260
  319loPI   C3B 5103   5.733   5.089   8.354  0.0340 -0.0331 -0.0132
  319loPI   C4B 5104   5.507   4.895   8.103 -0.1056  0.1498  0.2443
  320loPI    C1 5105   2.009   8.137  10.544  0.1373 -0.0340 -0.1484
  320loPI    C2 5106   1.982   8.412  10.834 -0.0143 -0.1061 -0.0931
  320loPI    C3 5107   2.340   8.272  10.723  0.0408 -0.1178  0.0969
  320loPI   PO4 5108   1.906   8.099  10.302 -0.0626  0.3062 -0.0428
  320loPI   GL1 5109   1.804   8.072   9.860  0.2755 -0.3153  0.2572
  320loPI   GL2 5110   2.133   7.978   9.849  0.1356 -0.0718  0.0305
  320loPI   C1A 5111   1.700   7.822   9.468  0.1958 -0.4019 -0.1081
  320loPI   C2A 5112   1.678   7.756   9.079 -0.4345  0.0405  0.0177
  320loPI   C3A 5113   1.732   7.837   8.648 -0.1600 -0.1160  0.1957
  320loPI   C4A 5114   1.653   7.848   8.215 -0.0257 -0.0285  0.1149
  320loPI   C5A 5115   1.501   7.650   7.780  0.2536 -0.3898  0.4094
  320loPI   C6A 5116   1.250   7.340   7.532 -0.0365 -0.0089 -0.0523
  320loPI   C1B 5117   2.250   7.884   9.442 -0.0927 -0.0038  0.0732
  320loPI   C2B 5118   2.162   7.795   9.023 -0.1653 -0.3333  0.1602
  320loPI   C3B 5119   2.251   7.757   8.641  0.0674  0.0069 -0.0963
  320loPI   C4B 5120   2.248   7.781   8.185  0.0041 -0.2133 -0.1642
  321loPI    C1 5121   1.693   2.236  10.245  0.0760  0.2046 -0.0866
  321loPI    C2 5122   1.894   2.567  10.343 -0.0415  0.1621  0.3164
  321loPI    C3 5123   1.714   2.351  10.627  0.1113 -0.3013  0.0711
  321loPI   PO4 5124   1.586   2.299  10.017 -0.1009 -0.2670 -0.1991
  321loPI   GL1 5125   1.804   2.460   9.696  0.3092 -0.0941  0.2712
  321loPI   GL2 5126   1.978   2.709   9.655  0.1844 -0.1091 -0.1298
  321loPI   C1A 5127   2.015   2.291   9.380 -0.0880  0.1180  0.0628
  321loPI   C2A 5128   2.021   2.178   8.777  0.0723  0.1056  0.0282
  321loPI   C3A 5129   2.103   2.168   8.316  0.1924  0.2597 -0.3539
  321loPI   C4A 5130   2.181   2.081   7.841  0.2245 -0.0399 -0.1565
  321loPI   C5A 5131   2.296   2.214   7.416  0.5661  0.2542 -0.1581
  321loPI   C6A 5132   2.294   2.659   7.224  0.0027  0.0405  0.1050
  321loPI   C1B 5133   2.006   2.799   9.199 -0.3102  0.3310 -0.4148
  321loPI   C2B 5134   2.052   2.633   8.822 -0.2350 -0.1969 -0.1834
  321loPI   C3B 5135   1.984   2.621   8.489  0.3098  0.0977  0.2819
  321loPI   C4B 5136   2.160   2.658   8.057 -0.3973 -0.2920  0.2229
  322loPI    C1 5137   5.767  13.476  10.305 -0.0879 -0.2039 -0.0870
  322loPI    C2 5138   5.726  13.152  10.536  0.1229 -0.0219  0.2125
  322loPI    C3 5139   5.965  13.451  10.652  0.0950  0.1504 -0.1616
  322loPI   PO4 5140   5.821  13.435  10.044  0.2970 -0.2397  0.3458
  322loPI   GL1 5141   5.620  13.540   9.727 -0.3333 -0.1710  0.3580
  322loPI   GL2 5142   5.496  13.803   9.530  0.0786 -0.1760  0.0858
  322loPI   C1A 5143   5.748  13.495   9.320 -0.4767  0.0219 -0.1433
  322loPI   C2A 5144   5.941  13.189   8.910 -0.0509 -0.0499  0.0820
  322loPI   C3A 5145   5.821  13.104   8.449  0.1845  0.1831 -0.1253
  322loPI   C4A 5146   5.990  12.657   8.163  0.1822  0.0603 -0.0615
  322loPI   C5A 5147   6.162  12.292   7.690  0.3149 -0.0510 -0.0296
  322loPI   C6A 5148   6.304  12.375   7.366  0.1855  0.0607  0.3371
  322loPI   C1B 5149   5.550  13.959   9.177  0.0957  0.0278  0.2367
  322loPI   C2B 5150   5.711  13.991   8.719  0.0516  0.1335 -0.2106
  322loPI   C3B 5151   5.777  13.910   8.268 -0.0004  0.0007 -0.3386
  322loPI   C4B 5152   5.783  14.061   7.838 -0.1389  0.0994 -0.1994
  323loPI    C1 5153   6.585   5.415  10.757  0.0785  0.0902 -0.1547
  323loPI    C2 5154   6.464   5.644  11.062 -0.1829 -0.2839  0.0311
  323loPI    C3 5155   6.693   5.324  11.131  0.0313 -0.1856 -0.2060
  323loPI   PO4 5156   6.559   5.560  10.538  0.0751  0.1250  0.3704
  323loPI   GL1 5157   6.431   5.418  10.117  0.2813  0.1279 -0.1468
  323loPI   GL2 5158   6.727   5.565  10.004 -0.0396  0.4618 -0.1731
  323loPI   C1A 5159   6.249   5.553   9.717  0.1817  0.0575  0.0920
  323loPI   C2A 5160   6.245   5.539   9.364  0.0282 -0.1818  0.3952
  323loPI   C3A 5161   6.210   5.648   8.884  0.2597 -0.0844  0.0244
  323loPI   C4A 5162   5.957   5.780   8.512  0.0108 -0.1222 -0.0808
  323loPI   C5A 5163   5.671   5.742   8.186  0.3104  0.0897  0.0668
  323loPI   C6A 5164   5.700   5.830   7.665  0.0359  0.1546 -0.1699
  323loPI   C1B 5165   7.035   5.634   9.743  0.0129 -0.1897  0.0471
  323loPI   C2B 5166   7.056   5.726   9.325  0.0597  0.0467 -0.3393
  323loPI   C3B 5167   7.023   5.771   8.933 -0.1536  0.0451  0.2987
  323loPI   C4B 5168   7.060   5.796   8.464  0.1954 -0.0999 -0.2706
  324loPI    C1 5169  12.317   5.168  10.629 -0.2359  0.2039  0.1249
  324loPI    C2 5170  11.982   5.171  10.847 -0.2986 -0.1012  0.0367
  324loPI    C3 5171  12.288   4.936  10.953 -0.2435 -0.0811 -0.0758
  324loPI   PO4 5172  12.177   5.205  10.416  0.2986 -0.1863 -0.2858
  324loPI   GL1 5173  12.088   5.032  10.046  0.0789 -0.0819 -0.1225
  324loPI   GL2 5174  11.974   4.702  10.020  0.2367  0.2263  0.1099
  324loPI   C1A 5175  11.943   5.072   9.656  0.0666  0.0855  0.2673
  324loPI   C2A 5176  12.022   5.194   9.222  0.1669  0.1393  0.1199
  324loPI   C3A 5177  11.970   4.977   8.915 -0.0433  0.0890 -0.0613
  324loPI   C4A 5178  12.092   5.145   8.563 -0.3598 -0.0190 -0.1999
  324loPI   C5A 5179  12.377   5.201   8.191  0.2237  0.1039  0.0784
  324loPI   C6A 5180  12.712   4.961   7.961  0.1838  0.2763  0.0105
  324loPI   C1B 5181  12.029   4.586   9.540 -0.0266 -0.1607  0.0812
  324loPI   C2B 5182  12.014   4.454   9.039  0.0226 -0.0892  0.2288
  324loPI   C3B 5183  12.063   4.551   8.576 -0.0918 -0.1422 -0.3027
  324loPI   C4B 5184  11.999   4.819   8.181  0.1820 -0.0339  0.0976
  325loPI    C1 5185   4.260   8.613  10.674 -0.0517 -0.0715 -0.0657
  325loPI    C2 5186   3.869   8.562  10.739 -0.0741  0.0947 -0.0637
  325loPI    C3 5187   4.025   8.930  10.744  0.1049  0.0182  0.0615
  325loPI   PO4 5188   4.273   8.429  10.375  0.4643  0.0882  0.0732
  325loPI   GL1 5189   4.268   8.474   9.946  0.2041  0.0932 -0.0249
  325loPI   GL2 5190   4.018   8.232   9.786 -0.0202 -0.1086 -0.1474
  325loPI   C1A 5191   4.522   8.501   9.626 -0.1826  0.1902 -0.1677
  325loPI   C2A 5192   4.384   8.541   9.180 -0.0950 -0.1025  0.2535
  325loPI   C3A 5193   4.455   8.573   8.826  0.1017  0.2060 -0.1757
  325loPI   C4A 5194   4.348   8.594   8.508 -0.2444 -0.0642 -0.0468
  325loPI   C5A 5195   4.600   8.742   8.167  0.1863  0.1203  0.2857
  325loPI   C6A 5196   4.647   8.745   7.754 -0.0244 -0.1813 -0.0492
  325loPI   C1B 5197   3.929   8.262   9.276  0.1196  0.0604  0.0761
  325loPI   C2B 5198   4.000   8.431   8.787  0.1624 -0.0238 -0.2998
  325loPI   C3B 5199   3.893   8.327   8.375 -0.1806  0.3646  0.0887
  325loPI   C4B 5200   3.850   8.579   8.022  0.2835  0.0350  0.3578
  326loPI    C1 5201   9.400  15.451  10.424 -0.1294  0.5515 -0.0436
  326loPI    C2 5202   9.030  15.372  10.295 -0.0747  0.0131  0.1049
  326loPI    C3 5203   9.116  15.345  10.685  0.1451  0.0385  0.0590
  326loPI   PO4 5204   9.449  15.696  10.261  0.0207  0.0578  0.1156
  326loPI   GL1 5205   9.406  15.713   9.835  0.2653  0.3042 -0.0875
  326loPI   GL2 5206   9.703  15.583   9.780  0.1952  0.1769  0.0637
  326loPI   C1A 5207   9.345  15.592   9.444 -0.0260  0.2312 -0.2453
  326loPI   C2A 5208   9.395  15.417   9.020 -0.3211 -0.0398  0.1901
  326loPI   C3A 5209   9.406  15.235   8.678  0.2109  0.0424 -0.0523
  326loPI   C4A 5210   9.488  15.045   8.339 -0.0122  0.1645  0.0584
  326loPI   C5A 5211   9.149  14.682   8.246  0.0197  0.1267  0.2616
  326loPI   C6A 5212   9.114  14.258   8.038  0.0229 -0.0447 -0.2147
  326loPI   C1B 5213   9.805  15.641   9.365  0.0699 -0.0208  0.0149
  326loPI   C2B 5214   9.882  15.363   8.965  0.0707  0.2554  0.2497
  326loPI   C3B 5215   9.964  15.194   8.623  0.1308  0.0206  0.1469
  326loPI   C4B 5216   9.913  14.936   8.174  0.0546 -0.3624 -0.2030
  327loPI    C1 5217  16.550  13.737  10.450 -0.3910  0.0103  0.2048
  327loPI    C2 5218  16.734  14.047  10.623  0.0017 -0.0280 -0.1275
  327loPI    C3 5219  16.789  13.677  10.765 -0.0488 -0.0071 -0.0524
  327loPI   PO4 5220  16.651  13.722  10.184 -0.2046  0.0523 -0.1824
  327loPI   GL1 5221  16.900  13.441   9.863 -0.0206 -0.0047  0.2814
  327loPI   GL2 5222  16.706  13.639   9.681  0.0273  0.0854  0.1246
  327loPI   C1A 5223  17.188  13.480   9.472  0.0621  0.1625  0.1106
  327loPI   C2A 5224  17.241  13.409   8.987  0.1295  0.1375  0.2700
  327loPI   C3A 5225  17.228  13.333   8.535 -0.1076 -0.0441  0.4603
  327loPI   C4A 5226  17.204  13.569   8.194  0.0175 -0.3353  0.4339
  327loPI   C5A 5227  17.312  13.816   7.919 -0.0096 -0.0014  0.1897
  327loPI   C6A 5228  17.360  14.189   7.681  0.0308  0.0229 -0.0038
  327loPI   C1B 5229  16.532  13.544   9.303  0.1737 -0.1143  0.2062
  327loPI   C2B 5230  16.326  13.770   8.966  0.0420  0.0471  0.2849
  327loPI   C3B 5231  16.197  13.580   8.565  0.0649  0.0904 -0.1390
  327loPI   C4B 5232  15.951  13.496   8.173  0.0392 -0.0714  0.2674
  328loPI    C1 5233  12.224  11.531  10.903 -0.0886  0.1814  0.0420
  328loPI    C2 5234  12.512  11.808  10.882  0.0644  0.0107 -0.1584
  328loPI    C3 5235  12.376  11.688  11.238  0.3611 -0.0283 -0.0557
  328loPI   PO4 5236  12.302  11.322  10.795  0.0442 -0.1238  0.0524
  328loPI   GL1 5237  12.138  11.185  10.386  0.1480  0.1310 -0.0845
  328loPI   GL2 5238  12.257  10.962  10.278  0.0622 -0.2713  0.1489
  328loPI   C1A 5239  11.989  11.212   9.944 -0.0851  0.1556  0.0332
  328loPI   C2A 5240  11.822  11.198   9.462  0.0103  0.1878 -0.2739
  328loPI   C3A 5241  11.739  11.038   9.091 -0.5309  0.1590 -0.0085
  328loPI   C4A 5242  11.830  11.009   8.702 -0.2223 -0.2646  0.1508
  328loPI   C5A 5243  11.696  11.031   8.180 -0.3990 -0.0129  0.0457
  328loPI   C6A 5244  11.391  11.220   7.866 -0.1177 -0.0532  0.1705
  328loPI   C1B 5245  12.575  10.864   9.984  0.0543 -0.0334 -0.2569
  328loPI   C2B 5246  12.629  10.703   9.614 -0.0284  0.2750 -0.2007
  328loPI   C3B 5247  12.629  10.645   9.190 -0.1151 -0.1200  0.0281
  328loPI   C4B 5248  12.569  10.596   8.774  0.1087  0.0682  0.1051
  329loPI    C1 5249  14.963  10.309  10.798 -0.0323  0.0726  0.1144
  329loPI    C2 5250  15.082  10.520  11.116 -0.0112  0.0770  0.1035
  329loPI    C3 5251  15.123  10.122  11.114 -0.1070  0.0667  0.1491
  329loPI   PO4 5252  14.893  10.424  10.645  0.3002 -0.1501 -0.4731
  329loPI   GL1 5253  14.496  10.397  10.360 -0.1935  0.1196  0.2309
  329loPI   GL2 5254  14.656  10.216  10.293  0.2147 -0.2139  0.4502
  329loPI   C1A 5255  14.531  10.499   9.901 -0.0276  0.0899 -0.1741
  329loPI   C2A 5256  14.569  10.366   9.521 -0.0283  0.4045  0.1024
  329loPI   C3A 5257  14.435  10.271   9.074  0.1978 -0.0366 -0.3322
  329loPI   C4A 5258  14.343  10.140   8.577 -0.1323 -0.0188  0.2991
  329loPI   C5A 5259  14.167  10.049   8.180 -0.0728  0.1900  0.0714
  329loPI   C6A 5260  13.928   9.813   7.974  0.3313  0.0941 -0.2587
  329loPI   C1B 5261  14.700   9.975   9.969 -0.0418 -0.1113 -0.0752
  329loPI   C2B 5262  14.725   9.924   9.497 -0.1559  0.0772 -0.1515
  329loPI   C3B 5263  14.722   9.784   9.131 -0.0229 -0.1155  0.0288
  329loPI   C4B 5264  14.747   9.767   8.771 -0.0842  0.0334  0.1093
  330loPI    C1 5265   9.006   5.601  10.830 -0.1636 -0.0580  0.0742
  330loPI    C2 5266   8.835   5.894  11.041  0.0241  0.1344 -0.0360
  330loPI    C3 5267   8.980   5.571  11.228 -0.1032  0.1520  0.0953
  330loPI   PO4 5268   9.082   5.729  10.611  0.3369  0.1285 -0.4562
  330loPI   GL1 5269   9.136   5.584  10.157 -0.2569  0.0716 -0.4083
  330loPI   GL2 5270   9.047   5.282  10.079 -0.2702  0.1786  0.0096
  330loPI   C1A 5271   8.896   5.759   9.816 -0.2510 -0.1136  0.2799
  330loPI   C2A 5272   8.898   5.865   9.373 -0.1538  0.1804  0.2682
  330loPI   C3A 5273   8.955   5.853   9.002 -0.4432  0.1155  0.1755
  330loPI   C4A 5274   8.921   5.873   8.526 -0.0655 -0.0103  0.0018
  330loPI   C5A 5275   9.004   5.830   8.068 -0.0121  0.2853  0.1778
  330loPI   C6A 5276   8.948   5.889   7.563  0.2032  0.0980 -0.3248
  330loPI   C1B 5277   9.221   5.344   9.618 -0.1595  0.1322 -0.0391
  330loPI   C2B 5278   9.179   5.408   9.170  0.1119  0.2337 -0.1020
  330loPI   C3B 5279   9.106   5.425   8.752  0.3274  0.0405  0.3062
  330loPI   C4B 5280   9.118   5.380   8.281 -0.1040  0.0265  0.0359
  331loPI    C1 5281  18.205   2.127  10.084 -0.0156 -0.1295 -0.0881
  331loPI    C2 5282  18.542   2.123  10.300  0.0553 -0.3432 -0.1999
  331loPI    C3 5283  18.192   2.200  10.477  0.1732 -0.0146 -0.1020
  331loPI   PO4 5284  18.238   1.933   9.908  0.2618 -0.0650 -0.0794
  331loPI   GL1 5285  18.493   1.812   9.606  0.1458  0.4018 -0.1522
  331loPI   GL2 5286  18.779   1.886   9.419 -0.0932  0.0329  0.2675
  331loPI   C1A 5287  18.314   1.705   9.147 -0.1865 -0.3572  0.1923
  331loPI   C2A 5288  18.396   1.616   8.704  0.0776 -0.3523 -0.4809
  331loPI   C3A 5289  18.297   1.596   8.314 -0.1715 -0.1860  0.0577
  331loPI   C4A 5290  18.122   1.642   7.957 -0.1217  0.1682 -0.3815
  331loPI   C5A 5291  18.356   1.745   7.600 -0.2893  0.1641 -0.0021
  331loPI   C6A 5292  18.603   1.711   7.244  0.1950  0.2623  0.2549
  331loPI   C1B 5293  18.922   1.732   9.062 -0.0103 -0.1531  0.1843
  331loPI   C2B 5294  19.069   1.594   8.682 -0.0359 -0.2259 -0.1049
  331loPI   C3B 5295  19.169   1.679   8.192 -0.1043  0.1753  0.0936
  331loPI   C4B 5296  19.351   1.831   7.763  0.3026  0.4345  0.1359
  332loPI    C1 5297   6.665   2.808  10.542  0.1349  0.0307  0.2702
  332loPI    C2 5298   6.616   2.471  10.751 -0.0655 -0.0879  0.0365
  332loPI    C3 5299   6.394   2.793  10.836 -0.1973 -0.1581 -0.0381
  332loPI   PO4 5300   6.700   2.727  10.353  0.3140 -0.2337  0.0609
  332loPI   GL1 5301   6.821   2.562  10.002  0.0332 -0.2382  0.2417
  332loPI   GL2 5302   6.967   2.840   9.925  0.2056  0.2184  0.0788
  332loPI   C1A 5303   6.666   2.448   9.602  0.0485 -0.1597  0.1780
  332loPI   C2A 5304   6.503   2.289   9.275 -0.2421 -0.2809  0.0486
  332loPI   C3A 5305   6.629   2.129   8.850  0.1942 -0.0562 -0.2461
  332loPI   C4A 5306   6.424   2.029   8.516  0.0454 -0.1575 -0.0156
  332loPI   C5A 5307   6.382   2.129   8.134 -0.1459  0.2424  0.0833
  332loPI   C6A 5308   6.483   2.062   7.736  0.1571 -0.1637 -0.2474
  332loPI   C1B 5309   7.053   2.729   9.538 -0.0835 -0.0920 -0.1842
  332loPI   C2B 5310   6.897   2.598   9.144  0.0235  0.2942  0.1551
  332loPI   C3B 5311   6.811   2.630   8.689  0.1117 -0.0373  0.5432
  332loPI   C4B 5312   6.911   2.573   8.291  0.0392 -0.0126 -0.0243
  333loPI    C1 5313  17.763   2.490  10.280 -0.0628 -0.0158 -0.0669
  333loPI    C2 5314  17.825   2.868  10.166 -0.0723  0.0571  0.1662
  333loPI    C3 5315  18.056   2.704  10.448  0.2054 -0.2482 -0.2274
  333loPI   PO4 5316  17.726   2.393  10.006  0.1174  0.5417 -0.0725
  333loPI   GL1 5317  18.012   2.364   9.647 -0.3175  0.0656 -0.2520
  333loPI   GL2 5318  17.824   2.448   9.422 -0.0597 -0.1197  0.1533
  333loPI   C1A 5319  18.239   2.187   9.323 -0.0310  0.3807 -0.0009
  333loPI   C2A 5320  18.115   2.081   8.883  0.0808 -0.0306  0.2056
  333loPI   C3A 5321  18.170   2.218   8.482 -0.1722 -0.1281 -0.2330
  333loPI   C4A 5322  18.389   2.086   8.096  0.1556 -0.0824 -0.0842
  333loPI   C5A 5323  18.464   2.203   7.671 -0.0633  0.0059 -0.2491
  333loPI   C6A 5324  18.578   2.204   7.300 -0.2912 -0.0751 -0.0544
  333loPI   C1B 5325  17.427   2.522   9.165 -0.4295 -0.1275  0.0311
  333loPI   C2B 5326  17.223   2.487   8.720  0.0409  0.1395  0.2882
  333loPI   C3B 5327  17.295   2.694   8.332  0.0785 -0.0315  0.1752
  333loPI   C4B 5328  17.087   3.131   8.121 -0.2714 -0.0030 -0.2960
  334loPI    C1 5329  11.456   1.201  10.999  0.1678  0.1024 -0.0240
  334loPI    C2 5330  11.649   0.852  11.026 -0.0250 -0.0144 -0.1345
  334loPI    C3 5331  11.620   1.090  11.347 -0.0192 -0.1672 -0.0197
  334loPI   PO4 5332  11.296   1.156  10.761 -0.0254 -0.0793  0.1074
  334loPI   GL1 5333  11.381   1.165  10.288 -0.1893  0.1880 -0.0214
  334loPI   GL2 5334  11.353   1.425  10.143 -0.1230  0.1671  0.3216
  334loPI   C1A 5335  11.409   0.849  10.001 -0.0837  0.0750 -0.2120
  334loPI   C2A 5336  11.394   0.750   9.545 -0.2253 -0.0709  0.0120
  334loPI   C3A 5337  11.291   0.733   9.186  0.1646 -0.1637  0.1458
  334loPI   C4A 5338  11.163   0.875   8.814  0.1497 -0.0094  0.1289
  334loPI   C5A 5339  10.954   1.180   8.463  0.0749 -0.0750 -0.0821
  334loPI   C6A 5340  10.585   1.496   8.335 -0.1521  0.2111 -0.0194
  334loPI   C1B 5341  11.053   1.608   9.722  0.3739 -0.1654 -0.1036
  334loPI   C2B 5342  11.055   1.640   9.262 -0.1316 -0.0148 -0.0771
  334loPI   C3B 5343  11.111   1.484   8.837  0.0181  0.0409 -0.0451
  334loPI   C4B 5344  11.410   1.292   8.572  0.0593 -0.2462 -0.3163
  335loPI    C1 5345  16.355  14.537  10.390  0.2036 -0.1250 -0.1675
  335loPI    C2 5346  16.287  14.164  10.262 -0.2393 -0.0831 -0.0735
  335loPI    C3 5347  16.282  14.245  10.653  0.0315 -0.0080 -0.0832
  335loPI   PO4 5348  16.592  14.654  10.286 -0.0659 -0.0196  0.0692
  335loPI   GL1 5349  16.835  14.660   9.950  0.1237 -0.1121  0.0649
  335loPI   GL2 5350  16.521  14.750   9.725  0.2500 -0.0728  0.0297
  335loPI   C1A 5351  16.886  14.592   9.509 -0.0367  0.1431  0.1574
  335loPI   C2A 5352  16.887  14.831   9.121 -0.0581 -0.0481  0.0282
  335loPI   C3A 5353  16.651  15.036   8.771 -0.0842  0.0828 -0.1470
  335loPI   C4A 5354  16.292  15.043   8.570 -0.1126 -0.1447 -0.1653
  335loPI   C5A 5355  16.047  15.231   8.322 -0.0420  0.0052  0.1975
  335loPI   C6A 5356  16.091  15.593   7.982  0.0243 -0.0817  0.2147
  335loPI   C1B 5357  16.366  14.624   9.285  0.0088 -0.1872 -0.2069
  335loPI   C2B 5358  16.518  14.518   8.854 -0.0342 -0.2665  0.1053
  335loPI   C3B 5359  16.400  14.162   8.658 -0.2933 -0.1556 -0.3087
  335loPI   C4B 5360  16.326  13.971   8.197  0.1539  0.1842  0.2884
  336loPI    C1 5361   9.229   6.661  10.802  0.0562 -0.0876  0.1745
  336loPI    C2 5362   9.177   6.329  11.019  0.1509 -0.1320  0.1293
  336loPI    C3 5363   9.538   6.502  11.000  0.1220 -0.0768  0.0811
  336loPI   PO4 5364   9.087   6.619  10.588  0.1374  0.2032  0.1415
  336loPI   GL1 5365   9.098   6.551  10.236  0.0677  0.0838 -0.1946
  336loPI   GL2 5366   9.328   6.752  10.095 -0.1462 -0.2031  0.0819
  336loPI   C1A 5367   8.903   6.385   9.845 -0.1016 -0.1078  0.0257
  336loPI   C2A 5368   8.783   6.412   9.431  0.1839  0.3387  0.1529
  336loPI   C3A 5369   8.785   6.313   9.052 -0.2593  0.0329 -0.1328
  336loPI   C4A 5370   8.820   6.341   8.683 -0.1677 -0.1354  0.2145
  336loPI   C5A 5371   8.729   6.421   8.318  0.2641 -0.4992  0.0326
  336loPI   C6A 5372   8.712   6.219   7.860  0.0930 -0.2381  0.0369
  336loPI   C1B 5373   9.172   6.752   9.660  0.0559  0.1240 -0.0903
  336loPI   C2B 5374   9.067   6.864   9.262  0.0218  0.1818 -0.1008
  336loPI   C3B 5375   9.070   6.750   8.869 -0.1954  0.0656  0.3665
  336loPI   C4B 5376   9.089   6.811   8.468 -0.0778 -0.1643  0.2685
  337loPI    C1 5377   4.080   6.068  10.611  0.0897 -0.0554 -0.0901
  337loPI    C2 5378   3.934   5.783  10.851  0.1369 -0.0577 -0.0640
  337loPI    C3 5379   3.709   6.100  10.757 -0.0064 -0.2237 -0.2919
  337loPI   PO4 5380   4.208   5.926  10.415  0.0800  0.0782 -0.1735
  337loPI   GL1 5381   4.198   5.827  10.007  0.2061 -0.0805  0.2741
  337loPI   GL2 5382   4.285   5.462   9.822 -0.2088 -0.1739 -0.0845
  337loPI   C1A 5383   4.285   6.220   9.808 -0.1841  0.1397  0.3464
  337loPI   C2A 5384   4.190   6.511   9.529 -0.1088 -0.1323  0.1575
  337loPI   C3A 5385   4.110   6.547   9.106  0.0223  0.1152 -0.0329
  337loPI   C4A 5386   4.009   6.521   8.727 -0.0020 -0.0092  0.0048
  337loPI   C5A 5387   4.002   6.468   8.224  0.1278  0.1180  0.1385
  337loPI   C6A 5388   4.301   6.278   7.960 -0.2658  0.2362 -0.0060
  337loPI   C1B 5389   4.299   5.659   9.455  0.1470  0.3752 -0.1270
  337loPI   C2B 5390   4.348   5.693   9.016  0.1444  0.0472 -0.4256
  337loPI   C3B 5391   4.374   5.752   8.584  0.0987  0.1511 -0.0188
  337loPI   C4B 5392   4.505   5.809   8.218 -0.1759  0.1585 -0.0934
  338loPI    C1 5393   7.931   4.422  10.480  0.1157  0.2328  0.0297
  338loPI    C2 5394   7.839   4.607  10.823 -0.1597 -0.1008  0.1411
  338loPI    C3 5395   7.932   4.218  10.824 -0.1116 -0.0924 -0.1574
  338loPI   PO4 5396   8.073   4.678  10.300  0.0552  0.1639  0.3005
  338loPI   GL1 5397   7.980   4.696   9.942  0.3107  0.1075  0.4072
  338loPI   GL2 5398   8.191   4.981   9.774  0.0745  0.0996 -0.0338
  338loPI   C1A 5399   7.996   4.647   9.476  0.0800 -0.1522  0.2349
  338loPI   C2A 5400   7.893   4.708   9.039 -0.2819  0.1946  0.3267
  338loPI   C3A 5401   7.859   4.675   8.634 -0.2399  0.0330  0.1422
  338loPI   C4A 5402   7.813   4.656   8.233  0.3202  0.2328  0.0658
  338loPI   C5A 5403   7.968   4.796   7.905  0.0852 -0.0615 -0.1593
  338loPI   C6A 5404   8.185   4.854   7.542 -0.0703 -0.2161 -0.1375
  338loPI   C1B 5405   8.322   5.106   9.430  0.0843 -0.0022 -0.0219
  338loPI   C2B 5406   8.318   5.122   9.043 -0.2180  0.0563  0.1431
  338loPI   C3B 5407   8.132   5.110   8.715 -0.1707 -0.0793 -0.2068
  338loPI   C4B 5408   8.232   5.069   8.338 -0.3147 -0.0670 -0.0286
  339loPI    C1 5409  13.357   0.892  10.614 -0.0018  0.0588  0.1551
  339loPI    C2 5410  13.756   0.900  10.612 -0.0026  0.0889  0.1081
  339loPI    C3 5411  13.550   1.216  10.745 -0.0133  0.1877 -0.1391
  339loPI   PO4 5412  13.289   0.837  10.343 -0.2230  0.1568  0.1634
  339loPI   GL1 5413  13.209   0.721   9.927 -0.3887  0.0793 -0.1137
  339loPI   GL2 5414  13.464   0.452   9.915 -0.0652 -0.3266  0.0523
  339loPI   C1A 5415  13.225   0.991   9.504  0.0224 -0.1668 -0.2758
  339loPI   C2A 5416  13.268   1.195   9.045  0.4589 -0.0961 -0.1007
  339loPI   C3A 5417  13.371   1.104   8.700  0.0194  0.0322  0.3629
  339loPI   C4A 5418  13.413   1.125   8.305  0.0223 -0.0884 -0.0891
  339loPI   C5A 5419  13.236   1.570   8.151  0.1507  0.0376  0.0522
  339loPI   C6A 5420  12.861   1.727   8.039 -0.0141  0.1658  0.0618
  339loPI   C1B 5421  13.419   0.409   9.486  0.3167 -0.1778 -0.0799
  339loPI   C2B 5422  13.292   0.034   9.227 -0.0567  0.1780  0.1375
  339loPI   C3B 5423  13.353  -0.187   8.902  0.1970  0.1463 -0.0154
  339loPI   C4B 5424  13.481  -0.279   8.605 -0.1072  0.2112 -0.3293
  340loPI    C1 5425   0.709  13.132  10.043 -0.1785  0.0136  0.0650
  340loPI    C2 5426   0.752  12.946  10.395  0.1343  0.1282  0.0903
  340loPI    C3 5427   0.601  13.316  10.382  0.3198  0.2062  0.1271
  340loPI   PO4 5428   0.885  13.051   9.843 -0.4546 -0.0021 -0.1721
  340loPI   GL1 5429   1.134  12.853   9.740 -0.1215  0.1378  0.1043
  340loPI   GL2 5430   0.972  12.742   9.459 -0.2630 -0.1237  0.2620
  340loPI   C1A 5431   1.448  12.659   9.402  0.2155 -0.0519  0.0470
  340loPI   C2A 5432   1.567  12.602   8.975 -0.2194  0.2093 -0.3136
  340loPI   C3A 5433   1.702  12.621   8.501  0.2184 -0.1888 -0.0859
  340loPI   C4A 5434   1.698  12.671   8.061  0.2779 -0.0395  0.1344
  340loPI   C5A 5435   1.541  12.938   7.847  0.0258 -0.0269  0.0538
  340loPI   C6A 5436   1.232  13.187   7.975  0.1710 -0.1668  0.0067
  340loPI   C1B 5437   1.119  12.355   9.169  0.3237 -0.0683  0.0474
  340loPI   C2B 5438   1.138  11.982   8.939  0.2194 -0.0746 -0.2394
  340loPI   C3B 5439   0.982  11.603   8.935  0.0945  0.2426  0.2284
  340loPI   C4B 5440   1.136  11.312   8.575  0.1681  0.1057 -0.0101
  341loPI    C1 5441   6.257  15.498  10.495  0.0887 -0.0158  0.0746
  341loPI    C2 5442   6.200  15.186  10.252 -0.0040  0.1062 -0.0617
  341loPI    C3 5443   6.024  15.195  10.611  0.0762 -0.0420 -0.0181
  341loPI   PO4 5444   6.226  15.727  10.238 -0.1454 -0.0783  0.3963
  341loPI   GL1 5445   6.278  15.961   9.857  0.3415  0.2459  0.1489
  341loPI   GL2 5446   6.090  16.206   9.790  0.0756 -0.1371 -0.0179
  341loPI   C1A 5447   6.307  15.927   9.420  0.2263 -0.2340 -0.3833
  341loPI   C2A 5448   6.187  15.919   9.101  0.1565  0.2905 -0.2498
  341loPI   C3A 5449   6.092  15.839   8.738 -0.1436  0.1113  0.1513
  341loPI   C4A 5450   6.213  15.887   8.399 -0.0740 -0.2142  0.0828
  341loPI   C5A 5451   6.230  15.963   7.943  0.1308  0.0137 -0.1001
  341loPI   C6A 5452   6.146  15.794   7.597  0.0670 -0.0349 -0.1285
  341loPI   C1B 5453   5.995  16.346   9.428 -0.1108 -0.0233  0.0082
  341loPI   C2B 5454   5.925  16.354   8.973 -0.0680 -0.0853  0.1165
  341loPI   C3B 5455   5.844  16.236   8.512 -0.2748 -0.0564  0.2744
  341loPI   C4B 5456   5.853  16.288   8.023 -0.2022 -0.0900  0.2680
  342loPI    C1 5457  17.260   6.237  10.373 -0.1859 -0.5220 -0.3414
  342loPI    C2 5458  17.502   5.951  10.513  0.0410 -0.1743 -0.0043
  342loPI    C3 5459  17.188   6.072  10.730  0.0417 -0.0542 -0.0698
  342loPI   PO4 5460  17.385   6.215  10.101  0.2354 -0.0988  0.5793
  342loPI   GL1 5461  17.240   6.350   9.724  0.0696 -0.0806 -0.1090
  342loPI   GL2 5462  17.147   6.649   9.715 -0.3651 -0.0468  0.3625
  342loPI   C1A 5463  17.340   6.285   9.314 -0.2708  0.1655 -0.1579
  342loPI   C2A 5464  17.359   6.494   8.908  0.1938  0.0188 -0.1181
  342loPI   C3A 5465  17.165   6.558   8.536  0.2206 -0.1232  0.1767
  342loPI   C4A 5466  17.183   6.562   8.088  0.0454 -0.1096  0.2921
  342loPI   C5A 5467  17.117   6.282   7.650 -0.0624 -0.0381 -0.0937
  342loPI   C6A 5468  17.291   5.935   7.654 -0.0809  0.0873 -0.2068
  342loPI   C1B 5469  17.279   6.808   9.364  0.1836 -0.1022 -0.1916
  342loPI   C2B 5470  17.241   6.972   8.921  0.3676  0.2043  0.2075
  342loPI   C3B 5471  17.086   7.073   8.473  0.0134  0.5213 -0.2340
  342loPI   C4B 5472  17.027   7.054   8.157  0.0413  0.0155 -0.3800
  343loPI    C1 5473  16.126   3.520  10.060 -0.0610 -0.1242  0.2565
  343loPI    C2 5474  15.949   3.871  10.132  0.2760  0.1210 -0.0758
  343loPI    C3 5475  15.750   3.584   9.936 -0.0250  0.0955  0.2576
  343loPI   PO4 5476  16.371   3.585   9.919 -0.0887 -0.2906  0.1447
  343loPI   GL1 5477  16.528   3.584   9.546 -0.1748  0.0663  0.0440
  343loPI   GL2 5478  16.596   3.421   9.285 -0.1706 -0.0500 -0.0149
  343loPI   C1A 5479  16.598   3.936   9.128  0.0595  0.0470  0.2519
  343loPI   C2A 5480  16.535   4.142   8.785 -0.0781 -0.0055 -0.0415
  343loPI   C3A 5481  16.914   4.153   8.467 -0.2841 -0.0285  0.0123
  343loPI   C4A 5482  17.229   4.145   8.178 -0.1302 -0.4059  0.0658
  343loPI   C5A 5483  17.409   3.907   7.742  0.0662 -0.3227 -0.6869
  343loPI   C6A 5484  17.895   3.965   7.602  0.0988 -0.0721 -0.2395
  343loPI   C1B 5485  16.504   3.557   8.873  0.2771 -0.1249 -0.0728
  343loPI   C2B 5486  16.403   3.784   8.427  0.3741  0.0373  0.0826
  343loPI   C3B 5487  16.192   4.012   8.093  0.1089 -0.1125  0.1082
  343loPI   C4B 5488  16.001   4.226   7.726 -0.2008  0.0360 -0.1661
  344loPI    C1 5489  11.003   0.440  10.679 -0.3109 -0.0218  0.1250
  344loPI    C2 5490  11.137   0.739  10.907 -0.3830 -0.0764  0.2398
  344loPI    C3 5491  10.961   0.819  10.557 -0.2367  0.0055  0.1837
  344loPI   PO4 5492  11.162   0.257  10.653  0.1400  0.0087  0.2050
  344loPI   GL1 5493  11.204   0.191  10.238 -0.0321  0.0044 -0.3375
  344loPI   GL2 5494  11.055   0.554  10.149 -0.0396 -0.1565  0.1646
  344loPI   C1A 5495  11.545   0.362  10.027  0.0692 -0.4975 -0.1386
  344loPI   C2A 5496  11.900   0.656   9.808  0.2917  0.4068  0.0124
  344loPI   C3A 5497  11.863   1.024   9.421  0.1924  0.0431  0.1001
  344loPI   C4A 5498  12.064   0.894   9.129 -0.2838  0.3514  0.2184
  344loPI   C5A 5499  12.169   0.732   8.747 -0.1175  0.2033 -0.1094
  344loPI   C6A 5500  12.156   0.372   8.336  0.0547  0.0262 -0.2495
  344loPI   C1B 5501  11.018   0.428   9.721  0.0904  0.0311  0.0200
  344loPI   C2B 5502  10.850   0.474   9.327  0.2642  0.1128 -0.1676
  344loPI   C3B 5503  11.083   0.316   8.871 -0.0136 -0.0231  0.0767
  344loPI   C4B 5504  11.137   0.421   8.502  0.2259 -0.3301  0.1796
  345loPI    C1 5505   0.105   2.692  10.043  0.0788 -0.1219  0.0199
  345loPI    C2 5506  -0.284   2.612   9.996  0.0962 -0.2082  0.0200
  345loPI    C3 5507  -0.170   2.949  10.179  0.0196 -0.2587  0.1626
  345loPI   PO4 5508   0.234   2.699   9.712  0.1305 -0.0783  0.0586
  345loPI   GL1 5509   0.582   2.973   9.448  0.0072  0.1361 -0.0305
  345loPI   GL2 5510   0.660   2.685   9.473 -0.1206  0.0745  0.1603
  345loPI   C1A 5511   0.567   3.023   9.026 -0.1790  0.0132 -0.0841
  345loPI   C2A 5512   0.682   3.015   8.618  0.3907  0.1717  0.0394
  345loPI   C3A 5513   0.753   3.037   8.211  0.1426 -0.0943  0.2333
  345loPI   C4A 5514   0.840   3.419   7.895  0.1428 -0.0963 -0.1738
  345loPI   C5A 5515   1.193   3.474   7.646  0.2169 -0.1665 -0.1724
  345loPI   C6A 5516   1.399   3.922   7.674  0.0115  0.0781  0.4564
  345loPI   C1B 5517   0.670   2.569   9.058 -0.1455  0.3029 -0.0365
  345loPI   C2B 5518   0.764   2.519   8.649 -0.3544 -0.0189  0.1718
  345loPI   C3B 5519   0.956   2.577   8.270  0.0115 -0.2715 -0.3481
  345loPI   C4B 5520   1.226   2.600   7.922  0.2498 -0.1350  0.0343
  346loPI    C1 5521   8.119  10.861  10.257  0.0858  0.1392 -0.0010
  346loPI    C2 5522   8.433  10.690  10.436 -0.1167 -0.1193  0.1131
  346loPI    C3 5523   8.157  10.879  10.655 -0.0020  0.1792  0.0056
  346loPI   PO4 5524   7.997  10.674  10.180  0.2096 -0.2946 -0.0661
  346loPI   GL1 5525   7.997  10.679   9.757 -0.0778 -0.0012 -0.2167
  346loPI   GL2 5526   7.856  10.365   9.780  0.1374 -0.0342 -0.1309
  346loPI   C1A 5527   8.220  10.544   9.473 -0.0465 -0.1857 -0.0831
  346loPI   C2A 5528   8.441  10.636   9.083  0.2409 -0.2387 -0.0048
  346loPI   C3A 5529   8.544  10.552   8.689 -0.0433  0.0689  0.0286
  346loPI   C4A 5530   8.461  10.338   8.276  0.1945  0.2090 -0.2148
  346loPI   C5A 5531   8.351   9.860   8.182  0.3076 -0.1977  0.0230
  346loPI   C6A 5532   8.542   9.318   8.104  0.1056 -0.0183 -0.0292
  346loPI   C1B 5533   7.866  10.265   9.364 -0.1995 -0.0462 -0.0931
  346loPI   C2B 5534   8.130  10.236   9.031 -0.2296  0.1856  0.1519
  346loPI   C3B 5535   8.300  10.034   8.743 -0.2333 -0.2318 -0.1473
  346loPI   C4B 5536   8.486   9.611   8.550  0.0465 -0.2757 -0.3710
  347loPI    C1 5537   4.506  13.020  10.250 -0.0550  0.0456 -0.3269
  347loPI    C2 5538   4.899  13.024  10.176  0.0116 -0.3744 -0.0345
  347loPI    C3 5539   4.753  13.227  10.488 -0.0316 -0.0775 -0.2431
  347loPI   PO4 5540   4.468  12.727  10.257 -0.1496 -0.1558  0.0670
  347loPI   GL1 5541   4.577  12.630   9.880 -0.1267  0.1574  0.1603
  347loPI   GL2 5542   4.684  12.909   9.751  0.3256 -0.1193 -0.0643
  347loPI   C1A 5543   4.828  12.426   9.498 -0.0226 -0.0936 -0.3956
  347loPI   C2A 5544   4.813  12.519   9.062  0.1779  0.1142  0.0355
  347loPI   C3A 5545   4.801  12.372   8.566 -0.1113 -0.1404  0.2194
  347loPI   C4A 5546   4.655  12.434   8.120 -0.0457  0.4520  0.0586
  347loPI   C5A 5547   4.669  12.342   7.724  0.1771  0.1624  0.1646
  347loPI   C6A 5548   4.725  11.967   7.415 -0.3117  0.0822  0.3682
  347loPI   C1B 5549   4.541  12.839   9.336  0.2728  0.1476 -0.0330
  347loPI   C2B 5550   4.523  12.878   8.909 -0.3883 -0.1420  0.1355
  347loPI   C3B 5551   4.497  12.823   8.498  0.0791 -0.0716  0.2799
  347loPI   C4B 5552   4.691  13.149   8.248  0.1771  0.2059  0.1572
  348loPI    C1 5553   8.377   7.231  10.507 -0.2574  0.1283  0.3016
  348loPI    C2 5554   8.712   7.045  10.620 -0.2529 -0.0778 -0.0376
  348loPI    C3 5555   8.416   7.099  10.883  0.0176  0.0502  0.2476
  348loPI   PO4 5556   8.358   7.157  10.293 -0.1599 -0.2331  0.1872
  348loPI   GL1 5557   8.132   7.261  10.003  0.3717  0.0375 -0.1228
  348loPI   GL2 5558   8.043   7.547   9.902  0.0172  0.0721  0.0477
  348loPI   C1A 5559   8.084   7.036   9.610 -0.1945  0.0571  0.0755
  348loPI   C2A 5560   8.048   6.874   9.197  0.1450  0.1704  0.0264
  348loPI   C3A 5561   8.084   6.936   8.758 -0.0873 -0.2860 -0.0236
  348loPI   C4A 5562   7.966   6.984   8.308  0.2058  0.0907 -0.0693
  348loPI   C5A 5563   8.083   6.790   7.911 -0.2738 -0.1904 -0.0883
  348loPI   C6A 5564   8.428   6.628   7.663 -0.0703  0.0632  0.0520
  348loPI   C1B 5565   7.931   7.585   9.473 -0.0195 -0.0582  0.0965
  348loPI   C2B 5566   7.952   7.386   8.945  0.2847 -0.2814 -0.2730
  348loPI   C3B 5567   7.848   7.425   8.590 -0.0311 -0.0330  0.2108
  348loPI   C4B 5568   7.816   7.477   8.177  0.0117  0.1795 -0.0464
  349loPI    C1 5569  14.384   1.547  10.454  0.0744 -0.0382 -0.2470
  349loPI    C2 5570  14.617   1.283  10.643 -0.0316 -0.0705 -0.1605
  349loPI    C3 5571  14.604   1.663  10.767 -0.0869 -0.0875 -0.1137
  349loPI   PO4 5572  14.526   1.596  10.145 -0.2095  0.1192 -0.0981
  349loPI   GL1 5573  14.343   1.582   9.776 -0.0332  0.0995 -0.0925
  349loPI   GL2 5574  14.617   1.708   9.592 -0.0071 -0.0809  0.1705
  349loPI   C1A 5575  14.025   1.748   9.458  0.2253  0.2576  0.2130
  349loPI   C2A 5576  14.145   1.719   8.985 -0.1718  0.1111 -0.0320
  349loPI   C3A 5577  14.068   1.511   8.572  0.0558  0.1611 -0.0328
  349loPI   C4A 5578  13.821   1.387   8.213 -0.0171 -0.0262  0.2291
  349loPI   C5A 5579  13.677   1.345   7.807 -0.0301  0.3411  0.0622
  349loPI   C6A 5580  13.989   1.183   7.523 -0.1173  0.4528  0.0119
  349loPI   C1B 5581  14.722   1.746   9.107  0.0297  0.0139  0.2625
  349loPI   C2B 5582  14.543   1.611   8.689  0.0184  0.3944 -0.1849
  349loPI   C3B 5583  14.408   1.450   8.245  0.2116  0.1769 -0.1713
  349loPI   C4B 5584  14.190   1.125   7.989  0.2601  0.0231 -0.3070
  350loPI    C1 5585   6.000  17.929  10.487  0.0271 -0.0764 -0.0628
  350loPI    C2 5586   5.861  17.977  10.859  0.1409 -0.2809  0.0075
  350loPI    C3 5587   5.676  17.728  10.607  0.2214 -0.3495  0.0153
  350loPI   PO4 5588   6.176  18.097  10.447 -0.0889  0.0637 -0.0371
  350loPI   GL1 5589   6.375  18.217  10.121 -0.3356  0.2212  0.1380
  350loPI   GL2 5590   6.127  18.061   9.982  0.1550 -0.0854 -0.1863
  350loPI   C1A 5591   6.195  18.537   9.832  0.1306  0.3028 -0.2546
  350loPI   C2A 5592   5.951  18.646   9.523  0.3256  0.2397 -0.3411
  350loPI   C3A 5593   6.070  18.693   9.064 -0.2632 -0.1005 -0.6361
  350loPI   C4A 5594   6.269  19.104   8.926 -0.1356  0.2802 -0.1909
  350loPI   C5A 5595   6.596  19.138   8.619  0.1874  0.0211 -0.4485
  350loPI   C6A 5596   6.839  19.108   8.185 -0.2316  0.0193  0.0661
  350loPI   C1B 5597   6.162  18.061   9.524  0.1280  0.0610  0.1344
  350loPI   C2B 5598   5.967  18.115   9.166  0.0200  0.1928 -0.2288
  350loPI   C3B 5599   5.724  18.114   8.743  0.1806  0.0857  0.2697
  350loPI   C4B 5600   5.747  18.050   8.308  0.1042 -0.3023  0.3424
  351loPI    C1 5601  10.512   8.756  10.966  0.1716  0.0800 -0.1955
  351loPI    C2 5602  10.879   8.601  10.999  0.0631 -0.1475 -0.0355
  351loPI    C3 5603  10.572   8.432  11.192 -0.1131  0.0872 -0.1058
  351loPI   PO4 5604  10.505   8.802  10.632  0.0879 -0.1970  0.1247
  351loPI   GL1 5605  10.649   8.702  10.157  0.0926  0.2141 -0.0161
  351loPI   GL2 5606  10.428   8.430  10.179  0.0821 -0.3157 -0.2617
  351loPI   C1A 5607  10.692   8.813   9.675 -0.0683  0.1578  0.0569
  351loPI   C2A 5608  10.671   8.749   9.313 -0.0965 -0.0354 -0.1178
  351loPI   C3A 5609  10.579   8.663   8.825 -0.0018  0.1911  0.2464
  351loPI   C4A 5610  10.559   8.578   8.367 -0.3764 -0.2790  0.1870
  351loPI   C5A 5611  10.231   8.689   8.190 -0.0778  0.0606  0.0182
  351loPI   C6A 5612  10.123   8.972   7.882 -0.0895 -0.2304  0.0515
  351loPI   C1B 5613  10.411   8.347   9.738  0.0145 -0.0477 -0.2795
  351loPI   C2B 5614  10.381   8.328   9.287  0.0960 -0.0444 -0.3861
  351loPI   C3B 5615  10.408   8.183   8.816  0.0607 -0.1719  0.1658
  351loPI   C4B 5616  10.414   8.104   8.380 -0.0907 -0.0608 -0.0196
  352loPI    C1 5617   1.982  15.122  10.252  0.0106 -0.1521  0.1325
  352loPI    C2 5618   1.611  14.995  10.332 -0.0423 -0.0430  0.0628
  352loPI    C3 5619   1.915  14.890  10.571 -0.1102 -0.1713  0.0935
  352loPI   PO4 5620   2.085  15.018   9.936 -0.0910 -0.2488 -0.1422
  352loPI   GL1 5621   2.002  14.961   9.400 -0.0675  0.0841 -0.1012
  352loPI   GL2 5622   1.815  15.122   9.407 -0.0642  0.3680  0.3710
  352loPI   C1A 5623   1.969  14.970   8.881 -0.2652 -0.1813 -0.0495
  352loPI   C2A 5624   1.979  14.956   8.365 -0.1924 -0.0272  0.0326
  352loPI   C3A 5625   2.090  14.731   7.938  0.1630  0.2091  0.0578
  352loPI   C4A 5626   2.352  14.580   7.585  0.0247 -0.0032 -0.3938
  352loPI   C5A 5627   2.737  14.292   7.696 -0.0936  0.0104 -0.1408
  352loPI   C6A 5628   3.086  14.210   8.027 -0.1050 -0.0929 -0.1519
  352loPI   C1B 5629   1.984  15.438   9.055 -0.0675 -0.1603  0.3137
  352loPI   C2B 5630   1.925  15.420   8.634 -0.1268  0.0369 -0.2484
  352loPI   C3B 5631   2.178  15.437   8.282 -0.1412  0.3212  0.0035
  352loPI   C4B 5632   2.312  15.210   7.940 -0.3599 -0.0736  0.0154
  353loPI    C1 5633   8.407  16.352  10.392 -0.0160  0.1166  0.1577
  353loPI    C2 5634   8.123  16.160  10.598 -0.0635  0.0574  0.0374
  353loPI    C3 5635   8.427  16.332  10.791 -0.0208 -0.1382  0.1467
  353loPI   PO4 5636   8.490  16.097  10.210 -0.0002  0.3629 -0.1470
  353loPI   GL1 5637   8.702  16.098   9.930 -0.0704  0.0627  0.0954
  353loPI   GL2 5638   8.930  15.983   9.765 -0.3527 -0.1493 -0.0209
  353loPI   C1A 5639   8.607  16.349   9.643 -0.0373  0.0876 -0.2050
  353loPI   C2A 5640   8.709  16.123   9.231  0.0137 -0.4337  0.0097
  353loPI   C3A 5641   8.871  15.745   9.071 -0.0646 -0.1138 -0.2355
  353loPI   C4A 5642   9.001  15.628   8.780  0.0785 -0.0733  0.3395
  353loPI   C5A 5643   9.067  15.440   8.393 -0.1222 -0.1339  0.2906
  353loPI   C6A 5644   9.103  15.215   8.023  0.0292 -0.1017  0.3289
  353loPI   C1B 5645   9.232  16.084   9.425 -0.0543  0.2615 -0.2409
  353loPI   C2B 5646   9.455  15.948   9.082 -0.1188 -0.1302 -0.0651
  353loPI   C3B 5647   9.489  15.773   8.695 -0.1676 -0.1488 -0.1225
  353loPI   C4B 5648   9.691  15.527   8.379 -0.2355 -0.0735 -0.0214
  354loPI    C1 5649  15.391   9.736  10.727 -0.0462  0.0709 -0.2100
  354loPI    C2 5650  15.212   9.647  11.073 -0.1202  0.2125 -0.2109
  354loPI    C3 5651  15.602   9.569  11.023 -0.1010  0.2242 -0.0833
  354loPI   PO4 5652  15.366   9.950  10.668  0.1754  0.1780  0.1116
  354loPI   GL1 5653  15.199  10.126  10.306  0.1615 -0.3776  0.2843
  354loPI   GL2 5654  15.125   9.814  10.139  0.0146  0.2481  0.3046
  354loPI   C1A 5655  15.027  10.319   9.912 -0.1240  0.0577  0.1654
  354loPI   C2A 5656  15.058  10.337   9.490 -0.0353  0.2912  0.2508
  354loPI   C3A 5657  14.945  10.246   9.031  0.3420  0.3712  0.0817
  354loPI   C4A 5658  14.984  10.120   8.562 -0.1509 -0.0087  0.1287
  354loPI   C5A 5659  14.724   9.858   8.299 -0.5510 -0.0375 -0.0793
  354loPI   C6A 5660  14.421   9.723   7.967  0.0015 -0.1633  0.0478
  354loPI   C1B 5661  15.205   9.911   9.749  0.0922  0.1913 -0.2031
  354loPI   C2B 5662  15.189   9.737   9.318  0.3383  0.0250 -0.2838
  354loPI   C3B 5663  15.210   9.658   8.897  0.5224  0.0830  0.2384
  354loPI   C4B 5664  15.228   9.709   8.479  0.0187  0.0116  0.2599
  355loPI    C1 5665  17.267   0.908  10.461 -0.0114  0.1637  0.1107
  355loPI    C2 5666  17.538   0.693  10.259 -0.0321  0.0593  0.1937
  355loPI    C3 5667  17.648   1.029  10.445  0.0372  0.0267  0.2118
  355loPI   PO4 5668  17.146   1.010  10.240 -0.1330  0.1867 -0.0331
  355loPI   GL1 5669  17.297   1.132   9.911  0.2570 -0.0373  0.0215
  355loPI   GL2 5670  17.520   1.013   9.882  0.1694  0.2352 -0.0766
  355loPI   C1A 5671  17.184   1.240   9.445  0.1357 -0.0697  0.1385
  355loPI   C2A 5672  17.165   1.262   8.973  0.0665  0.0735  0.0223
  355loPI   C3A 5673  17.055   1.340   8.552  0.0415  0.0886  0.2443
  355loPI   C4A 5674  17.031   1.480   8.090  0.4209 -0.1257  0.2304
  355loPI   C5A 5675  17.382   1.471   7.784 -0.1118  0.0405  0.0257
  355loPI   C6A 5676  17.777   1.374   7.700 -0.0047 -0.0711  0.0964
  355loPI   C1B 5677  17.646   0.926   9.548  0.2304  0.2231  0.2780
  355loPI   C2B 5678  17.762   0.972   9.155 -0.0876  0.1007  0.0310
  355loPI   C3B 5679  17.674   1.216   8.671 -0.0232 -0.1149 -0.0471
  355loPI   C4B 5680  17.513   1.197   8.332 -0.0508 -0.0134 -0.0497
  356loPI    C1 5681  15.020   1.493  10.447  0.3637 -0.3347 -0.1214
  356loPI    C2 5682  15.386   1.447  10.602  0.0977 -0.2415  0.5746
  356loPI    C3 5683  15.146   1.737  10.738 -0.0598  0.0383 -0.2378
  356loPI   PO4 5684  15.025   1.239  10.315 -0.0043  0.0080  0.0136
  356loPI   GL1 5685  15.052   1.199   9.938  0.2207  0.1543 -0.0893
  356loPI   GL2 5686  14.760   1.264   9.718 -0.1095 -0.1703 -0.0162
  356loPI   C1A 5687  15.184   1.428   9.628 -0.0479 -0.2303 -0.0083
  356loPI   C2A 5688  15.164   1.758   9.336 -0.0674 -0.1259  0.2054
  356loPI   C3A 5689  15.243   1.855   9.013  0.1200 -0.1094 -0.1644
  356loPI   C4A 5690  14.987   1.840   8.699  0.1279 -0.1061 -0.1857
  356loPI   C5A 5691  14.875   1.882   8.292  0.4025 -0.4477  0.1751
  356loPI   C6A 5692  14.730   1.656   7.858  0.0150  0.0004 -0.0908
  356loPI   C1B 5693  14.810   1.247   9.298  0.1654 -0.2359 -0.0165
  356loPI   C2B 5694  14.966   1.380   8.971 -0.2944  0.2208 -0.0660
  356loPI   C3B 5695  14.920   1.402   8.510 -0.3274 -0.2951  0.1467
  356loPI   C4B 5696  14.802   1.071   8.224 -0.1453 -0.1764 -0.0969
  357loPI    C1 5697   5.160   7.276  10.365 -0.1581 -0.1101 -0.0558
  357loPI    C2 5698   5.177   7.165  10.749 -0.2453  0.0889  0.0073
  357loPI    C3 5699   5.238   6.895  10.460 -0.1994 -0.0666  0.1598
  357loPI   PO4 5700   4.940   7.396  10.329  0.0382  0.0379 -0.0753
  357loPI   GL1 5701   4.668   7.546   9.912 -0.1612 -0.4364  0.0865
  357loPI   GL2 5702   4.416   7.515   9.769 -0.1102 -0.0506 -0.0282
  357loPI   C1A 5703   4.808   7.632   9.435 -0.1599 -0.1062 -0.1826
  357loPI   C2A 5704   4.728   7.795   8.984  0.0917 -0.1449 -0.1498
  357loPI   C3A 5705   4.715   7.878   8.658 -0.0441 -0.5692 -0.4047
  357loPI   C4A 5706   4.762   7.932   8.241  0.1046  0.1602 -0.0249
  357loPI   C5A 5707   4.970   7.833   7.886  0.0024  0.1895 -0.1134
  357loPI   C6A 5708   5.081   7.430   7.613  0.0597 -0.0647  0.0054
  357loPI   C1B 5709   4.256   7.454   9.346  0.0384  0.0468 -0.2512
  357loPI   C2B 5710   4.267   7.574   8.884  0.0218  0.1890  0.1004
  357loPI   C3B 5711   4.083   7.412   8.533  0.2825 -0.1238 -0.1701
  357loPI   C4B 5712   4.089   7.339   8.005 -0.0044  0.3456  0.1656
  358loPI    C1 5713  13.961  15.788  10.552  0.0682 -0.2624 -0.1574
  358loPI    C2 5714  13.565  15.820  10.594  0.0760 -0.0111 -0.2557
  358loPI    C3 5715  13.808  15.988  10.863  0.1162  0.0493 -0.3295
  358loPI   PO4 5716  14.008  15.882  10.313 -0.1613 -0.2114 -0.1500
  358loPI   GL1 5717  14.260  15.830   9.998  0.2698  0.1102 -0.0019
  358loPI   GL2 5718  14.570  15.824   9.913 -0.1475 -0.0898  0.0403
  358loPI   C1A 5719  14.196  15.823   9.535 -0.4490 -0.0413  0.0180
  358loPI   C2A 5720  14.155  15.791   9.118 -0.0499  0.1426 -0.1507
  358loPI   C3A 5721  13.883  15.724   8.796 -0.0079  0.0279 -0.0319
  358loPI   C4A 5722  13.594  15.849   8.482 -0.2112  0.1052 -0.1994
  358loPI   C5A 5723  13.399  15.730   8.106  0.0285  0.0347 -0.0959
  358loPI   C6A 5724  13.338  15.279   7.856 -0.0085 -0.1519 -0.1935
  358loPI   C1B 5725  14.712  15.793   9.551 -0.2295 -0.3384  0.1266
  358loPI   C2B 5726  14.666  15.864   9.117  0.3401  0.1923  0.4386
  358loPI   C3B 5727  14.663  15.655   8.748  0.2128  0.0216 -0.0615
  358loPI   C4B 5728  14.532  15.712   8.363  0.1343  0.2940 -0.1256
  359loPI    C1 5729   2.998   8.351  10.410 -0.2126  0.0096  0.3476
  359loPI    C2 5730   2.853   8.377  10.038 -0.0373  0.0151  0.2788
  359loPI    C3 5731   2.683   8.585  10.334 -0.1575  0.0356  0.1959
  359loPI   PO4 5732   3.250   8.344  10.315 -0.3465 -0.0477 -0.0069
  359loPI   GL1 5733   3.451   8.237   9.910 -0.2396 -0.1245 -0.0067
  359loPI   GL2 5734   3.639   8.544   9.855 -0.0630  0.3436  0.0284
  359loPI   C1A 5735   3.495   8.224   9.487 -0.3177  0.1055  0.1373
  359loPI   C2A 5736   3.466   8.267   9.066 -0.0416  0.0180 -0.0658
  359loPI   C3A 5737   3.442   8.400   8.605  0.1744  0.1925 -0.2023
  359loPI   C4A 5738   3.387   8.642   8.289 -0.0483  0.0061 -0.1647
  359loPI   C5A 5739   3.361   8.691   7.935  0.0250 -0.0638  0.0440
  359loPI   C6A 5740   3.626   9.041   7.902 -0.2408 -0.2592 -0.1711
  359loPI   C1B 5741   3.510   8.717   9.426  0.3386  0.0418  0.0966
  359loPI   C2B 5742   3.527   8.814   8.986  0.1296 -0.2656  0.0093
  359loPI   C3B 5743   3.430   9.042   8.629  0.0246 -0.1003 -0.6064
  359loPI   C4B 5744   3.343   9.149   8.279  0.1179 -0.1230  0.0836
  360loPI    C1 5745   3.235   0.568  10.128  0.0130 -0.2492 -0.0791
  360loPI    C2 5746   3.455   0.739  10.416  0.0231 -0.0313 -0.2138
  360loPI    C3 5747   3.112   0.554  10.509 -0.0122  0.1042 -0.0712
  360loPI   PO4 5748   3.250   0.769   9.930 -0.0755  0.0551 -0.0073
  360loPI   GL1 5749   3.346   0.778   9.533 -0.3143 -0.0758  0.1717
  360loPI   GL2 5750   2.965   0.821   9.518  0.0041 -0.0266  0.0688
  360loPI   C1A 5751   3.585   0.783   9.207  0.2451  0.0200  0.0957
  360loPI   C2A 5752   3.470   0.893   8.813 -0.0644 -0.0658  0.1399
  360loPI   C3A 5753   3.472   0.916   8.322  0.1238  0.0220 -0.1591
  360loPI   C4A 5754   3.485   0.777   7.903 -0.2055  0.3192 -0.4838
  360loPI   C5A 5755   3.427   0.494   7.623  0.2657 -0.2688 -0.1056
  360loPI   C6A 5756   3.633   0.169   7.537 -0.3355  0.0793  0.0787
  360loPI   C1B 5757   3.021   0.793   9.024  0.3648 -0.0089  0.0986
  360loPI   C2B 5758   2.944   0.869   8.535  0.1983 -0.0781 -0.3207
  360loPI   C3B 5759   3.030   0.876   8.082  0.0722 -0.0419  0.1228
  360loPI   C4B 5760   2.966   0.542   7.790 -0.0066 -0.2577  0.0975
  361loPI    C1 5761  17.357   5.536  10.093  0.0154  0.2702  0.0395
  361loPI    C2 5762  17.515   5.427  10.444  0.0903 -0.0173 -0.0804
  361loPI    C3 5763  17.155   5.601  10.432 -0.1067 -0.3999  0.1099
  361loPI   PO4 5764  17.487   5.681  10.027  0.2942  0.2640 -0.0126
  361loPI   GL1 5765  17.207   5.804   9.672 -0.0475  0.0068  0.0429
  361loPI   GL2 5766  16.960   6.014   9.542 -0.1783  0.3048  0.0718
  361loPI   C1A 5767  17.045   5.509   9.411 -0.1001 -0.1465  0.0984
  361loPI   C2A 5768  16.789   5.527   9.054  0.1328 -0.1366  0.2375
  361loPI   C3A 5769  16.755   5.569   8.709 -0.0555  0.1583  0.1659
  361loPI   C4A 5770  16.732   5.689   8.286  0.3925 -0.0519 -0.0535
  361loPI   C5A 5771  16.653   5.523   7.864  0.1395  0.4622 -0.1287
  361loPI   C6A 5772  16.510   5.521   7.457  0.1855 -0.0500 -0.0461
  361loPI   C1B 5773  17.066   5.971   9.080  0.1578 -0.1402 -0.3764
  361loPI   C2B 5774  17.055   6.043   8.673  0.0466  0.0459 -0.0544
  361loPI   C3B 5775  16.861   6.160   8.265  0.0489  0.1622  0.1085
  361loPI   C4B 5776  16.672   6.024   7.925  0.1800 -0.1368  0.1812
  362loPI    C1 5777  10.020  11.124  10.860 -0.0415  0.1038  0.0188
  362loPI    C2 5778  10.375  11.296  10.795  0.0511 -0.1441 -0.1447
  362loPI    C3 5779  10.329  11.043  11.102 -0.1441  0.3319  0.2300
  362loPI   PO4 5780   9.997  11.063  10.616  0.2140  0.1189 -0.3767
  362loPI   GL1 5781  10.272  11.126  10.235  0.1029  0.1480  0.3768
  362loPI   GL2 5782  10.175  11.387  10.044  0.2289  0.2156  0.2502
  362loPI   C1A 5783  10.629  11.068   9.983 -0.0233 -0.0012 -0.1791
  362loPI   C2A 5784  10.669  11.005   9.490 -0.0825 -0.1294  0.0605
  362loPI   C3A 5785  10.630  11.092   9.016  0.0276  0.0788 -0.1325
  362loPI   C4A 5786  10.801  11.057   8.585  0.1571  0.3516 -0.1551
  362loPI   C5A 5787  10.905  11.080   8.138  0.0611 -0.1312  0.0068
  362loPI   C6A 5788  10.833  10.990   7.701  0.0151  0.2562 -0.1388
  362loPI   C1B 5789  10.096  11.546   9.718  0.0188 -0.1126 -0.2660
  362loPI   C2B 5790  10.187  11.673   9.362 -0.0125 -0.2147  0.3088
  362loPI   C3B 5791  10.301  11.476   9.067 -0.1046 -0.1222  0.2654
  362loPI   C4B 5792  10.497  11.466   8.638  0.1682 -0.3094 -0.0322
  363loPI    C1 5793   5.183   3.903  10.128 -0.2703  0.0394  0.1740
  363loPI    C2 5794   5.137   3.657  10.440 -0.1031 -0.0064  0.1632
  363loPI    C3 5795   5.379   3.975  10.469 -0.0133 -0.0635  0.0508
  363loPI   PO4 5796   5.195   3.729   9.922 -0.0235 -0.2693 -0.0393
  363loPI   GL1 5797   5.232   3.552   9.530  0.1859  0.0052  0.1811
  363loPI   GL2 5798   5.263   3.246   9.466  0.0318 -0.1234  0.2635
  363loPI   C1A 5799   4.985   3.550   9.174 -0.2412 -0.0183 -0.0184
  363loPI   C2A 5800   4.920   3.495   8.755 -0.0912 -0.0935 -0.2290
  363loPI   C3A 5801   4.896   3.446   8.333  0.0308 -0.1725  0.0615
  363loPI   C4A 5802   4.693   3.394   7.951  0.0568 -0.0992 -0.1737
  363loPI   C5A 5803   4.307   3.430   7.875  0.2568  0.0141 -0.2637
  363loPI   C6A 5804   3.991   3.206   7.590  0.0912  0.0803 -0.3099
  363loPI   C1B 5805   5.543   3.323   9.064 -0.0143 -0.0511  0.4793
  363loPI   C2B 5806   5.732   3.312   8.698 -0.0466 -0.1527 -0.2026
  363loPI   C3B 5807   5.926   3.346   8.281  0.2929 -0.1719 -0.1273
  363loPI   C4B 5808   6.240   3.534   8.120  0.3522 -0.0534  0.2373
  364loPI    C1 5809  16.837  15.725  10.271 -0.0596  0.1231 -0.2190
  364loPI    C2 5810  16.834  15.485  10.590 -0.0983 -0.0577 -0.3537
  364loPI    C3 5811  16.707  15.863  10.623 -0.1016 -0.0749 -0.1559
  364loPI   PO4 5812  16.765  15.571  10.089  0.0811  0.1628  0.0716
  364loPI   GL1 5813  16.772  15.471   9.736  0.1834 -0.0022  0.2431
  364loPI   GL2 5814  16.818  15.184   9.773  0.1482  0.1978 -0.3145
  364loPI   C1A 5815  16.934  15.781   9.440 -0.2192 -0.0893 -0.2346
  364loPI   C2A 5816  17.140  15.781   9.031 -0.2329 -0.1592 -0.1523
  364loPI   C3A 5817  17.036  15.915   8.645  0.0899 -0.0946 -0.2799
  364loPI   C4A 5818  16.729  15.875   8.251 -0.1805 -0.2121 -0.3988
  364loPI   C5A 5819  16.445  16.040   7.961  0.2711 -0.1945  0.0671
  364loPI   C6A 5820  16.615  16.372   7.681 -0.0647  0.3745  0.4760
  364loPI   C1B 5821  16.597  15.132   9.381  0.1975  0.0347 -0.4760
  364loPI   C2B 5822  16.256  15.217   9.095 -0.0471  0.0949 -0.0261
  364loPI   C3B 5823  16.241  15.485   8.842  0.0577 -0.1820 -0.0145
  364loPI   C4B 5824  16.433  15.474   8.409  0.0557  0.0797  0.3135
  365loPI    C1 5825   7.346   9.534  10.268 -0.0214 -0.1649  0.0283
  365loPI    C2 5826   7.074   9.799  10.142  0.2314 -0.0053 -0.1933
  365loPI    C3 5827   7.219   9.823  10.514  0.0681  0.0110 -0.1297
  365loPI   PO4 5828   7.336   9.356   9.994  0.0738 -0.0456  0.1105
  365loPI   GL1 5829   7.425   9.615   9.735  0.0017 -0.0949  0.2385
  365loPI   GL2 5830   7.505   9.853   9.580 -0.2502  0.1495 -0.0123
  365loPI   C1A 5831   7.519   9.418   9.361 -0.2539 -0.0982 -0.2470
  365loPI   C2A 5832   7.474   9.426   8.942  0.0682 -0.1354  0.3265
  365loPI   C3A 5833   7.315   9.520   8.568 -0.0039  0.3600  0.2835
  365loPI   C4A 5834   7.454   9.413   8.082  0.0456  0.1620 -0.0896
  365loPI   C5A 5835   7.547   9.728   7.716 -0.2586  0.3721  0.0550
  365loPI   C6A 5836   7.448  10.180   7.522  0.2259 -0.1227  0.0129
  365loPI   C1B 5837   7.749   9.829   9.150 -0.1041  0.2011 -0.2090
  365loPI   C2B 5838   7.802   9.906   8.723  0.1397  0.0094 -0.1416
  365loPI   C3B 5839   7.617   9.853   8.315 -0.2560 -0.0262 -0.1025
  365loPI   C4B 5840   7.485  10.171   8.045 -0.0267 -0.1576 -0.2477
  366loPI    C1 5841  17.029  16.384  10.536  0.1087  0.1176  0.1075
  366loPI    C2 5842  17.021  16.171  10.874  0.1357  0.0372  0.0576
  366loPI    C3 5843  17.359  16.350  10.758  0.1926 -0.1382 -0.0520
  366loPI   PO4 5844  16.899  16.233  10.380 -0.1550  0.0638  0.1620
  366loPI   GL1 5845  16.769  16.337   9.968 -0.1862  0.1361  0.1609
  366loPI   GL2 5846  16.649  16.654   9.826 -0.2720  0.1684 -0.0346
  366loPI   C1A 5847  16.766  16.362   9.467  0.4155 -0.3136  0.0432
  366loPI   C2A 5848  16.774  16.216   9.118 -0.0462  0.1056 -0.1179
  366loPI   C3A 5849  16.770  16.333   8.672 -0.1268  0.2729 -0.1048
  366loPI   C4A 5850  16.850  16.638   8.410 -0.0413 -0.0534 -0.0073
  366loPI   C5A 5851  16.660  16.759   8.004  0.1316 -0.1849  0.3649
  366loPI   C6A 5852  16.277  16.772   7.806  0.4023  0.3519 -0.0892
  366loPI   C1B 5853  16.353  16.660   9.512 -0.2033  0.1513 -0.1762
  366loPI   C2B 5854  16.357  16.523   9.091 -0.0696  0.1169 -0.0056
  366loPI   C3B 5855  16.288  16.548   8.694  0.1417  0.1062 -0.0352
  366loPI   C4B 5856  16.305  16.522   8.228  0.2080 -0.2434  0.3226
  367loPI    C1 5857  16.429   5.040  10.196  0.2434  0.4663 -0.0561
  367loPI    C2 5858  16.223   5.258  10.460 -0.0719  0.1437 -0.0267
  367loPI    C3 5859  16.479   4.979  10.588 -0.0617  0.1364 -0.0628
  367loPI   PO4 5860  16.470   5.213   9.956 -0.0417  0.1530 -0.0326
  367loPI   GL1 5861  16.215   5.284   9.648 -0.1169  0.0545  0.2021
  367loPI   GL2 5862  15.955   5.347   9.491 -0.1437 -0.0272 -0.0399
  367loPI   C1A 5863  16.457   5.517   9.368 -0.3896 -0.2262 -0.0865
  367loPI   C2A 5864  16.322   5.558   8.958 -0.0463 -0.0926  0.1511
  367loPI   C3A 5865  16.378   5.325   8.549  0.1769  0.2628 -0.2224
  367loPI   C4A 5866  16.449   5.169   8.157 -0.3641 -0.0169 -0.0116
  367loPI   C5A 5867  16.468   5.003   7.708  0.1159 -0.0419  0.0514
  367loPI   C6A 5868  16.392   4.687   7.465 -0.0202 -0.1348  0.0779
  367loPI   C1B 5869  15.875   5.460   9.171  0.0406  0.1495  0.1291
  367loPI   C2B 5870  15.839   5.551   8.708 -0.0617  0.1995 -0.1160
  367loPI   C3B 5871  15.814   5.541   8.280  0.1261 -0.1655  0.0949
  367loPI   C4B 5872  15.729   5.572   7.920  0.1684  0.4725 -0.0087
  368loPI    C1 5873   4.908   2.055  10.457  0.0409  0.0142  0.0856
  368loPI    C2 5874   5.281   2.099  10.593  0.1050 -0.0354 -0.0713
  368loPI    C3 5875   5.030   2.411  10.591  0.2327  0.0680 -0.2228
  368loPI   PO4 5876   4.951   1.927  10.248 -0.1181 -0.2163  0.0669
  368loPI   GL1 5877   5.058   1.945   9.845 -0.1239 -0.0037 -0.1211
  368loPI   GL2 5878   5.269   1.725   9.854 -0.1659 -0.3710  0.1353
  368loPI   C1A 5879   5.113   2.293   9.606  0.0462  0.2086  0.0487
  368loPI   C2A 5880   5.085   2.745   9.512  0.2472  0.4013  0.0547
  368loPI   C3A 5881   5.081   3.048   9.098 -0.0163  0.1548 -0.1828
  368loPI   C4A 5882   5.259   3.157   8.611 -0.0684  0.3610  0.0160
  368loPI   C5A 5883   5.475   3.177   8.267 -0.0583 -0.1240  0.1341
  368loPI   C6A 5884   5.644   3.330   7.892  0.1488 -0.1225 -0.1597
  368loPI   C1B 5885   5.231   1.679   9.315 -0.1881 -0.2052  0.0273
  368loPI   C2B 5886   5.268   1.840   8.993  0.1427  0.1051 -0.3039
  368loPI   C3B 5887   5.090   2.064   8.610 -0.1231  0.4117 -0.1413
  368loPI   C4B 5888   4.854   1.948   8.148  0.4491 -0.2459 -0.0225
  369loPI    C1 5889  12.172   2.506  10.532  0.2456  0.2855  0.2444
  369loPI    C2 5890  12.173   2.231  10.823  0.0470  0.0828  0.0565
  369loPI    C3 5891  11.977   2.576  10.875 -0.0125  0.0353  0.1527
  369loPI   PO4 5892  12.111   2.371  10.329  0.1182 -0.1517  0.0755
  369loPI   GL1 5893  12.237   2.262   9.969 -0.1651 -0.2631  0.0462
  369loPI   GL2 5894  12.532   2.181  10.117 -0.2109  0.2151  0.0889
  369loPI   C1A 5895  12.228   2.296   9.551 -0.0047 -0.1469  0.0837
  369loPI   C2A 5896  12.310   2.308   9.094 -0.1154  0.0574  0.0876
  369loPI   C3A 5897  12.335   2.407   8.676 -0.0765  0.1951  0.1437
  369loPI   C4A 5898  12.270   2.354   8.338  0.2113  0.2417  0.3055
  369loPI   C5A 5899  12.053   2.599   8.062 -0.0304  0.0915 -0.0097
  369loPI   C6A 5900  11.683   2.758   8.017  0.0101 -0.0163  0.0991
  369loPI   C1B 5901  12.742   2.335   9.828 -0.0213 -0.0977 -0.0926
  369loPI   C2B 5902  12.717   2.393   9.405  0.1183 -0.1725 -0.2797
  369loPI   C3B 5903  12.805   2.441   8.973 -0.2398  0.0410  0.0119
  369loPI   C4B 5904  12.950   2.274   8.592 -0.0751 -0.0650  0.0988
  370loPI    C1 5905   1.699   6.316  10.580 -0.0445  0.0618 -0.1254
  370loPI    C2 5906   1.308   6.268  10.514 -0.0278 -0.1429 -0.0797
  370loPI    C3 5907   1.463   6.177  10.872  0.0269  0.1399 -0.0295
  370loPI   PO4 5908   1.906   6.226  10.268  0.0282  0.0183  0.0028
  370loPI   GL1 5909   2.032   6.262   9.876 -0.1255 -0.1235 -0.1532
  370loPI   GL2 5910   1.728   6.434   9.708 -0.4031  0.1366 -0.3167
  370loPI   C1A 5911   2.156   6.057   9.440  0.1490 -0.0115  0.0030
  370loPI   C2A 5912   1.960   5.906   9.024  0.0849 -0.0192  0.0018
  370loPI   C3A 5913   1.930   5.991   8.555  0.2593 -0.0626 -0.1398
  370loPI   C4A 5914   2.008   6.201   8.142  0.0104  0.2211 -0.0105
  370loPI   C5A 5915   2.195   6.594   7.944 -0.2328  0.3283 -0.1872
  370loPI   C6A 5916   2.561   6.916   7.936  0.1482 -0.0518  0.3093
  370loPI   C1B 5917   1.651   6.173   9.392  0.0160  0.0474  0.3497
  370loPI   C2B 5918   1.491   6.311   9.021  0.3055 -0.3991 -0.0124
  370loPI   C3B 5919   1.383   6.150   8.668 -0.2074 -0.0691  0.2664
  370loPI   C4B 5920   1.569   6.285   8.308 -0.2674 -0.2309 -0.1456
  371loPI    C1 5921  17.453   1.450  10.293  0.0804 -0.2516  0.0248
  371loPI    C2 5922  17.222   1.727  10.466  0.1830 -0.1089 -0.0645
  371loPI    C3 5923  17.291   1.380  10.652 -0.0236 -0.1135  0.0058
  371loPI   PO4 5924  17.472   1.651  10.021 -0.0720  0.0438  0.1517
  371loPI   GL1 5925  17.758   1.771   9.736 -0.1068 -0.0136  0.0571
  371loPI   GL2 5926  17.867   1.359   9.633 -0.0042  0.1745 -0.1006
  371loPI   C1A 5927  17.805   1.901   9.333 -0.1801  0.4065  0.1758
  371loPI   C2A 5928  17.608   2.034   8.986 -0.0399 -0.3457  0.1197
  371loPI   C3A 5929  17.753   2.407   8.817  0.1663 -0.0519  0.0668
  371loPI   C4A 5930  17.817   2.658   8.467 -0.0620 -0.0306 -0.0052
  371loPI   C5A 5931  18.058   2.596   8.061  0.0772 -0.1041 -0.0798
  371loPI   C6A 5932  18.115   2.597   7.645  0.2088 -0.1419 -0.0325
  371loPI   C1B 5933  17.630   1.455   9.165  0.0911 -0.1150  0.0542
  371loPI   C2B 5934  17.861   1.625   8.872 -0.1077 -0.0607  0.0654
  371loPI   C3B 5935  17.865   1.822   8.480 -0.3354  0.0810 -0.1451
  371loPI   C4B 5936  17.538   1.740   8.152  0.0040  0.1338 -0.1142
  372loPI    C1 5937  10.798  15.017  10.656  0.1330 -0.0213 -0.1252
  372loPI    C2 5938  10.517  14.751  10.757  0.1360  0.0111 -0.0301
  372loPI    C3 5939  10.438  15.142  10.778  0.2237  0.0225  0.1033
  372loPI   PO4 5940  10.950  14.965  10.517 -0.1414  0.2218  0.1604
  372loPI   GL1 5941  11.241  14.943  10.252 -0.1526 -0.1365 -0.1861
  372loPI   GL2 5942  11.143  14.674  10.115 -0.1163 -0.1883  0.1108
  372loPI   C1A 5943  11.216  15.189   9.903  0.2363  0.2268 -0.2055
  372loPI   C2A 5944  11.315  15.093   9.436 -0.1259  0.0590 -0.2073
  372loPI   C3A 5945  11.617  14.887   9.073 -0.2047  0.0002  0.2575
  372loPI   C4A 5946  11.499  14.930   8.654 -0.0902 -0.0239 -0.2083
  372loPI   C5A 5947  11.457  14.981   8.315 -0.2931 -0.0511 -0.0567
  372loPI   C6A 5948  11.693  15.116   7.931 -0.1222  0.1560 -0.0050
  372loPI   C1B 5949  11.156  14.319   9.807 -0.0653 -0.2168 -0.3522
  372loPI   C2B 5950  11.201  14.238   9.423  0.1011  0.2158 -0.4617
  372loPI   C3B 5951  10.867  14.097   9.131 -0.1542  0.0725  0.3021
  372loPI   C4B 5952  10.642  13.980   8.748  0.0576  0.1657  0.1157
  373loPI    C1 5953  18.417  15.041  10.206  0.1167  0.1385 -0.1646
  373loPI    C2 5954  18.735  14.954  10.432  0.0901  0.0011 -0.1792
  373loPI    C3 5955  18.369  14.844  10.550  0.0410  0.2050 -0.1367
  373loPI   PO4 5956  18.400  14.918   9.994 -0.0307 -0.0634 -0.0076
  373loPI   GL1 5957  18.374  15.054   9.575 -0.2825 -0.1277  0.1598
  373loPI   GL2 5958  18.401  15.335   9.344 -0.0899  0.2983 -0.0748
  373loPI   C1A 5959  18.483  14.858   9.241  0.0422 -0.1735  0.1332
  373loPI   C2A 5960  18.295  14.767   8.812 -0.0508  0.2909  0.0537
  373loPI   C3A 5961  18.111  14.797   8.381 -0.0546  0.0671 -0.1067
  373loPI   C4A 5962  17.980  15.000   8.128 -0.1430  0.3324  0.0080
  373loPI   C5A 5963  17.926  15.229   7.761  0.2949  0.0826 -0.1461
  373loPI   C6A 5964  17.595  15.345   7.517 -0.3921  0.1708 -0.1695
  373loPI   C1B 5965  18.399  15.304   8.915  0.0412  0.2522  0.0828
  373loPI   C2B 5966  18.398  15.183   8.495 -0.2261  0.0081  0.5343
  373loPI   C3B 5967  18.615  15.220   8.144 -0.1608  0.0888  0.1485
  373loPI   C4B 5968  18.480  15.230   7.617  0.1707 -0.0386  0.1425
  374loPI    C1 5969   7.477   5.150  10.729  0.1491  0.2675 -0.1086
  374loPI    C2 5970   7.636   5.383  11.013  0.0190  0.0773  0.1237
  374loPI    C3 5971   7.859   5.101  10.838 -0.0378 -0.1476  0.4051
  374loPI   PO4 5972   7.436   5.337  10.580  0.2080  0.0376  0.1380
  374loPI   GL1 5973   7.435   5.330  10.132  0.3289 -0.0800 -0.1700
  374loPI   GL2 5974   7.529   5.003   9.966  0.0308  0.1287 -0.2508
  374loPI   C1A 5975   7.542   5.545   9.812 -0.0222  0.0152  0.0319
  374loPI   C2A 5976   7.579   5.614   9.418  0.0032  0.3808  0.0089
  374loPI   C3A 5977   7.536   5.643   8.964  0.3123 -0.2489 -0.0627
  374loPI   C4A 5978   7.541   5.638   8.602 -0.3696  0.0263 -0.1623
  374loPI   C5A 5979   7.482   5.673   8.141  0.1200  0.0156 -0.0487
  374loPI   C6A 5980   7.833   5.900   7.823 -0.0701  0.0397 -0.2009
  374loPI   C1B 5981   7.741   5.111   9.634 -0.1334  0.1368  0.0492
  374loPI   C2B 5982   7.828   5.202   9.149 -0.0421  0.3484  0.0373
  374loPI   C3B 5983   7.635   5.205   8.842 -0.3181  0.2964  0.1013
  374loPI   C4B 5984   7.678   5.122   8.459 -0.0102 -0.3008  0.1484
  375loPI    C1 5985   0.536  16.676  10.583 -0.2116  0.0500  0.0543
  375loPI    C2 5986   0.855  16.441  10.636 -0.1948  0.0104 -0.2091
  375loPI    C3 5987   0.493  16.278  10.583 -0.2147  0.0492 -0.1926
  375loPI   PO4 5988   0.709  16.910  10.435 -0.0870 -0.0054 -0.1057
  375loPI   GL1 5989   0.794  17.070  10.024  0.0791  0.2544  0.0794
  375loPI   GL2 5990   0.841  17.347  10.042  0.1405 -0.0666  0.2411
  375loPI   C1A 5991   0.775  16.811   9.573  0.0703  0.0450 -0.4066
  375loPI   C2A 5992   0.879  16.756   9.137 -0.0522  0.0955 -0.1296
  375loPI   C3A 5993   1.044  16.909   8.858 -0.0347 -0.1071 -0.0832
  375loPI   C4A 5994   1.297  16.822   8.576 -0.1054 -0.0461 -0.1450
  375loPI   C5A 5995   1.530  16.913   8.199  0.3144  0.2152  0.0788
  375loPI   C6A 5996   1.745  17.094   7.796 -0.1063  0.3864 -0.1020
  375loPI   C1B 5997   1.024  17.338   9.625  0.1438  0.0324  0.2932
  375loPI   C2B 5998   0.937  17.274   9.168 -0.1358  0.0353  0.0668
  375loPI   C3B 5999   1.022  17.403   8.726  0.5456  0.0835  0.1030
  375loPI   C4B 6000   0.913  17.127   8.374  0.2070 -0.3954 -0.1158
  376loPI    C1 6001  15.707  12.328  10.310  0.0317 -0.0875  0.1378
  376loPI    C2 6002  15.869  11.968  10.248 -0.0357 -0.1236  0.1702
  376loPI    C3 6003  15.739  12.069  10.613  0.0408 -0.0425  0.1754
  376loPI   PO4 6004  15.848  12.466  10.152  0.0265  0.0079  0.4778
  376loPI   GL1 6005  15.721  12.350   9.790 -0.0074  0.0704  0.0886
  376loPI   GL2 6006  15.829  12.009   9.765  0.0287 -0.1097  0.1038
  376loPI   C1A 6007  15.596  12.229   9.438 -0.1856 -0.4889  0.0221
  376loPI   C2A 6008  15.436  12.170   9.036  0.1293 -0.0680 -0.3169
  376loPI   C3A 6009  15.391  12.136   8.633 -0.1120 -0.1688  0.4357
  376loPI   C4A 6010  15.561  12.122   8.157 -0.0062 -0.0153  0.1987
  376loPI   C5A 6011  15.907  11.909   7.853  0.0295 -0.0964  0.1652
  376loPI   C6A 6012  16.393  11.933   7.907 -0.2736  0.2283  0.1277
  376loPI   C1B 6013  15.829  11.817   9.381 -0.1452 -0.0514 -0.1882
  376loPI   C2B 6014  15.658  11.682   8.986 -0.1925 -0.0355  0.1533
  376loPI   C3B 6015  15.642  11.506   8.502  0.2191  0.4281 -0.2477
  376loPI   C4B 6016  15.613  11.503   8.089 -0.0248  0.0335  0.0142
  377loPI    C1 6017  13.657  18.419  10.568 -0.1435  0.1010 -0.2054
  377loPI    C2 6018  13.912  18.288  10.289 -0.0850 -0.0213 -0.0957
  377loPI    C3 6019  13.885  18.099  10.641  0.1103  0.3496  0.1258
  377loPI   PO4 6020  13.386  18.441  10.395  0.1627  0.1688 -0.0716
  377loPI   GL1 6021  13.058  18.458  10.063 -0.1012  0.0077  0.2062
  377loPI   GL2 6022  13.033  18.691   9.883 -0.1306 -0.1549  0.1265
  377loPI   C1A 6023  13.005  18.234   9.718  0.2971 -0.4183 -0.3184
  377loPI   C2A 6024  12.864  18.253   9.269  0.3343 -0.1453  0.3555
  377loPI   C3A 6025  12.982  18.023   8.882 -0.1282  0.0681  0.0855
  377loPI   C4A 6026  12.903  17.656   8.634 -0.3475 -0.1934  0.0230
  377loPI   C5A 6027  13.029  17.676   8.115  0.0942 -0.0826 -0.0276
  377loPI   C6A 6028  13.102  17.422   7.860  0.0715  0.1784 -0.0041
  377loPI   C1B 6029  12.938  18.773   9.476 -0.0877  0.1691  0.1022
  377loPI   C2B 6030  12.735  18.758   9.132  0.0949 -0.0163 -0.0366
  377loPI   C3B 6031  12.903  18.638   8.793 -0.4780  0.3176 -0.2224
  377loPI   C4B 6032  12.966  18.666   8.362 -0.2017 -0.3874  0.1534
  378loPI    C1 6033  12.832   0.621  10.438 -0.1489  0.0228  0.1879
  378loPI    C2 6034  12.828   0.978  10.620 -0.2169  0.0490  0.1356
  378loPI    C3 6035  12.654   0.662  10.794  0.0571 -0.0158  0.2966
  378loPI   PO4 6036  12.798   0.659  10.252 -0.3565 -0.2712  0.2059
  378loPI   GL1 6037  12.619   0.430   9.891  0.2773  0.1859  0.4673
  378loPI   GL2 6038  12.449   0.742   9.922 -0.0663  0.1793  0.0970
  378loPI   C1A 6039  12.866   0.647   9.629 -0.2029 -0.0742  0.1943
  378loPI   C2A 6040  13.021   0.609   9.199 -0.1125  0.2032  0.1064
  378loPI   C3A 6041  13.081   0.539   8.725 -0.3791  0.0047  0.0044
  378loPI   C4A 6042  13.403   0.615   8.350  0.0517 -0.0737 -0.0656
  378loPI   C5A 6043  13.294   0.586   8.029 -0.0207  0.0598 -0.0922
  378loPI   C6A 6044  12.868   0.649   7.792 -0.4593 -0.2204  0.0494
  378loPI   C1B 6045  12.403   0.850   9.498 -0.0553 -0.2600 -0.1125
  378loPI   C2B 6046  12.484   0.653   9.098 -0.0959 -0.0899  0.1749
  378loPI   C3B 6047  12.531   0.404   8.737 -0.0806 -0.1727 -0.2380
  378loPI   C4B 6048  12.728   0.498   8.376 -0.4244 -0.1258  0.3533
  379loPI    C1 6049  11.323   4.369  10.541  0.2894  0.1019 -0.1297
  379loPI    C2 6050  11.455   4.043  10.732  0.2346  0.2341  0.1386
  379loPI    C3 6051  11.107   4.032  10.535  0.3349  0.0707 -0.0327
  379loPI   PO4 6052  11.570   4.391  10.347  0.0560 -0.1745 -0.2111
  379loPI   GL1 6053  11.567   4.332   9.894 -0.4768  0.2590 -0.0317
  379loPI   GL2 6054  11.314   4.168   9.979 -0.0123 -0.2197  0.0629
  379loPI   C1A 6055  11.610   4.268   9.423  0.3987  0.1056  0.2637
  379loPI   C2A 6056  11.579   4.152   8.965 -0.0471 -0.0182  0.0400
  379loPI   C3A 6057  11.879   4.089   8.640  0.0080  0.1645  0.0905
  379loPI   C4A 6058  11.931   3.871   8.253 -0.0624  0.1537 -0.1210
  379loPI   C5A 6059  11.764   3.927   7.875  0.2586 -0.3572 -0.2467
  379loPI   C6A 6060  11.894   3.989   7.422  0.0960  0.2227 -0.0211
  379loPI   C1B 6061  11.213   3.899   9.690 -0.3696 -0.1132 -0.0481
  379loPI   C2B 6062  11.163   3.830   9.287  0.1008 -0.3840 -0.1869
  379loPI   C3B 6063  11.320   3.805   8.804 -0.1527 -0.0569 -0.2787
  379loPI   C4B 6064  11.424   3.800   8.340 -0.0397  0.0598 -0.1257
  380loPI    C1 6065   1.595   8.610  10.699 -0.2130  0.1695 -0.0889
  380loPI    C2 6066   1.432   8.336  10.941  0.2910  0.0247  0.0979
  380loPI    C3 6067   1.581   8.674  11.094  0.2747  0.1016 -0.0549
  380loPI   PO4 6068   1.641   8.491  10.387 -0.0806  0.0378  0.2478
  380loPI   GL1 6069   1.466   8.484  10.045 -0.0155 -0.0019 -0.0886
  380loPI   GL2 6070   1.380   8.119  10.122 -0.0556  0.1296  0.1656
  380loPI   C1A 6071   1.576   8.496   9.579  0.0910  0.1738 -0.1780
  380loPI   C2A 6072   1.606   8.384   9.075  0.0435 -0.1006 -0.4121
  380loPI   C3A 6073   1.491   8.259   8.714  0.0692  0.0844  0.1904
  380loPI   C4A 6074   1.463   8.368   8.311  0.0845  0.1595  0.1631
  380loPI   C5A 6075   1.394   8.625   7.992 -0.2060 -0.0238 -0.3128
  380loPI   C6A 6076   1.334   8.680   7.551  0.1275 -0.0891  0.2029
  380loPI   C1B 6077   1.247   8.095   9.774 -0.1885  0.1985  0.0326
  380loPI   C2B 6078   1.243   8.151   9.360  0.1621 -0.1416 -0.1533
  380loPI   C3B 6079   1.038   8.294   9.028  0.1601  0.0518  0.1195
  380loPI   C4B 6080   1.036   8.503   8.606 -0.0950  0.1517  0.0778
  381loPI    C1 6081  10.939   6.814  10.167  0.1245 -0.2618  0.2680
  381loPI    C2 6082  11.181   6.496  10.184  0.1533 -0.2313  0.4438
  381loPI    C3 6083  11.105   6.707  10.515  0.1209 -0.0651  0.3314
  381loPI   PO4 6084  10.967   6.954   9.996 -0.0220  0.1578 -0.3838
  381loPI   GL1 6085  11.216   6.755   9.757 -0.0855  0.0549 -0.0415
  381loPI   GL2 6086  11.453   6.639   9.730  0.2308  0.1646  0.1818
  381loPI   C1A 6087  11.104   6.415   9.489 -0.0356  0.3925 -0.1829
  381loPI   C2A 6088  11.109   6.080   9.162  0.0066  0.0706 -0.2081
  381loPI   C3A 6089  10.857   5.894   8.768  0.0066  0.0511  0.1747
  381loPI   C4A 6090  10.699   5.887   8.368  0.5275 -0.0019  0.1063
  381loPI   C5A 6091  10.525   6.119   8.006  0.3927  0.2616  0.2684
  381loPI   C6A 6092  10.696   6.272   7.676 -0.2512 -0.0504 -0.0538
  381loPI   C1B 6093  11.460   6.786   9.348 -0.0592  0.5058  0.1337
  381loPI   C2B 6094  11.585   6.985   8.873 -0.3939  0.0858 -0.1025
  381loPI   C3B 6095  11.762   7.204   8.563  0.0673 -0.1171 -0.2677
  381loPI   C4B 6096  12.088   7.055   8.324 -0.0311  0.0135 -0.0985
  382loPI    C1 6097  16.075   9.025  10.463  0.1590  0.0251 -0.1709
  382loPI    C2 6098  15.692   9.064  10.354  0.0932 -0.1298  0.0000
  382loPI    C3 6099  15.867   9.349  10.573  0.0528 -0.0956 -0.0120
  382loPI   PO4 6100  16.221   9.022  10.189  0.0833  0.0365  0.0098
  382loPI   GL1 6101  16.381   8.969   9.742  0.1393  0.2076 -0.0508
  382loPI   GL2 6102  16.729   8.972   9.501  0.0264 -0.1070  0.0980
  382loPI   C1A 6103  15.976   9.032   9.575  0.1539  0.5360 -0.1053
  382loPI   C2A 6104  15.775   8.780   9.216  0.1044 -0.2553 -0.3430
  382loPI   C3A 6105  15.785   8.883   8.776 -0.0156 -0.0668 -0.2011
  382loPI   C4A 6106  15.622   8.777   8.359  0.0471 -0.2927  0.1630
  382loPI   C5A 6107  15.504   8.801   7.967  0.0196 -0.1684 -0.1239
  382loPI   C6A 6108  15.551   9.086   7.746 -0.2807 -0.5240 -0.3442
  382loPI   C1B 6109  16.753   8.943   9.071 -0.0697 -0.0529  0.0196
  382loPI   C2B 6110  16.817   8.908   8.595 -0.0573  0.0226  0.1137
  382loPI   C3B 6111  16.895   8.873   8.178 -0.1543  0.0424 -0.2896
  382loPI   C4B 6112  16.999   8.826   7.815 -0.3277  0.1182 -0.1125
  383loPI    C1 6113  10.269   3.160  10.512 -0.0951 -0.1083 -0.0147
  383loPI    C2 6114  10.238   3.411  10.821  0.1080 -0.2011  0.0826
  383loPI    C3 6115   9.947   3.395  10.547 -0.0267 -0.0468  0.2142
  383loPI   PO4 6116  10.479   3.152  10.453 -0.5498 -0.2630 -0.2781
  383loPI   GL1 6117  10.697   3.256  10.097  0.0666 -0.0759 -0.3720
  383loPI   GL2 6118  10.305   3.297   9.946 -0.0650 -0.2636  0.0317
  383loPI   C1A 6119  10.872   2.986   9.747  0.0235  0.1079  0.0738
  383loPI   C2A 6120  10.824   3.013   9.306 -0.3129  0.0261 -0.1328
  383loPI   C3A 6121  10.745   3.115   8.907 -0.0630 -0.3179  0.0426
  383loPI   C4A 6122  10.625   3.136   8.505  0.1861 -0.0449  0.0364
  383loPI   C5A 6123  10.570   3.106   8.077 -0.1052  0.0105  0.0538
  383loPI   C6A 6124  10.650   2.764   7.716 -0.1413 -0.1627 -0.1575
  383loPI   C1B 6125  10.415   3.131   9.620  0.2433  0.3128  0.0407
  383loPI   C2B 6126  10.329   3.129   9.254  0.1475 -0.1326 -0.0200
  383loPI   C3B 6127  10.230   2.974   8.922 -0.0276 -0.1089  0.0285
  383loPI   C4B 6128  10.149   2.838   8.443 -0.0399 -0.1728  0.0866
  384loPI    C1 6129   2.576   2.139  10.155 -0.0845 -0.2236  0.0464
  384loPI    C2 6130   2.866   2.382  10.285 -0.2122 -0.1658  0.2276
  384loPI    C3 6131   2.710   2.107  10.531 -0.2553 -0.2512  0.1058
  384loPI   PO4 6132   2.674   2.093   9.882  0.0020  0.0334 -0.1438
  384loPI   GL1 6133   2.429   2.079   9.508 -0.0008 -0.0471  0.0929
  384loPI   GL2 6134   2.431   2.495   9.533  0.0047  0.1073  0.2050
  384loPI   C1A 6135   2.369   1.937   9.067 -0.0426 -0.0443 -0.2806
  384loPI   C2A 6136   2.505   1.851   8.681 -0.0022 -0.0930  0.2355
  384loPI   C3A 6137   2.354   1.662   8.275 -0.1156  0.0087  0.1894
  384loPI   C4A 6138   2.353   1.574   7.866  0.2163 -0.1427  0.0221
  384loPI   C5A 6139   2.426   1.668   7.398 -0.1860  0.2985  0.0626
  384loPI   C6A 6140   2.499   1.558   6.956  0.3095 -0.3560 -0.1725
  384loPI   C1B 6141   2.440   2.448   9.045 -0.3910  0.2129  0.1714
  384loPI   C2B 6142   2.448   2.378   8.639 -0.1077 -0.1533  0.1272
  384loPI   C3B 6143   2.591   2.158   8.206  0.2501 -0.1753 -0.1450
  384loPI   C4B 6144   2.705   2.026   7.907 -0.1575  0.2790 -0.1274
  385loPI    C1 6145  13.680  14.825  10.714  0.0897 -0.1268  0.2902
  385loPI    C2 6146  14.048  14.669  10.711  0.0852 -0.1363  0.2343
  385loPI    C3 6147  13.946  14.935  10.992  0.1833 -0.0182  0.1591
  385loPI   PO4 6148  13.688  14.929  10.416  0.0198  0.0531  0.0603
  385loPI   GL1 6149  13.740  14.976  10.051  0.3842 -0.0794 -0.0719
  385loPI   GL2 6150  13.649  14.769   9.966  0.2220  0.2008 -0.0079
  385loPI   C1A 6151  13.580  15.313   9.756  0.1731  0.1040 -0.0522
  385loPI   C2A 6152  13.405  15.360   9.420 -0.0356  0.0569  0.0533
  385loPI   C3A 6153  13.461  15.290   8.943 -0.4533 -0.0034 -0.1662
  385loPI   C4A 6154  13.543  15.323   8.548 -0.2153 -0.0123  0.1798
  385loPI   C5A 6155  13.679  15.215   8.252 -0.1064 -0.0241 -0.2248
  385loPI   C6A 6156  13.788  14.896   8.036  0.2535 -0.1403 -0.0906
  385loPI   C1B 6157  13.559  14.832   9.562  0.1576 -0.0120 -0.0684
  385loPI   C2B 6158  13.553  14.849   9.067 -0.1098  0.0132 -0.3098
  385loPI   C3B 6159  13.537  14.821   8.585 -0.1616 -0.1628 -0.1512
  385loPI   C4B 6160  13.535  14.547   8.275 -0.0152  0.1299 -0.0104
  386loPI    C1 6161   4.045   6.661  10.151  0.1994  0.1216  0.0192
  386loPI    C2 6162   4.216   6.808  10.482  0.0192 -0.1447  0.2358
  386loPI    C3 6163   4.288   6.431  10.371  0.1597 -0.0257 -0.0900
  386loPI   PO4 6164   3.805   6.994  10.032 -0.2137  0.1722 -0.1639
  386loPI   GL1 6165   3.484   7.157   9.744 -0.1114 -0.0101  0.2326
  386loPI   GL2 6166   3.831   7.309   9.695 -0.0982 -0.0565 -0.1264
  386loPI   C1A 6167   3.241   7.177   9.270 -0.1235 -0.0223 -0.0941
  386loPI   C2A 6168   3.182   7.322   8.903  0.2252 -0.0350 -0.1042
  386loPI   C3A 6169   2.949   7.374   8.518  0.2165 -0.3017 -0.2814
  386loPI   C4A 6170   2.862   7.331   8.086 -0.0195 -0.1388 -0.0687
  386loPI   C5A 6171   2.518   7.519   7.796 -0.0240 -0.0852  0.4180
  386loPI   C6A 6172   2.155   7.731   7.636 -0.0111 -0.1788 -0.2266
  386loPI   C1B 6173   3.743   7.406   9.376  0.1104  0.1602 -0.0371
  386loPI   C2B 6174   3.696   7.355   8.914 -0.2349  0.0559  0.3813
  386loPI   C3B 6175   3.549   7.325   8.515 -0.0138 -0.1473 -0.0982
  386loPI   C4B 6176   3.433   7.286   8.166  0.0851 -0.3337  0.3153
  387loPI    C1 6177   8.103  15.231  10.499  0.0426 -0.0285  0.0657
  387loPI    C2 6178   7.749  15.338  10.652  0.0012  0.0517 -0.0846
  387loPI    C3 6179   7.945  15.023  10.802 -0.0383  0.1292  0.1329
  387loPI   PO4 6180   7.979  15.270  10.213 -0.1809  0.1801  0.4807
  387loPI   GL1 6181   8.021  14.923   9.952 -0.0411  0.0001 -0.0581
  387loPI   GL2 6182   7.682  14.914   9.859 -0.3101  0.1275 -0.0692
  387loPI   C1A 6183   8.246  14.684   9.652 -0.0177 -0.1211 -0.0004
  387loPI   C2A 6184   8.251  14.709   9.275 -0.1356  0.1062  0.1747
  387loPI   C3A 6185   8.367  14.973   8.866 -0.0008  0.1268 -0.0305
  387loPI   C4A 6186   8.240  15.028   8.414 -0.1535 -0.1325  0.0999
  387loPI   C5A 6187   7.928  14.886   8.100  0.0379 -0.1252 -0.0720
  387loPI   C6A 6188   7.865  15.101   7.730  0.1820 -0.0293  0.3142
  387loPI   C1B 6189   7.738  14.747   9.375 -0.3751 -0.0239  0.1698
  387loPI   C2B 6190   7.823  14.823   8.913 -0.2768  0.0014  0.1133
  387loPI   C3B 6191   7.735  14.995   8.553 -0.0063  0.2177  0.1442
  387loPI   C4B 6192   7.555  15.281   8.163 -0.2614  0.1621 -0.4164
  388loPI    C1 6193  14.527   7.644  10.448 -0.1587  0.0222  0.0407
  388loPI    C2 6194  14.589   7.346  10.707 -0.4420 -0.0507  0.0287
  388loPI    C3 6195  14.575   7.723  10.837  0.1335 -0.0153  0.0141
  388loPI   PO4 6196  14.361   7.462  10.252  0.0245  0.0887  0.3863
  388loPI   GL1 6197  14.188   7.435   9.880  0.2008  0.0533  0.0219
  388loPI   GL2 6198  14.165   7.138   9.804  0.0141 -0.2154  0.0293
  388loPI   C1A 6199  14.336   7.627   9.522 -0.4036 -0.1980  0.0557
  388loPI   C2A 6200  14.325   7.588   9.092 -0.2880  0.0656 -0.4893
  388loPI   C3A 6201  14.429   7.607   8.599  0.0011  0.0089 -0.1404
  388loPI   C4A 6202  14.415   7.494   8.227  0.4512 -0.3845 -0.0257
  388loPI   C5A 6203  14.659   7.148   7.985  0.1213 -0.1013 -0.0009
  388loPI   C6A 6204  15.076   7.116   7.673 -0.1233  0.0633  0.0789
  388loPI   C1B 6205  13.897   7.244   9.528  0.0656  0.1727  0.4484
  388loPI   C2B 6206  13.608   7.114   9.122 -0.0095  0.1030 -0.2015
  388loPI   C3B 6207  13.748   6.938   8.777  0.0147 -0.0972 -0.3602
  388loPI   C4B 6208  13.957   6.603   8.594 -0.1914  0.2725 -0.0346
  389loPI    C1 6209  15.784   4.761  10.096  0.0391  0.3374 -0.0579
  389loPI    C2 6210  15.985   4.751  10.441  0.0836  0.0583 -0.0897
  389loPI    C3 6211  15.672   4.996  10.399  0.0861  0.1037  0.1434
  389loPI   PO4 6212  16.059   4.849   9.876  0.2274 -0.0569 -0.0601
  389loPI   GL1 6213  16.346   4.862   9.424 -0.1220 -0.0104  0.0700
  389loPI   GL2 6214  16.623   4.996   9.509  0.1662  0.2837 -0.0133
  389loPI   C1A 6215  16.108   4.995   9.175 -0.0530 -0.0622  0.0999
  389loPI   C2A 6216  16.048   5.072   8.872 -0.1990  0.0859  0.4666
  389loPI   C3A 6217  15.958   5.022   8.441 -0.1210 -0.0049 -0.1146
  389loPI   C4A 6218  15.767   5.076   8.117 -0.1190 -0.4336 -0.1812
  389loPI   C5A 6219  16.007   5.205   7.758  0.1636 -0.0144  0.1456
  389loPI   C6A 6220  16.002   5.464   7.349  0.2358 -0.3553 -0.0696
  389loPI   C1B 6221  16.589   5.097   9.064  0.2438  0.4241 -0.0853
  389loPI   C2B 6222  16.779   5.084   8.712  0.4399 -0.0959 -0.0020
  389loPI   C3B 6223  16.926   5.197   8.233  0.3098 -0.1548 -0.0719
  389loPI   C4B 6224  17.192   5.546   7.918  0.2721  0.3816 -0.4300
  390loPI    C1 6225  10.662   1.306  10.645 -0.1852 -0.2881 -0.0971
  390loPI    C2 6226  10.808   1.145  10.981  0.0271  0.1786  0.0428
  390loPI    C3 6227  10.550   1.450  11.000 -0.0427  0.1389 -0.2193
  390loPI   PO4 6228  10.852   1.359  10.458  0.2260  0.0104 -0.0236
  390loPI   GL1 6229  10.735   1.527  10.132 -0.1600 -0.1619 -0.0847
  390loPI   GL2 6230  10.470   1.412  10.139 -0.1017  0.2047 -0.0596
  390loPI   C1A 6231  10.584   1.549   9.668 -0.2233 -0.0800 -0.1518
  390loPI   C2A 6232  10.558   1.487   9.213  0.3772  0.2522  0.1919
  390loPI   C3A 6233  10.490   1.671   8.809  0.2217  0.0039 -0.0618
  390loPI   C4A 6234  10.104   1.831   8.518 -0.1472 -0.3165  0.0359
  390loPI   C5A 6235  10.058   2.071   8.166 -0.1483  0.2174  0.2448
  390loPI   C6A 6236   9.747   2.417   8.060  0.1492  0.0870 -0.0500
  390loPI   C1B 6237  10.091   1.429   9.818  0.0341  0.2667  0.0200
  390loPI   C2B 6238  10.072   1.498   9.365  0.0778 -0.2050 -0.3250
  390loPI   C3B 6239  10.023   1.559   8.915  0.1112  0.3069 -0.0078
  390loPI   C4B 6240   9.787   1.461   8.504  0.1407  0.0308 -0.0714
  391loPI    C1 6241   6.482   3.292  10.606 -0.2089 -0.2344  0.0966
  391loPI    C2 6242   6.831   3.224  10.789 -0.0744  0.2925  0.0529
  391loPI    C3 6243   6.560   3.465  10.958 -0.3481  0.0285  0.0007
  391loPI   PO4 6244   6.570   3.283  10.289  0.0109  0.0376  0.0514
  391loPI   GL1 6245   6.469   2.939   9.948  0.0135 -0.0466 -0.3622
  391loPI   GL2 6246   6.655   3.225   9.751 -0.0794 -0.1668  0.2394
  391loPI   C1A 6247   6.469   2.885   9.410 -0.2748  0.1319  0.1315
  391loPI   C2A 6248   6.438   2.795   8.948 -0.0377  0.1296  0.2019
  391loPI   C3A 6249   6.339   2.572   8.590  0.0617  0.0028 -0.0303
  391loPI   C4A 6250   6.367   2.645   8.154 -0.0099 -0.0010  0.0720
  391loPI   C5A 6251   5.973   2.867   7.933 -0.0295 -0.1241 -0.1056
  391loPI   C6A 6252   5.526   2.819   7.906  0.0777 -0.1591 -0.0722
  391loPI   C1B 6253   6.843   3.240   9.353 -0.0472 -0.1947 -0.0670
  391loPI   C2B 6254   6.888   3.087   9.038 -0.0000 -0.0336 -0.2293
  391loPI   C3B 6255   6.844   3.112   8.583  0.0864  0.1818 -0.3085
  391loPI   C4B 6256   6.927   3.060   8.149 -0.1384  0.2068  0.1451
  392loPI    C1 6257  15.046   2.560  10.311 -0.2598 -0.2209 -0.0536
  392loPI    C2 6258  15.128   2.472  10.693 -0.0179  0.0728 -0.0334
  392loPI    C3 6259  14.919   2.801  10.604  0.1285  0.1323 -0.1641
  392loPI   PO4 6260  15.296   2.475  10.180  0.1876  0.0717  0.1199
  392loPI   GL1 6261  15.428   2.214   9.852 -0.1046  0.2606 -0.2435
  392loPI   GL2 6262  15.499   1.839   9.742 -0.2676  0.1449  0.0239
  392loPI   C1A 6263  15.344   2.335   9.472 -0.1100 -0.1738 -0.2926
  392loPI   C2A 6264  15.100   2.639   9.237 -0.0779  0.3604 -0.2151
  392loPI   C3A 6265  14.976   2.738   8.859 -0.0496  0.0562 -0.1412
  392loPI   C4A 6266  14.807   2.728   8.526 -0.1866  0.0744  0.0064
  392loPI   C5A 6267  14.617   2.858   8.025 -0.0125  0.2515 -0.0232
  392loPI   C6A 6268  14.578   2.836   7.606  0.1044  0.0975 -0.1268
  392loPI   C1B 6269  15.599   1.933   9.378 -0.1596  0.1572  0.0498
  392loPI   C2B 6270  15.791   1.910   8.965 -0.3246  0.3060 -0.0077
  392loPI   C3B 6271  16.003   1.845   8.657  0.1825 -0.0497  0.2472
  392loPI   C4B 6272  15.941   2.003   8.274  0.0912 -0.0901  0.1818
  393loPI    C1 6273  12.152  13.231  10.545 -0.2690  0.1902  0.1244
  393loPI    C2 6274  12.262  13.571  10.365  0.0075  0.0226 -0.0296
  393loPI    C3 6275  12.176  13.570  10.755 -0.0324  0.2756 -0.0365
  393loPI   PO4 6276  12.335  13.067  10.414  0.3026 -0.0409  0.0414
  393loPI   GL1 6277  12.498  13.179  10.106  0.2933  0.3102 -0.1024
  393loPI   GL2 6278  12.688  13.158   9.863 -0.1067 -0.2595 -0.0002
  393loPI   C1A 6279  12.227  13.198   9.722  0.2743  0.0618  0.3417
  393loPI   C2A 6280  12.017  13.058   9.350  0.0759 -0.1087  0.2070
  393loPI   C3A 6281  11.855  12.877   9.068  0.3387 -0.1926 -0.0792
  393loPI   C4A 6282  11.887  12.777   8.677 -0.0058  0.0065 -0.1085
  393loPI   C5A 6283  11.572  12.834   8.462  0.1986  0.0573  0.1565
  393loPI   C6A 6284  11.147  12.654   8.362  0.3042 -0.1553 -0.0928
  393loPI   C1B 6285  12.936  13.085   9.441 -0.1519 -0.1597 -0.2120
  393loPI   C2B 6286  13.055  12.975   9.058 -0.0980  0.3174  0.1469
  393loPI   C3B 6287  12.893  12.931   8.653 -0.1041  0.2317  0.2495
  393loPI   C4B 6288  12.893  12.998   8.261 -0.0397 -0.0891 -0.0297
  394loPI    C1 6289   8.411  13.716  10.390  0.2298 -0.1476  0.1621
  394loPI    C2 6290   8.150  13.446  10.529 -0.0340  0.0758  0.1103
  394loPI    C3 6291   8.218  13.782  10.735 -0.1490  0.2387 -0.1136
  394loPI   PO4 6292   8.641  13.548  10.297 -0.1213 -0.1536 -0.1384
  394loPI   GL1 6293   8.863  13.701  10.010  0.1181  0.1434 -0.0020
  394loPI   GL2 6294   9.024  13.855   9.770  0.2064 -0.2064 -0.2153
  394loPI   C1A 6295   8.887  13.317   9.704  0.0138  0.0587  0.0224
  394loPI   C2A 6296   8.953  13.145   9.255  0.1804  0.0934  0.0378
  394loPI   C3A 6297   9.101  13.042   8.815 -0.2587  0.3588  0.0497
  394loPI   C4A 6298   9.078  12.977   8.400 -0.1299  0.1145 -0.0889
  394loPI   C5A 6299   8.871  13.064   7.917  0.0011 -0.3915  0.2486
  394loPI   C6A 6300   8.776  13.204   7.488 -0.6136 -0.1181  0.1397
  394loPI   C1B 6301   9.126  13.672   9.365  0.3058  0.0017  0.1867
  394loPI   C2B 6302   9.300  13.572   9.037 -0.0584  0.1958  0.2867
  394loPI   C3B 6303   9.403  13.456   8.617  0.0197 -0.0686 -0.3115
  394loPI   C4B 6304   9.469  13.209   8.217  0.1367  0.0632 -0.2356
  395loPI    C1 6305  10.679  12.835  10.805 -0.0495 -0.1298 -0.1760
  395loPI    C2 6306  10.315  12.669  10.782 -0.0446 -0.1716  0.0375
  395loPI    C3 6307  10.638  12.437  10.829 -0.0266 -0.1114  0.2171
  395loPI   PO4 6308  10.698  13.015  10.566  0.2738 -0.0044 -0.2399
  395loPI   GL1 6309  10.862  12.889  10.179 -0.2842  0.1942 -0.2799
  395loPI   GL2 6310  10.847  12.495  10.391 -0.2444  0.0660 -0.1973
  395loPI   C1A 6311  11.190  12.799   9.804 -0.1427 -0.0648  0.0143
  395loPI   C2A 6312  11.324  12.908   9.287 -0.2652  0.1826  0.0682
  395loPI   C3A 6313  11.370  12.903   8.919 -0.1544  0.2819  0.0785
  395loPI   C4A 6314  11.152  13.218   8.680  0.0363  0.1932  0.3382
  395loPI   C5A 6315  11.258  13.677   8.453  0.3018 -0.0764 -0.0970
  395loPI   C6A 6316  11.575  14.034   8.304  0.0405  0.2100  0.0104
  395loPI   C1B 6317  10.657  12.495   9.922  0.0583  0.1841 -0.0963
  395loPI   C2B 6318  10.784  12.651   9.521 -0.0891 -0.5431  0.0530
  395loPI   C3B 6319  10.852  12.872   9.324  0.1808 -0.0832 -0.3235
  395loPI   C4B 6320  10.854  12.876   8.788 -0.1023 -0.0743 -0.1739
  396loPI    C1 6321  11.745  10.391  11.128 -0.1576 -0.0442 -0.1947
  396loPI    C2 6322  11.347  10.356  11.124 -0.1858  0.2440 -0.1036
  396loPI    C3 6323  11.524  10.601  11.387  0.0823 -0.2219  0.1628
  396loPI   PO4 6324  11.843  10.427  10.865  0.0230 -0.1447  0.0148
  396loPI   GL1 6325  11.903  10.269  10.401 -0.1259  0.0717  0.0521
  396loPI   GL2 6326  11.830  10.607  10.361  0.2887  0.2630  0.2279
  396loPI   C1A 6327  12.048  10.019  10.046 -0.0272  0.2465 -0.0851
  396loPI   C2A 6328  12.110   9.898   9.657 -0.1364 -0.2478  0.1229
  396loPI   C3A 6329  12.197   9.826   9.261  0.2447 -0.1200  0.1639
  396loPI   C4A 6330  12.053   9.698   8.886 -0.0390  0.0026 -0.1183
  396loPI   C5A 6331  12.061   9.608   8.400 -0.2248 -0.2799 -0.2436
  396loPI   C6A 6332  12.211   9.460   8.022  0.5599 -0.0672  0.1003
  396loPI   C1B 6333  11.985  10.643   9.983  0.0600  0.2374  0.1745
  396loPI   C2B 6334  12.196  10.839   9.668  0.1768  0.2544 -0.1864
  396loPI   C3B 6335  12.065  10.644   9.229 -0.0076  0.0937  0.2360
  396loPI   C4B 6336  12.007  10.566   8.832  0.1109  0.0300 -0.0865
  397loPI    C1 6337  10.191   1.540  10.673 -0.0998  0.1097 -0.1574
  397loPI    C2 6338  10.134   1.802  10.970 -0.1715 -0.0199 -0.0558
  397loPI    C3 6339  10.067   1.412  11.031 -0.0884 -0.0597 -0.2130
  397loPI   PO4 6340  10.342   1.701  10.512  0.2014 -0.0410  0.0252
  397loPI   GL1 6341  10.190   1.813  10.079  0.2470  0.0141  0.1583
  397loPI   GL2 6342   9.828   1.758  10.031 -0.0352 -0.0947  0.0098
  397loPI   C1A 6343  10.210   1.965   9.587  0.2496 -0.1940 -0.1618
  397loPI   C2A 6344  10.267   1.955   9.110  0.1904 -0.2618 -0.1528
  397loPI   C3A 6345  10.496   2.150   8.667  0.1465 -0.0427  0.0223
  397loPI   C4A 6346  10.539   2.006   8.261  0.2779 -0.0204  0.1246
  397loPI   C5A 6347  10.282   1.884   7.740 -0.4892  0.1009 -0.4170
  397loPI   C6A 6348  10.017   2.207   7.680 -0.0764  0.2542 -0.1967
  397loPI   C1B 6349   9.708   1.719   9.628  0.2415  0.0923  0.1383
  397loPI   C2B 6350   9.664   1.770   9.239 -0.3123 -0.3318 -0.0266
  397loPI   C3B 6351   9.704   1.955   8.797 -0.3670 -0.0712  0.1051
  397loPI   C4B 6352   9.557   1.958   8.310 -0.0378  0.3469 -0.1564
  398loPI    C1 6353  10.808   2.585  10.761 -0.0847 -0.0273  0.0318
  398loPI    C2 6354  11.170   2.617  10.596 -0.0685 -0.4805 -0.0310
  398loPI    C3 6355  11.108   2.748  10.968  0.1581 -0.3954 -0.0218
  398loPI   PO4 6356  10.752   2.340  10.569  0.2766 -0.0671 -0.2198
  398loPI   GL1 6357  10.506   2.249  10.234 -0.0228  0.1255  0.2339
  398loPI   GL2 6358  10.064   2.278  10.204  0.0474  0.1012  0.2165
  398loPI   C1A 6359  10.645   1.973   9.902 -0.2034  0.0346 -0.4463
  398loPI   C2A 6360  10.716   1.995   9.465 -0.1758 -0.0716  0.1550
  398loPI   C3A 6361  10.840   2.022   9.020  0.1998  0.4090 -0.1113
  398loPI   C4A 6362  10.879   1.826   8.560  0.0129 -0.0289  0.0185
  398loPI   C5A 6363  11.121   1.666   8.211 -0.0838  0.1018 -0.0388
  398loPI   C6A 6364  11.154   1.415   7.954 -0.2345 -0.0556 -0.1756
  398loPI   C1B 6365   9.912   2.273   9.879 -0.0204 -0.0400 -0.1266
  398loPI   C2B 6366   9.772   2.390   9.521  0.1154  0.1746 -0.2453
  398loPI   C3B 6367   9.697   2.339   9.187  0.0681 -0.1451  0.2277
  398loPI   C4B 6368   9.528   2.398   8.700  0.2691 -0.4150  0.0869
  399loPI    C1 6369   3.194  13.675  10.112  0.1448  0.2041 -0.1942
  399loPI    C2 6370   3.063  13.851  10.446 -0.0323 -0.0043 -0.1517
  399loPI    C3 6371   3.443  13.730  10.420 -0.0751 -0.1926  0.0631
  399loPI   PO4 6372   2.982  13.575  10.063  0.0370 -0.1032 -0.0334
  399loPI   GL1 6373   2.912  13.244   9.753 -0.3603  0.0655  0.1997
  399loPI   GL2 6374   3.251  13.199   9.789 -0.1824 -0.2930  0.4460
  399loPI   C1A 6375   2.768  13.289   9.349  0.0804 -0.5532 -0.0179
  399loPI   C2A 6376   2.558  13.518   8.962  0.0446 -0.1393 -0.1482
  399loPI   C3A 6377   2.548  13.880   8.613 -0.3286  0.0096 -0.1432
  399loPI   C4A 6378   2.710  13.972   8.283 -0.3181  0.1229  0.1078
  399loPI   C5A 6379   2.781  13.807   7.834  0.4282  0.0990  0.3419
  399loPI   C6A 6380   2.979  13.775   7.445  0.0623  0.0305  0.0726
  399loPI   C1B 6381   3.263  13.216   9.331 -0.0742 -0.1498  0.0664
  399loPI   C2B 6382   3.319  13.356   8.959  0.4515  0.2525 -0.2776
  399loPI   C3B 6383   3.425  13.362   8.564  0.2194  0.1429 -0.2000
  399loPI   C4B 6384   3.557  13.365   8.135 -0.1528  0.0594  0.0113
  400loPI    C1 6385   0.401   6.266  10.249  0.0691  0.1348 -0.0261
  400loPI    C2 6386   0.004   6.305  10.270  0.0898  0.2846  0.1053
  400loPI    C3 6387   0.178   5.965  10.387 -0.0198  0.1186 -0.2017
  400loPI   PO4 6388   0.457   6.455  10.065  0.1433  0.0933 -0.2634
  400loPI   GL1 6389   0.695   6.691   9.794  0.2507 -0.3058 -0.2868
  400loPI   GL2 6390   0.447   6.915   9.748 -0.1578 -0.1243 -0.1725
  400loPI   C1A 6391   0.662   6.618   9.339 -0.0425  0.0684 -0.0029
  400loPI   C2A 6392   0.557   6.742   8.944  0.1622  0.0737  0.0218
  400loPI   C3A 6393   0.587   6.717   8.516 -0.0772  0.2196  0.1949
  400loPI   C4A 6394   0.459   6.892   8.089  0.0274  0.2201 -0.3055
  400loPI   C5A 6395   0.504   7.121   7.689  0.0749 -0.0467  0.1532
  400loPI   C6A 6396   0.759   7.155   7.394 -0.0194  0.1223  0.0406
  400loPI   C1B 6397   0.203   6.976   9.385  0.0017 -0.2299 -0.2187
  400loPI   C2B 6398   0.284   7.194   8.989  0.2362  0.1676  0.0604
  400loPI   C3B 6399   0.382   7.282   8.550  0.1545  0.2086 -0.1271
  400loPI   C4B 6400   0.386   7.383   8.180  0.0115  0.0388 -0.0416
  401loPI    C1 6401   4.819  10.525  10.655  0.1272  0.4068 -0.1032
  401loPI    C2 6402   4.582  10.669  10.366 -0.2186  0.0864  0.0126
  401loPI    C3 6403   4.421  10.504  10.693  0.1605 -0.4119 -0.0403
  401loPI   PO4 6404   5.060  10.608  10.432  0.0508  0.2625  0.2371
  401loPI   GL1 6405   5.099  10.650  10.055  0.3565 -0.1020  0.0072
  401loPI   GL2 6406   4.852  10.634   9.961  0.2688 -0.1597 -0.1011
  401loPI   C1A 6407   5.182  10.577   9.596  0.0491 -0.0652  0.1625
  401loPI   C2A 6408   5.454  10.596   9.313  0.2669  0.1469  0.3071
  401loPI   C3A 6409   5.527  10.683   8.824  0.0623  0.0755 -0.1330
  401loPI   C4A 6410   5.623  10.709   8.388 -0.2954  0.0140 -0.4668
  401loPI   C5A 6411   5.808  10.366   8.168  0.0465 -0.0388 -0.1656
  401loPI   C6A 6412   6.221  10.320   7.885  0.1188  0.1518 -0.2005
  401loPI   C1B 6413   4.697  10.388   9.668  0.0997  0.1704  0.3571
  401loPI   C2B 6414   4.715  10.437   9.154 -0.0127 -0.1940 -0.1975
  401loPI   C3B 6415   4.572  10.505   8.719  0.0236  0.0456 -0.0775
  401loPI   C4B 6416   4.580  10.671   8.292 -0.0242  0.0183  0.0449
  402loPI    C1 6417  13.897   1.346  10.405 -0.0872  0.2399  0.1659
  402loPI    C2 6418  13.530   1.277  10.261 -0.0022 -0.1320  0.1152
  402loPI    C3 6419  13.648   1.652  10.340 -0.4281 -0.0177  0.2329
  402loPI   PO4 6420  14.033   1.194  10.252  0.1152  0.3954  0.2131
  402loPI   GL1 6421  14.082   1.106   9.789  0.1748  0.1755 -0.1133
  402loPI   GL2 6422  13.749   0.971   9.753  0.2428 -0.0412 -0.1891
  402loPI   C1A 6423  14.345   1.202   9.454 -0.4228 -0.0408 -0.2068
  402loPI   C2A 6424  14.375   1.252   9.003  0.2054 -0.2020  0.0793
  402loPI   C3A 6425  14.387   1.085   8.624 -0.1011  0.1918 -0.0152
  402loPI   C4A 6426  14.205   0.763   8.314 -0.1196 -0.1252  0.1909
  402loPI   C5A 6427  14.141   0.566   7.981 -0.0485 -0.0625  0.0273
  402loPI   C6A 6428  13.959   0.363   7.632  0.0157 -0.0073 -0.0273
  402loPI   C1B 6429  13.723   0.899   9.324  0.2336 -0.1668  0.0257
  402loPI   C2B 6430  13.500   0.734   9.047  0.1995  0.0279  0.2658
  402loPI   C3B 6431  13.553   0.324   8.902  0.5234 -0.2787 -0.1666
  402loPI   C4B 6432  13.427   0.192   8.530  0.5057 -0.1139 -0.3418
  403loPI    C1 6433   8.715   5.444  10.404 -0.0570 -0.2456 -0.1741
  403loPI    C2 6434   8.324   5.406  10.481 -0.0005 -0.2198  0.1415
  403loPI    C3 6435   8.531   5.707  10.643  0.1478 -0.2215 -0.0407
  403loPI   PO4 6436   8.816   5.193  10.501 -0.2164 -0.1653  0.0176
  403loPI   GL1 6437   8.966   4.852  10.273 -0.3550 -0.4196 -0.0023
  403loPI   GL2 6438   9.242   4.826  10.183  0.3235 -0.1529  0.2812
  403loPI   C1A 6439   8.872   4.877   9.772 -0.1617  0.6148 -0.0542
  403loPI   C2A 6440   8.818   4.974   9.375  0.2056 -0.1921 -0.1541
  403loPI   C3A 6441   8.766   5.015   8.897 -0.1006 -0.1589 -0.2251
  403loPI   C4A 6442   8.756   4.958   8.439  0.0516 -0.3905 -0.2318
  403loPI   C5A 6443   8.970   4.844   8.064  0.1648 -0.0088 -0.0998
  403loPI   C6A 6444   8.997   4.591   7.705  0.1502  0.2493  0.1127
  403loPI   C1B 6445   9.398   4.885   9.842  0.2062  0.1374 -0.1358
  403loPI   C2B 6446   9.336   4.806   9.567  0.3958 -0.1494 -0.3661
  403loPI   C3B 6447   9.242   4.817   9.057  0.0356  0.1756 -0.4618
  403loPI   C4B 6448   9.287   4.920   8.614  0.1574  0.0011  0.1214
  404loPI    C1 6449  11.331   6.095  10.613 -0.1080  0.0248  0.0086
  404loPI    C2 6450  11.260   5.799  10.872 -0.0444 -0.0754 -0.0876
  404loPI    C3 6451  11.605   6.001  10.889 -0.0657 -0.0415 -0.0554
  404loPI   PO4 6452  11.153   6.184  10.548 -0.0341 -0.1335 -0.0149
  404loPI   GL1 6453  11.011   6.057  10.094  0.0512 -0.0906 -0.2254
  404loPI   GL2 6454  10.878   6.210   9.853  0.0553 -0.0760  0.0869
  404loPI   C1A 6455  11.332   6.057   9.691  0.1579  0.3014 -0.0640
  404loPI   C2A 6456  11.586   6.302   9.396  0.0528  0.1139  0.0388
  404loPI   C3A 6457  11.684   6.086   8.993  0.0721  0.0181 -0.0141
  404loPI   C4A 6458  11.807   6.100   8.533 -0.2258  0.2348  0.0651
  404loPI   C5A 6459  12.138   6.122   8.246  0.3190  0.0020 -0.5468
  404loPI   C6A 6460  12.591   6.245   8.350  0.0995  0.0471 -0.3413
  404loPI   C1B 6461  10.709   6.041   9.515  0.0666  0.0707  0.2117
  404loPI   C2B 6462  10.713   5.620   9.167 -0.1563 -0.2212 -0.0002
  404loPI   C3B 6463  10.538   5.449   8.689  0.0710 -0.0152 -0.0559
  404loPI   C4B 6464  10.636   5.356   8.297 -0.3400  0.1021 -0.0109
  405loPI    C1 6465   0.900   2.778   9.878 -0.1206  0.2606 -0.2136
  405loPI    C2 6466   0.840   2.858  10.265  0.2909 -0.2604 -0.0309
  405loPI    C3 6467   0.593   2.610  10.072  0.0763  0.0118 -0.1130
  405loPI   PO4 6468   1.136   2.741   9.847 -0.2093  0.1345  0.1913
  405loPI   GL1 6469   1.327   2.565   9.514  0.0921  0.2367 -0.0273
  405loPI   GL2 6470   1.530   2.945   9.468 -0.0649 -0.0194 -0.1012
  405loPI   C1A 6471   1.553   2.535   9.170  0.0720 -0.0376 -0.0030
  405loPI   C2A 6472   1.617   2.395   8.794 -0.0378  0.3929  0.2067
  405loPI   C3A 6473   1.637   2.276   8.450 -0.0577  0.1274  0.2168
  405loPI   C4A 6474   1.691   2.172   8.060 -0.0410  0.1031 -0.1786
  405loPI   C5A 6475   1.840   2.429   7.737 -0.2441 -0.0606 -0.0627
  405loPI   C6A 6476   1.993   2.772   7.623  0.1706  0.0059  0.1743
  405loPI   C1B 6477   1.623   3.142   9.159 -0.0259  0.1851  0.0946
  405loPI   C2B 6478   1.719   3.029   8.737  0.1412  0.1242 -0.2604
  405loPI   C3B 6479   1.586   3.229   8.428 -0.3557 -0.0388 -0.0793
  405loPI   C4B 6480   1.459   3.498   8.109  0.0822  0.1050 -0.0670
  406loPI    C1 6481  17.705   3.377   9.845 -0.1403 -0.0232 -0.1225
  406loPI    C2 6482  18.027   3.458   9.623 -0.1354 -0.2366 -0.1959
  406loPI    C3 6483  18.070   3.350  10.006 -0.1429  0.1136 -0.0931
  406loPI   PO4 6484  17.618   3.143   9.635 -0.0486  0.1325 -0.0288
  406loPI   GL1 6485  17.621   3.069   9.251  0.2544  0.0902  0.2906
  406loPI   GL2 6486  17.987   3.212   9.195  0.3295 -0.3970  0.0496
  406loPI   C1A 6487  17.596   2.926   8.824 -0.3306  0.1666 -0.1592
  406loPI   C2A 6488  17.628   3.116   8.428 -0.0025 -0.4228 -0.1588
  406loPI   C3A 6489  17.674   2.907   8.071  0.0727 -0.0980  0.2760
  406loPI   C4A 6490  17.512   2.513   7.939 -0.2647  0.0298  0.1351
  406loPI   C5A 6491  17.361   2.130   7.846  0.3115 -0.1361 -0.1681
  406loPI   C6A 6492  17.154   1.875   7.767  0.0121 -0.0466 -0.1508
  406loPI   C1B 6493  18.095   3.070   8.786 -0.4109 -0.1163 -0.0505
  406loPI   C2B 6494  18.186   3.057   8.294 -0.3004 -0.0725 -0.2390
  406loPI   C3B 6495  18.248   3.046   7.890  0.0963 -0.0588  0.1518
  406loPI   C4B 6496  18.501   3.169   7.591  0.0880 -0.0225 -0.1551
  407loPI    C1 6497   3.634   4.775  10.616  0.0610  0.0249  0.0526
  407loPI    C2 6498   3.420   4.829  10.950 -0.0594  0.4066 -0.0803
  407loPI    C3 6499   3.726   5.073  10.866  0.2889  0.0081 -0.0088
  407loPI   PO4 6500   3.484   4.722  10.392  0.0056 -0.0437  0.1850
  407loPI   GL1 6501   3.707   4.667  10.004 -0.3930  0.1484 -0.1397
  407loPI   GL2 6502   3.962   4.470  10.135 -0.1511 -0.0499  0.0817
  407loPI   C1A 6503   3.696   4.775   9.655  0.2057  0.1133  0.1132
  407loPI   C2A 6504   3.664   4.851   9.192  0.0930 -0.2598 -0.0269
  407loPI   C3A 6505   3.812   5.033   8.754 -0.1927  0.1309  0.1869
  407loPI   C4A 6506   3.806   5.030   8.336  0.1194 -0.1780 -0.1376
  407loPI   C5A 6507   3.824   4.863   7.962  0.2496  0.1282 -0.0972
  407loPI   C6A 6508   3.959   4.579   7.701  0.3824  0.1746 -0.0335
  407loPI   C1B 6509   3.863   4.300   9.649  0.1768 -0.1015 -0.2439
  407loPI   C2B 6510   3.976   4.150   9.206  0.0344 -0.0126  0.0106
  407loPI   C3B 6511   4.009   4.221   8.790 -0.3310 -0.1448 -0.0973
  407loPI   C4B 6512   4.217   4.166   8.423 -0.0245  0.0926 -0.0552
  408loPI    C1 6513   2.243  17.584  10.547 -0.0789  0.2388 -0.0637
  408loPI    C2 6514   2.553  17.670  10.785  0.0910  0.0957 -0.2295
  408loPI    C3 6515   2.462  17.289  10.705 -0.1262  0.1371 -0.1856
  408loPI   PO4 6516   2.189  17.774  10.379  0.0455 -0.0392 -0.1188
  408loPI   GL1 6517   2.394  17.742  10.046  0.1705  0.0379 -0.0072
  408loPI   GL2 6518   2.451  18.063   9.763  0.0569 -0.2131 -0.0216
  408loPI   C1A 6519   2.650  17.615   9.643  0.0101 -0.0266  0.0533
  408loPI   C2A 6520   2.690  17.615   9.192 -0.2205  0.0953  0.0782
  408loPI   C3A 6521   2.969  17.538   8.784 -0.2797 -0.0905  0.0824
  408loPI   C4A 6522   3.001  17.626   8.371 -0.0918 -0.0619  0.4310
  408loPI   C5A 6523   2.879  17.549   7.953  0.0333 -0.2987  0.0639
  408loPI   C6A 6524   2.951  17.460   7.466  0.2320  0.2533 -0.2332
  408loPI   C1B 6525   2.612  18.080   9.281  0.1443  0.1312 -0.2814
  408loPI   C2B 6526   2.717  17.999   8.887 -0.2618  0.0494 -0.1862
  408loPI   C3B 6527   2.791  18.105   8.553 -0.1489  0.2662 -0.1801
  408loPI   C4B 6528   2.788  18.065   8.116 -0.1282 -0.0399  0.4021
  409loPI    C1 6529  15.443   6.033  10.541  0.1260 -0.3039 -0.1384
  409loPI    C2 6530  15.674   6.167  10.839 -0.0993 -0.0682 -0.0657
  409loPI    C3 6531  15.517   5.800  10.857 -0.3126  0.0339  0.2270
  409loPI   PO4 6532  15.543   6.147  10.320  0.1900  0.0164  0.0700
  409loPI   GL1 6533  15.316   6.063   9.872  0.0740 -0.0858  0.3141
  409loPI   GL2 6534  15.364   6.421   9.981 -0.2721 -0.0927 -0.1080
  409loPI   C1A 6535  15.256   5.966   9.452  0.2919  0.2694  0.1321
  409loPI   C2A 6536  15.278   6.119   9.075  0.0961  0.1949 -0.2973
  409loPI   C3A 6537  15.379   6.293   8.674 -0.1536 -0.0244 -0.2235
  409loPI   C4A 6538  15.209   6.404   8.320 -0.3498  0.2707  0.0357
  409loPI   C5A 6539  14.901   6.607   8.021  0.0602 -0.0983 -0.0314
  409loPI   C6A 6540  14.582   6.651   7.634  0.2597 -0.0381 -0.0364
  409loPI   C1B 6541  15.579   6.414   9.664  0.0868  0.0200  0.0396
  409loPI   C2B 6542  15.636   6.465   9.214 -0.0099  0.0364 -0.0477
  409loPI   C3B 6543  15.802   6.558   8.736 -0.5314  0.0405 -0.0047
  409loPI   C4B 6544  15.667   6.529   8.330 -0.3565 -0.0602 -0.0782
  410loPI    C1 6545   3.748   9.429  10.640  0.1120  0.2328  0.0205
  410loPI    C2 6546   3.847   9.736  10.403  0.1284  0.2524  0.0528
  410loPI    C3 6547   4.086   9.632  10.707  0.0776  0.2652  0.0973
  410loPI   PO4 6548   3.670   9.256  10.476 -0.0264 -0.3221  0.2943
  410loPI   GL1 6549   3.710   9.217   9.931 -0.1393  0.0946 -0.0812
  410loPI   GL2 6550   3.584   9.068   9.740 -0.0275  0.0180  0.1945
  410loPI   C1A 6551   4.043   9.371   9.677  0.0747 -0.3052 -0.2172
  410loPI   C2A 6552   4.158   9.332   9.224 -0.1089  0.0405 -0.0691
  410loPI   C3A 6553   4.264   9.450   8.844  0.0834  0.1740  0.1774
  410loPI   C4A 6554   4.181   9.762   8.583 -0.0251 -0.1437  0.0013
  410loPI   C5A 6555   4.430  10.116   8.470 -0.3344 -0.2380 -0.1298
  410loPI   C6A 6556   4.880  10.198   8.323 -0.0811 -0.2996  0.3881
  410loPI   C1B 6557   3.629   9.195   9.310  0.0715  0.2987  0.0296
  410loPI   C2B 6558   3.699   9.317   8.961  0.0810 -0.2220  0.0309
  410loPI   C3B 6559   3.814   9.424   8.570 -0.0863 -0.0947  0.0073
  410loPI   C4B 6560   3.812   9.400   8.173  0.1401 -0.1980  0.1513
  411loPI    C1 6561   0.194   7.117  10.648 -0.0414 -0.0172  0.0414
  411loPI    C2 6562   0.081   7.393  10.915 -0.0278  0.0168  0.0122
  411loPI    C3 6563   0.408   7.172  10.981 -0.0049  0.0491  0.0071
  411loPI   PO4 6564   0.165   7.346  10.384  0.2645  0.1203  0.0198
  411loPI   GL1 6565   0.264   7.255  10.057  0.0778 -0.2200 -0.0705
  411loPI   GL2 6566   0.012   7.097   9.784  0.2440 -0.2095  0.1452
  411loPI   C1A 6567   0.435   7.398   9.684 -0.0107  0.0721  0.1612
  411loPI   C2A 6568   0.422   7.563   9.256  0.0423 -0.0895 -0.0663
  411loPI   C3A 6569   0.320   7.696   8.872 -0.2024 -0.0537 -0.0219
  411loPI   C4A 6570   0.246   7.824   8.475  0.2946  0.0469 -0.1768
  411loPI   C5A 6571   0.637   7.831   8.163 -0.1055  0.0938 -0.2168
  411loPI   C6A 6572   0.836   7.414   7.951  0.1505 -0.2822 -0.2632
  411loPI   C1B 6573  -0.094   7.477   9.557 -0.2049 -0.2674  0.2567
  411loPI   C2B 6574  -0.102   7.473   9.041 -0.0881  0.2356  0.0550
  411loPI   C3B 6575  -0.167   7.498   8.615 -0.1144 -0.0255 -0.1025
  411loPI   C4B 6576  -0.167   7.522   8.187  0.1662 -0.2110  0.1085
  412loPI    C1 6577  17.495  13.455  10.555 -0.0054  0.2082 -0.1188
  412loPI    C2 6578  17.805  13.518  10.799 -0.0634  0.0388  0.0005
  412loPI    C3 6579  17.526  13.248  10.895 -0.1323  0.0324 -0.2126
  412loPI   PO4 6580  17.499  13.348  10.264 -0.2455  0.2477  0.0802
  412loPI   GL1 6581  17.391  13.607   9.892 -0.1005  0.3036  0.0961
  412loPI   GL2 6582  17.685  13.386   9.738  0.0899 -0.0278 -0.0056
  412loPI   C1A 6583  17.600  13.929   9.607 -0.2433 -0.6103  0.2451
  412loPI   C2A 6584  17.775  14.021   9.178 -0.2427 -0.1138 -0.0875
  412loPI   C3A 6585  17.841  14.097   8.741 -0.1903 -0.0202  0.0863
  412loPI   C4A 6586  17.732  14.481   8.503  0.2426 -0.0187 -0.1104
  412loPI   C5A 6587  17.538  14.972   8.445 -0.1099  0.2102  0.1151
  412loPI   C6A 6588  17.509  15.251   8.065 -0.2106 -0.1036 -0.1088
  412loPI   C1B 6589  17.676  13.512   9.307 -0.3501 -0.0573  0.0311
  412loPI   C2B 6590  17.678  13.587   8.908  0.2614 -0.2705  0.2218
  412loPI   C3B 6591  17.618  13.742   8.450  0.1055 -0.0418  0.1898
  412loPI   C4B 6592  17.782  14.090   8.110  0.1176  0.1026  0.0473
  413loPI    C1 6593   5.720  18.299  10.362 -0.2229 -0.0339  0.1155
  413loPI    C2 6594   5.659  18.588  10.092 -0.0831 -0.1100  0.0016
  413loPI    C3 6595   6.015  18.554  10.272 -0.0086 -0.3796 -0.1893
  413loPI   PO4 6596   5.575  18.100  10.261 -0.1035  0.1609  0.0786
  413loPI   GL1 6597   5.261  18.143   9.917  0.0434  0.1240  0.4287
  413loPI   GL2 6598   5.225  17.901   9.828  0.0264 -0.1224 -0.1205
  413loPI   C1A 6599   5.533  18.314   9.631 -0.0109 -0.0089  0.1719
  413loPI   C2A 6600   5.496  18.417   9.227  0.1172  0.0092 -0.0293
  413loPI   C3A 6601   5.458  18.510   8.835 -0.2358 -0.1249  0.2416
  413loPI   C4A 6602   5.628  18.526   8.469  0.1894  0.0052  0.1694
  413loPI   C5A 6603   5.448  18.565   8.046 -0.1759 -0.0936 -0.0286
  413loPI   C6A 6604   5.167  18.580   7.791 -0.0824 -0.0617  0.0460
  413loPI   C1B 6605   5.169  17.969   9.460 -0.1058 -0.0341 -0.1650
  413loPI   C2B 6606   5.200  18.015   9.017 -0.0066 -0.1795  0.0795
  413loPI   C3B 6607   5.230  18.159   8.519 -0.4591 -0.1046  0.0842
  413loPI   C4B 6608   5.275  18.108   8.017 -0.0332  0.0185 -0.3225
  414loPI    C1 6609  16.447  11.468  10.130 -0.1738  0.0415  0.1824
  414loPI    C2 6610  16.333  11.796  10.327  0.1620  0.1755  0.1605
  414loPI    C3 6611  16.331  11.441  10.511 -0.2511  0.1775  0.1690
  414loPI   PO4 6612  16.614  11.516   9.966 -0.0801  0.0277  0.2382
  414loPI   GL1 6613  16.749  11.464   9.459 -0.0656 -0.1935  0.2494
  414loPI   GL2 6614  16.638  11.164   9.337 -0.3003  0.0074 -0.0848
  414loPI   C1A 6615  16.768  11.787   9.080 -0.0356 -0.2249  0.1020
  414loPI   C2A 6616  16.950  12.095   8.867  0.0843 -0.1191 -0.1479
  414loPI   C3A 6617  16.800  12.372   8.590  0.1242 -0.2336  0.2756
  414loPI   C4A 6618  16.464  12.654   8.702  0.0914  0.0515  0.0384
  414loPI   C5A 6619  16.015  12.676   8.487  0.2260  0.0775  0.0781
  414loPI   C6A 6620  15.609  12.549   8.555 -0.0571  0.0359 -0.1809
  414loPI   C1B 6621  16.382  11.158   8.992  0.2923 -0.3044 -0.0667
  414loPI   C2B 6622  16.398  11.111   8.620  0.2163 -0.3246  0.1617
  414loPI   C3B 6623  16.398  11.079   8.265  0.0127  0.3332 -0.1650
  414loPI   C4B 6624  16.298  10.983   7.815  0.0475 -0.0648  0.2466
  415loPI    C1 6625   8.473  14.936  10.295 -0.0830 -0.0596 -0.0478
  415loPI    C2 6626   8.800  14.958  10.524 -0.0607  0.0765 -0.0919
  415loPI    C3 6627   8.440  14.913  10.693 -0.0425  0.1589 -0.0307
  415loPI   PO4 6628   8.446  15.037  10.144  0.2396 -0.1248  0.2448
  415loPI   GL1 6629   8.482  15.106   9.769  0.0256 -0.0023 -0.1103
  415loPI   GL2 6630   8.280  15.380   9.813  0.2203  0.0454 -0.0958
  415loPI   C1A 6631   8.505  15.127   9.406 -0.0619 -0.0220 -0.1153
  415loPI   C2A 6632   8.593  15.371   9.042 -0.1394 -0.0367 -0.1728
  415loPI   C3A 6633   8.355  15.758   8.891 -0.1355  0.1407  0.1148
  415loPI   C4A 6634   8.204  15.889   8.498  0.0473  0.0687  0.1333
  415loPI   C5A 6635   8.099  15.854   7.985 -0.1599  0.4224 -0.1975
  415loPI   C6A 6636   7.709  15.852   7.873  0.2878 -0.1515  0.0238
  415loPI   C1B 6637   8.026  15.181   9.518  0.1100  0.1023 -0.0575
  415loPI   C2B 6638   7.979  15.219   9.069 -0.1560 -0.0713  0.1780
  415loPI   C3B 6639   8.141  15.420   8.617  0.2581 -0.1201 -0.3160
  415loPI   C4B 6640   8.505  15.504   8.493 -0.3046  0.3435 -0.2416
  416loPI    C1 6641  13.073  16.588  10.638  0.0372 -0.0306  0.2457
  416loPI    C2 6642  12.683  16.627  10.721 -0.0116 -0.2468  0.1280
  416loPI    C3 6643  12.913  16.390  10.947  0.1109  0.0818  0.3567
  416loPI   PO4 6644  13.098  16.595  10.327  0.1450  0.0466  0.0089
  416loPI   GL1 6645  12.797  16.733  10.084  0.0169  0.0425 -0.1139
  416loPI   GL2 6646  12.822  17.080  10.151  0.1406  0.0720  0.1682
  416loPI   C1A 6647  12.605  16.453   9.756  0.3499 -0.1575  0.0333
  416loPI   C2A 6648  12.446  16.322   9.268  0.0114 -0.0615  0.1206
  416loPI   C3A 6649  12.394  16.293   8.874 -0.1628  0.0887  0.1812
  416loPI   C4A 6650  11.978  16.103   8.659 -0.2461  0.0372  0.0730
  416loPI   C5A 6651  11.574  16.114   8.610  0.0930 -0.1419 -0.0968
  416loPI   C6A 6652  11.117  16.133   8.565 -0.4216 -0.2798  0.0709
  416loPI   C1B 6653  12.822  16.983   9.607  0.0165 -0.0470  0.0623
  416loPI   C2B 6654  12.784  17.076   9.226 -0.0796 -0.0817  0.0899
  416loPI   C3B 6655  12.719  17.223   8.823 -0.0196  0.1668 -0.1488
  416loPI   C4B 6656  12.678  17.155   8.349 -0.1805 -0.0818  0.0638
  417loPI    C1 6657   4.465  17.459  10.935 -0.0615 -0.1462 -0.3159
  417loPI    C2 6658   4.860  17.526  10.924 -0.1220  0.2764 -0.1198
  417loPI    C3 6659   4.712  17.238  11.160  0.0423  0.3454  0.0701
  417loPI   PO4 6660   4.377  17.439  10.607 -0.1642  0.1519 -0.1616
  417loPI   GL1 6661   4.530  17.461  10.056  0.1111  0.0999  0.3012
  417loPI   GL2 6662   4.837  17.622   9.865  0.2008 -0.4591 -0.2006
  417loPI   C1A 6663   4.319  17.538   9.666 -0.0801  0.1025  0.0398
  417loPI   C2A 6664   4.414  17.535   9.190  0.2167  0.0205  0.1371
  417loPI   C3A 6665   4.441  17.598   8.787 -0.0040 -0.0614 -0.1994
  417loPI   C4A 6666   4.437  17.655   8.321 -0.0782  0.5262 -0.3092
  417loPI   C5A 6667   4.512  17.628   7.925  0.1189 -0.1725 -0.1837
  417loPI   C6A 6668   4.716  17.516   7.587 -0.0433 -0.0696 -0.1632
  417loPI   C1B 6669   4.947  17.560   9.451  0.0229  0.0104  0.1180
  417loPI   C2B 6670   4.911  17.596   9.054  0.0395 -0.0742  0.2203
  417loPI   C3B 6671   4.931  17.585   8.625 -0.0665  0.2566 -0.2276
  417loPI   C4B 6672   4.970  17.602   8.131  0.0892  0.0172  0.0807
  418loPI    C1 6673   8.461   7.753  10.499 -0.2995  0.0682 -0.0922
  418loPI    C2 6674   8.228   8.041  10.650 -0.2926 -0.0491  0.1482
  418loPI    C3 6675   8.223   7.675  10.811  0.0365 -0.0616  0.1383
  418loPI   PO4 6676   8.408   7.696  10.253  0.2873 -0.0471 -0.1453
  418loPI   GL1 6677   8.573   7.810   9.925 -0.0438  0.0720 -0.2820
  418loPI   GL2 6678   8.893   7.730   9.910  0.2068  0.4092 -0.2549
  418loPI   C1A 6679   8.471   7.526   9.666  0.2524  0.2217  0.0012
  418loPI   C2A 6680   8.307   7.338   9.282 -0.4315  0.0994 -0.1730
  418loPI   C3A 6681   8.420   7.208   8.891  0.0744 -0.1504  0.1583
  418loPI   C4A 6682   8.297   7.373   8.500  0.0654 -0.2035  0.3393
  418loPI   C5A 6683   8.473   7.586   8.257 -0.1246 -0.1313 -0.1228
  418loPI   C6A 6684   8.540   7.956   8.269  0.2325 -0.0684 -0.1119
  418loPI   C1B 6685   9.012   7.777   9.514 -0.0971 -0.3261 -0.0329
  418loPI   C2B 6686   9.096   7.670   9.107 -0.3785 -0.0998 -0.2291
  418loPI   C3B 6687   9.156   7.666   8.715  0.1594 -0.0185  0.1402
  418loPI   C4B 6688   9.007   7.750   8.296  0.2541 -0.0773  0.0559
  419loPI    C1 6689  17.518  17.202  10.751 -0.2001  0.1583 -0.0791
  419loPI    C2 6690  17.438  17.571  10.884 -0.0072  0.1430  0.0841
  419loPI    C3 6691  17.521  17.278  11.144  0.0489  0.0345 -0.0550
  419loPI   PO4 6692  17.527  17.214  10.514  0.3362  0.1015 -0.0075
  419loPI   GL1 6693  17.718  17.368  10.143  0.1038  0.2598  0.0632
  419loPI   GL2 6694  17.753  17.097   9.895 -0.0081 -0.1816  0.0695
  419loPI   C1A 6695  17.552  17.492   9.686  0.2751 -0.2092  0.3781
  419loPI   C2A 6696  17.640  17.559   9.226  0.0562 -0.0811  0.2408
  419loPI   C3A 6697  17.803  17.586   8.837  0.2821  0.3184 -0.2693
  419loPI   C4A 6698  18.009  17.515   8.384  0.1538 -0.0519 -0.0124
  419loPI   C5A 6699  17.923  17.677   8.011 -0.0111  0.1107 -0.0671
  419loPI   C6A 6700  17.584  17.663   7.788 -0.0886  0.1019 -0.0649
  419loPI   C1B 6701  17.890  17.107   9.521 -0.3100 -0.2024  0.1627
  419loPI   C2B 6702  17.871  17.115   9.149  0.0081 -0.1449  0.0975
  419loPI   C3B 6703  17.954  16.999   8.673 -0.0029  0.2760  0.2765
  419loPI   C4B 6704  17.921  16.916   8.256  0.3987 -0.1308  0.4249
  420loPI    C1 6705   8.116   6.634  10.857  0.0314  0.0045  0.0490
  420loPI    C2 6706   8.014   6.920  11.117 -0.1563 -0.0101 -0.0064
  420loPI    C3 6707   7.817   6.572  11.115  0.1186 -0.1701  0.1095
  420loPI   PO4 6708   8.171   6.706  10.640 -0.1472  0.0530 -0.0340
  420loPI   GL1 6709   8.028   6.570  10.290  0.0391 -0.0344  0.0302
  420loPI   GL2 6710   8.272   6.754  10.037 -0.2948  0.3091  0.1309
  420loPI   C1A 6711   7.852   6.702   9.818  0.3551  0.0488  0.0703
  420loPI   C2A 6712   7.719   6.579   9.387  0.1147  0.0841  0.0511
  420loPI   C3A 6713   7.718   6.580   8.886 -0.5001  0.0247  0.1822
  420loPI   C4A 6714   7.799   6.517   8.479 -0.0250  0.0102 -0.0023
  420loPI   C5A 6715   7.727   6.449   8.088 -0.2013 -0.1603 -0.1184
  420loPI   C6A 6716   7.863   6.414   7.695  0.0772 -0.1959 -0.0842
  420loPI   C1B 6717   8.320   6.527   9.707  0.2119 -0.2544  0.1720
  420loPI   C2B 6718   8.192   6.409   9.343  0.0428 -0.2418  0.1801
  420loPI   C3B 6719   8.281   6.448   8.919  0.3213  0.1075  0.0231
  420loPI   C4B 6720   8.295   6.456   8.520 -0.1396 -0.2215 -0.0989
  421loPI    C1 6721  14.830  16.109  10.290  0.1412  0.0225 -0.0951
  421loPI    C2 6722  14.556  15.863  10.446  0.2331  0.0153  0.0571
  421loPI    C3 6723  14.938  15.837  10.562  0.3035  0.0116 -0.1692
  421loPI   PO4 6724  14.724  16.258  10.111 -0.1228 -0.2495 -0.0997
  421loPI   GL1 6725  14.361  16.268   9.854 -0.1595  0.1217 -0.2564
  421loPI   GL2 6726  13.984  16.301   9.839 -0.2339 -0.2884  0.2564
  421loPI   C1A 6727  14.418  16.257   9.438  0.2770  0.1326 -0.2196
  421loPI   C2A 6728  14.433  16.332   9.056 -0.0866  0.2959 -0.1044
  421loPI   C3A 6729  14.338  16.241   8.671  0.1917  0.2479  0.0999
  421loPI   C4A 6730  14.667  16.186   8.307  0.0115 -0.0865  0.0736
  421loPI   C5A 6731  15.096  16.253   8.152  0.0492 -0.1170 -0.0292
  421loPI   C6A 6732  15.519  16.225   7.918  0.3968 -0.2270 -0.2147
  421loPI   C1B 6733  13.876  16.242   9.386 -0.3939  0.0718 -0.1639
  421loPI   C2B 6734  13.925  16.219   9.038 -0.2384 -0.0749  0.0200
  421loPI   C3B 6735  13.781  16.246   8.648  0.2634 -0.2004  0.0616
  421loPI   C4B 6736  13.962  16.388   8.248  0.6524 -0.0235 -0.3610
  422loPI    C1 6737   1.100   3.987   9.767 -0.0507 -0.2836 -0.2385
  422loPI    C2 6738   0.822   3.812   9.996  0.1082 -0.0375  0.1523
  422loPI    C3 6739   1.210   3.736  10.059  0.1432 -0.2376 -0.2706
  422loPI   PO4 6740   1.046   4.282   9.870  0.0115  0.1564 -0.0196
  422loPI   GL1 6741   1.055   4.646   9.659  0.1672 -0.0275  0.1615
  422loPI   GL2 6742   0.793   4.629   9.496  0.2301  0.1451  0.0068
  422loPI   C1A 6743   1.202   4.739   9.271 -0.0961 -0.0118 -0.0201
  422loPI   C2A 6744   1.343   4.793   8.890  0.1144  0.2465 -0.0256
  422loPI   C3A 6745   1.285   4.730   8.419  0.0276 -0.1288  0.2952
  422loPI   C4A 6746   1.448   4.606   8.081  0.2050  0.1818  0.1871
  422loPI   C5A 6747   1.368   4.488   7.623 -0.1638  0.2837  0.1740
  422loPI   C6A 6748   1.113   4.300   7.342  0.0886  0.1239 -0.1009
  422loPI   C1B 6749   0.750   4.731   9.111 -0.3017 -0.1415  0.5821
  422loPI   C2B 6750   0.889   4.882   8.688  0.3198 -0.3562  0.1528
  422loPI   C3B 6751   0.968   5.079   8.298 -0.3753  0.2356 -0.0585
  422loPI   C4B 6752   0.981   5.224   7.821  0.2037  0.1390  0.5174
  423loPI    C1 6753   3.323   3.693  10.463  0.0887 -0.1813 -0.0715
  423loPI    C2 6754   3.641   3.867  10.633  0.0632 -0.2987  0.0994
  423loPI    C3 6755   3.285   3.875  10.817 -0.0481 -0.1178 -0.1182
  423loPI   PO4 6756   3.263   3.788  10.264 -0.1791  0.2346 -0.0814
  423loPI   GL1 6757   3.394   3.894   9.816  0.0959  0.0399 -0.2264
  423loPI   GL2 6758   3.198   3.574   9.788  0.0094  0.0600  0.1803
  423loPI   C1A 6759   3.480   3.894   9.372 -0.0666  0.2668  0.2600
  423loPI   C2A 6760   3.486   3.913   8.932 -0.3534  0.0105  0.1717
  423loPI   C3A 6761   3.672   3.986   8.451  0.0876  0.1542  0.0838
  423loPI   C4A 6762   3.713   4.001   8.026 -0.1145  0.0022  0.1295
  423loPI   C5A 6763   3.700   4.173   7.561  0.0092  0.1259 -0.0094
  423loPI   C6A 6764   3.640   4.535   7.269  0.1689 -0.2620 -0.1360
  423loPI   C1B 6765   3.382   3.417   9.430  0.2038 -0.1058 -0.2775
  423loPI   C2B 6766   3.362   3.336   9.002 -0.2249 -0.1763  0.1397
  423loPI   C3B 6767   3.421   3.444   8.636 -0.1436 -0.3403 -0.1146
  423loPI   C4B 6768   3.467   3.576   8.232 -0.1557  0.3238  0.1342
  424loPI    C1 6769  15.206   7.631  10.892 -0.1084 -0.1507  0.0346
  424loPI    C2 6770  15.556   7.772  10.758 -0.1235 -0.0714  0.0775
  424loPI    C3 6771  15.549   7.479  11.031 -0.0893  0.0076  0.1636
  424loPI   PO4 6772  15.060   7.652  10.653 -0.2558  0.3861 -0.3307
  424loPI   GL1 6773  15.020   7.679  10.124  0.1027 -0.2674 -0.0198
  424loPI   GL2 6774  15.074   7.990  10.059  0.2882  0.0624 -0.0046
  424loPI   C1A 6775  14.909   7.496   9.677 -0.0747  0.1057 -0.0531
  424loPI   C2A 6776  14.832   7.521   9.253 -0.0383 -0.2307 -0.1833
  424loPI   C3A 6777  14.834   7.543   8.904  0.3264  0.0095 -0.1240
  424loPI   C4A 6778  14.902   7.308   8.470  0.3496 -0.0963 -0.1852
  424loPI   C5A 6779  15.218   7.188   8.135 -0.0619  0.2084  0.1058
  424loPI   C6A 6780  15.362   6.861   8.045  0.1137 -0.0171  0.4255
  424loPI   C1B 6781  15.305   7.971   9.730  0.0040  0.0767  0.0330
  424loPI   C2B 6782  15.242   7.862   9.194 -0.3917  0.1758 -0.2621
  424loPI   C3B 6783  15.267   7.880   8.754 -0.1483 -0.2676  0.0998
  424loPI   C4B 6784  15.261   7.634   8.352 -0.0622  0.4213  0.0151
  425loPI    C1 6785   2.231  13.507  10.209  0.0687 -0.3087 -0.0978
  425loPI    C2 6786   2.505  13.595   9.931  0.0521 -0.2154 -0.0850
  425loPI    C3 6787   2.566  13.701  10.312 -0.0465 -0.1060 -0.0991
  425loPI   PO4 6788   1.910  13.564  10.067  0.0412  0.0232  0.0230
  425loPI   GL1 6789   1.768  13.589   9.606 -0.3973 -0.2149 -0.2219
  425loPI   GL2 6790   1.674  13.224   9.491  0.1454  0.0263  0.3081
  425loPI   C1A 6791   1.973  13.772   9.209  0.1535 -0.0998  0.0275
  425loPI   C2A 6792   2.002  13.870   8.819 -0.0476  0.1608  0.0067
  425loPI   C3A 6793   2.154  14.040   8.439  0.1896  0.3390 -0.2575
  425loPI   C4A 6794   1.884  14.074   8.022  0.3760  0.0383 -0.1170
  425loPI   C5A 6795   1.935  14.228   7.553 -0.0569  0.1203 -0.0600
  425loPI   C6A 6796   1.964  13.781   7.330 -0.2550  0.0503 -0.0499
  425loPI   C1B 6797   1.467  13.115   9.092  0.0322  0.1043  0.0342
  425loPI   C2B 6798   1.507  13.039   8.712  0.1842 -0.1688 -0.1552
  425loPI   C3B 6799   1.661  13.226   8.243  0.0021 -0.1257 -0.0216
  425loPI   C4B 6800   2.001  13.119   8.005  0.1525 -0.0826  0.0512
  426loPI    C1 6801   0.477  17.398  10.454 -0.0208 -0.0255 -0.1393
  426loPI    C2 6802   0.389  17.197  10.788 -0.2041 -0.0092 -0.1764
  426loPI    C3 6803   0.215  17.549  10.715 -0.1455 -0.0004 -0.2770
  426loPI   PO4 6804   0.402  17.250  10.274  0.1628 -0.0543  0.1470
  426loPI   GL1 6805   0.153  17.285   9.919 -0.0570 -0.1909  0.4070
  426loPI   GL2 6806   0.302  17.003   9.814 -0.1561 -0.0394  0.0978
  426loPI   C1A 6807   0.271  17.619   9.619 -0.0251 -0.2049  0.1226
  426loPI   C2A 6808   0.177  17.618   9.171  0.2387 -0.1031 -0.1657
  426loPI   C3A 6809   0.208  17.495   8.695  0.4732  0.0463  0.0206
  426loPI   C4A 6810   0.370  17.403   8.312  0.2273 -0.0929 -0.0248
  426loPI   C5A 6811   0.739  17.309   7.971  0.0806 -0.0430 -0.4394
  426loPI   C6A 6812   0.740  17.280   7.549  0.2553  0.2409  0.4283
  426loPI   C1B 6813   0.490  17.224   9.405  0.0983 -0.1896  0.2060
  426loPI   C2B 6814   0.430  17.182   9.046 -0.0030 -0.1033  0.0381
  426loPI   C3B 6815   0.509  17.065   8.675 -0.0806 -0.0281  0.2412
  426loPI   C4B 6816   0.418  16.906   8.345 -0.0048  0.1227 -0.0258
  427loPI    C1 6817  17.431   4.992  10.120  0.1399 -0.0551 -0.0582
  427loPI    C2 6818  17.317   4.608  10.126 -0.0613  0.0048  0.0040
  427loPI    C3 6819  17.328   4.820  10.466 -0.0970  0.0959 -0.0510
  427loPI   PO4 6820  17.400   5.026   9.858  0.0738 -0.0485  0.1549
  427loPI   GL1 6821  17.582   4.888   9.512 -0.0857  0.5100 -0.1038
  427loPI   GL2 6822  17.900   4.805   9.646 -0.3089  0.3612  0.2692
  427loPI   C1A 6823  17.524   4.923   9.052  0.0268 -0.0143 -0.1068
  427loPI   C2A 6824  17.593   5.045   8.568 -0.0789 -0.0629  0.2741
  427loPI   C3A 6825  17.431   5.110   8.107 -0.0505 -0.2555  0.0595
  427loPI   C4A 6826  17.399   4.942   7.724  0.3732  0.2265 -0.3077
  427loPI   C5A 6827  17.400   4.737   7.331 -0.5072 -0.0644 -0.0921
  427loPI   C6A 6828  17.444   4.600   6.919  0.0188 -0.0926 -0.2390
  427loPI   C1B 6829  18.014   4.726   9.144  0.1155  0.2420 -0.2629
  427loPI   C2B 6830  17.907   4.757   8.730  0.3243 -0.2512  0.0125
  427loPI   C3B 6831  18.084   4.798   8.501 -0.0093 -0.0476  0.2172
  427loPI   C4B 6832  18.236   4.781   8.056  0.1919 -0.2838 -0.2085
  428loPI    C1 6833   6.661   7.866  10.331  0.1150 -0.2250 -0.0872
  428loPI    C2 6834   6.365   7.846  10.598  0.0036  0.0451 -0.1866
  428loPI    C3 6835   6.742   7.898  10.721 -0.0511  0.2013 -0.0824
  428loPI   PO4 6836   6.617   7.966  10.099  0.2134  0.0452  0.0383
  428loPI   GL1 6837   6.593   8.086   9.737 -0.1098 -0.0289  0.1155
  428loPI   GL2 6838   6.468   8.435   9.876  0.1896 -0.1763  0.3409
  428loPI   C1A 6839   6.714   8.122   9.401  0.2835 -0.1347  0.0087
  428loPI   C2A 6840   6.752   8.141   9.045 -0.1171  0.0972 -0.0050
  428loPI   C3A 6841   6.740   8.141   8.601  0.1623  0.1206 -0.0281
  428loPI   C4A 6842   6.580   8.043   8.175  0.2446  0.1318  0.2440
  428loPI   C5A 6843   6.365   7.797   7.735  0.0762 -0.3429  0.0248
  428loPI   C6A 6844   5.979   7.916   7.623 -0.0604  0.1639  0.0536
  428loPI   C1B 6845   6.338   8.451   9.478 -0.3633  0.3285  0.1963
  428loPI   C2B 6846   6.263   8.309   9.091 -0.2547 -0.0115  0.0436
  428loPI   C3B 6847   6.256   8.361   8.742  0.2689 -0.1434  0.0158
  428loPI   C4B 6848   5.864   8.434   8.512  0.0284  0.2529 -0.0699
  429loPI    C1 6849  17.384  18.291  10.462 -0.0227 -0.0978  0.2100
  429loPI    C2 6850  17.636  18.080  10.690  0.1472  0.0900  0.1986
  429loPI    C3 6851  17.385  18.342  10.859  0.1799  0.1316  0.1825
  429loPI   PO4 6852  17.280  18.197  10.314  0.2254 -0.2991  0.0755
  429loPI   GL1 6853  17.135  18.395  10.004 -0.0452 -0.2886  0.0459
  429loPI   GL2 6854  16.850  18.252  10.093  0.1397  0.0113 -0.0501
  429loPI   C1A 6855  17.038  18.517   9.533 -0.2265 -0.1845  0.3131
  429loPI   C2A 6856  16.945  18.403   9.105  0.0006  0.0555 -0.0243
  429loPI   C3A 6857  16.887  18.607   8.694  0.2864  0.0183 -0.0252
  429loPI   C4A 6858  16.714  18.744   8.302 -0.0138 -0.0043 -0.2787
  429loPI   C5A 6859  16.740  19.064   7.939  0.1690  0.0018  0.1343
  429loPI   C6A 6860  16.382  19.383   8.025 -0.1443 -0.2650 -0.1193
  429loPI   C1B 6861  16.775  18.036   9.788 -0.0415  0.4902 -0.1157
  429loPI   C2B 6862  16.755  17.982   9.366  0.0220  0.0364 -0.1263
  429loPI   C3B 6863  16.740  17.824   9.042 -0.1578 -0.3534 -0.0386
  429loPI   C4B 6864  16.691  17.538   8.751  0.0728  0.0702 -0.0852
  430loPI    C1 6865   9.616  17.765  10.749 -0.2373 -0.1473 -0.2282
  430loPI    C2 6866   9.257  17.589  10.763 -0.2389 -0.1227  0.1251
  430loPI    C3 6867   9.331  17.910  10.990  0.0614 -0.2329  0.1888
  430loPI   PO4 6868   9.677  17.770  10.473 -0.0638 -0.1865  0.0486
  430loPI   GL1 6869   9.755  17.857  10.081  0.2489  0.0950 -0.4053
  430loPI   GL2 6870   9.462  18.043   9.963 -0.2543  0.2353  0.2358
  430loPI   C1A 6871   9.680  17.492   9.784 -0.0671  0.0292  0.0521
  430loPI   C2A 6872   9.702  17.489   9.273  0.0163  0.3313  0.2016
  430loPI   C3A 6873   9.631  17.416   8.776  0.1182  0.1083 -0.0978
  430loPI   C4A 6874   9.491  17.265   8.455  0.3371 -0.0998  0.3020
  430loPI   C5A 6875   9.180  17.146   8.262  0.1950  0.2109 -0.3204
  430loPI   C6A 6876   9.172  17.048   7.804 -0.1215 -0.0530  0.1927
  430loPI   C1B 6877   9.402  17.861   9.525 -0.2774  0.1343  0.2152
  430loPI   C2B 6878   9.286  17.723   9.110  0.2787 -0.0947  0.0802
  430loPI   C3B 6879   9.034  17.424   8.895 -0.1285 -0.2737  0.0160
  430loPI   C4B 6880   8.793  17.268   8.526  0.0596 -0.2102  0.0965
  431loPI    C1 6881  16.067   9.749  10.137 -0.0461  0.0175 -0.0386
  431loPI    C2 6882  16.318  10.028   9.998 -0.0078  0.1162  0.2238
  431loPI    C3 6883  16.279   9.972  10.392  0.0087 -0.2724  0.1749
  431loPI   PO4 6884  16.182   9.571   9.962  0.1603 -0.1064 -0.0729
  431loPI   GL1 6885  16.110   9.501   9.558  0.0209  0.3097  0.1523
  431loPI   GL2 6886  16.171   9.851   9.547  0.1624 -0.0989 -0.1901
  431loPI   C1A 6887  16.066   9.296   9.189 -0.3239  0.1199  0.1834
  431loPI   C2A 6888  16.006   9.347   8.662 -0.1037  0.3313  0.0277
  431loPI   C3A 6889  15.920   9.214   8.314  0.1870  0.2265 -0.1408
  431loPI   C4A 6890  16.058   8.939   8.009  0.0692 -0.3350 -0.0117
  431loPI   C5A 6891  16.295   8.629   7.728  0.0677  0.0125  0.1534
  431loPI   C6A 6892  16.307   8.347   7.373 -0.1014 -0.5022  0.2816
  431loPI   C1B 6893  16.210   9.749   9.144 -0.0865 -0.1880 -0.0707
  431loPI   C2B 6894  16.244   9.795   8.686 -0.2043  0.1717 -0.1858
  431loPI   C3B 6895  16.232   9.748   8.235  0.1755  0.0432 -0.1032
  431loPI   C4B 6896  16.391   9.612   7.786 -0.2020 -0.0920  0.3259
  432loPI    C1 6897   6.898  17.420  10.405  0.1120 -0.0602 -0.0653
  432loPI    C2 6898   7.142  17.703  10.263  0.2578 -0.0780  0.1450
  432loPI    C3 6899   7.173  17.585  10.643 -0.1895  0.0380  0.2235
  432loPI   PO4 6900   6.871  17.235  10.225  0.0259 -0.3374  0.0674
  432loPI   GL1 6901   6.707  17.167   9.847  0.3234  0.4320 -0.0929
  432loPI   GL2 6902   6.862  16.825   9.750  0.2143 -0.2633 -0.0188
  432loPI   C1A 6903   6.500  17.230   9.514 -0.1294 -0.1717  0.0591
  432loPI   C2A 6904   6.398  17.231   9.143 -0.1011 -0.0706 -0.2754
  432loPI   C3A 6905   6.285  17.261   8.699  0.0544  0.3786  0.0733
  432loPI   C4A 6906   6.239  17.247   8.334 -0.0678 -0.1948  0.1272
  432loPI   C5A 6907   6.324  17.435   7.955  0.1330  0.1585  0.0372
  432loPI   C6A 6908   6.412  17.537   7.525 -0.1182  0.0058  0.0155
  432loPI   C1B 6909   6.747  16.813   9.288 -0.0397  0.3779  0.2008
  432loPI   C2B 6910   6.529  16.800   8.925 -0.1149  0.1607 -0.3597
  432loPI   C3B 6911   6.553  16.848   8.453 -0.0472 -0.1033 -0.0809
  432loPI   C4B 6912   6.639  17.030   8.015  0.2039  0.0381  0.0402
  433loPI    C1 6913  18.170   7.527  10.463  0.5268 -0.1265 -0.2019
  433loPI    C2 6914  18.198   7.131  10.414  0.2200 -0.1945  0.1345
  433loPI    C3 6915  18.206   7.289  10.782  0.1728  0.0989  0.0128
  433loPI   PO4 6916  17.925   7.647  10.303 -0.0035  0.0842  0.0711
  433loPI   GL1 6917  17.940   7.826   9.922  0.1087 -0.2926 -0.0470
  433loPI   GL2 6918  17.699   8.092   9.959 -0.1806  0.1472 -0.0731
  433loPI   C1A 6919  17.954   7.724   9.423  0.0251  0.1204 -0.4884
  433loPI   C2A 6920  17.964   7.668   8.957 -0.2136  0.2010 -0.0903
  433loPI   C3A 6921  17.972   7.741   8.593  0.3776  0.0705  0.0850
  433loPI   C4A 6922  17.904   7.870   8.095  0.3948  0.2452 -0.1541
  433loPI   C5A 6923  17.869   7.826   7.633  0.0196 -0.0526  0.1926
  433loPI   C6A 6924  18.010   7.713   7.197 -0.1358 -0.0084  0.3363
  433loPI   C1B 6925  17.514   8.340   9.581  0.0650 -0.1354  0.1497
  433loPI   C2B 6926  17.548   8.482   9.178  0.3581 -0.0753  0.0580
  433loPI   C3B 6927  17.385   8.429   8.745 -0.1435 -0.3472 -0.0921
  433loPI   C4B 6928  17.047   8.496   8.439 -0.3039  0.1391 -0.2699
  434loPI    C1 6929   3.399  14.221  10.322  0.0629  0.1325 -0.1300
  434loPI    C2 6930   3.160  14.364  10.609 -0.0382 -0.2470 -0.0197
  434loPI    C3 6931   3.539  14.489  10.585 -0.1799  0.1938 -0.0604
  434loPI   PO4 6932   3.268  14.225  10.094 -0.3578  0.3257  0.0630
  434loPI   GL1 6933   3.101  13.971   9.702 -0.2456  0.1014 -0.1422
  434loPI   GL2 6934   2.935  13.725   9.619 -0.0593 -0.0972  0.0460
  434loPI   C1A 6935   3.172  14.265   9.419 -0.1938  0.1491 -0.2419
  434loPI   C2A 6936   3.279  14.370   9.034  0.3859  0.0446  0.0454
  434loPI   C3A 6937   3.294  14.535   8.677 -0.1033  0.2390  0.0436
  434loPI   C4A 6938   3.321  14.599   8.184  0.0276  0.2111 -0.1077
  434loPI   C5A 6939   3.580  14.479   7.921  0.1219 -0.1932  0.0352
  434loPI   C6A 6940   4.034  14.541   7.847  0.1432  0.0082 -0.3047
  434loPI   C1B 6941   2.912  13.795   9.152 -0.0920  0.1524 -0.1046
  434loPI   C2B 6942   2.998  13.666   8.787 -0.1547 -0.2899 -0.0128
  434loPI   C3B 6943   2.892  13.457   8.449 -0.0292  0.1904 -0.3042
  434loPI   C4B 6944   2.570  13.449   8.163  0.0896 -0.0988 -0.2296
  435loPI    C1 6945   1.702   7.164  10.451  0.0471  0.0686 -0.1337
  435loPI    C2 6946   1.597   6.813  10.613 -0.0348  0.1840  0.0669
  435loPI    C3 6947   1.345   7.124  10.628 -0.0057  0.2229 -0.2036
  435loPI   PO4 6948   1.756   7.059  10.195  0.0327 -0.1057  0.1474
  435loPI   GL1 6949   1.872   6.945   9.825  0.0757  0.2134 -0.2043
  435loPI   GL2 6950   2.118   6.890   9.836 -0.2107  0.0021 -0.0424
  435loPI   C1A 6951   1.788   6.814   9.367 -0.1395 -0.2552 -0.0550
  435loPI   C2A 6952   1.666   6.773   8.989  0.1580 -0.1206 -0.0194
  435loPI   C3A 6953   1.445   6.730   8.619 -0.1278  0.0309 -0.0022
  435loPI   C4A 6954   1.444   7.055   8.303 -0.0649 -0.0502  0.1801
  435loPI   C5A 6955   1.450   7.206   7.945  0.0232 -0.0312  0.0503
  435loPI   C6A 6956   1.681   7.100   7.599 -0.2023  0.0288 -0.2407
  435loPI   C1B 6957   2.136   6.533   9.505 -0.0078  0.3595 -0.0221
  435loPI   C2B 6958   2.054   6.411   9.099 -0.0471 -0.2518  0.2471
  435loPI   C3B 6959   1.947   6.452   8.725  0.2284 -0.0463  0.3928
  435loPI   C4B 6960   2.338   6.509   8.462 -0.3342  0.0456  0.2609
  436loPI    C1 6961  11.160   3.607  10.904 -0.0741  0.1289 -0.1012
  436loPI    C2 6962  11.091   3.250  11.070  0.2749  0.0150 -0.1928
  436loPI    C3 6963  11.409   3.464  11.182 -0.0156  0.3709 -0.0269
  436loPI   PO4 6964  11.289   3.543  10.630 -0.1046 -0.1774  0.0084
  436loPI   GL1 6965  11.315   3.453  10.204  0.0807  0.1879  0.0280
  436loPI   GL2 6966  11.176   3.208  10.044  0.1842  0.0809 -0.1128
  436loPI   C1A 6967  11.600   3.607   9.872 -0.0816 -0.3149  0.0038
  436loPI   C2A 6968  11.666   3.682   9.464 -0.0291  0.1183  0.1650
  436loPI   C3A 6969  11.743   3.645   8.994  0.1524 -0.1479  0.1480
  436loPI   C4A 6970  11.829   3.478   8.572 -0.1824 -0.1543 -0.0540
  436loPI   C5A 6971  11.928   3.252   8.230 -0.2692 -0.1237 -0.2135
  436loPI   C6A 6972  11.946   3.083   7.832  0.0716 -0.2728 -0.0478
  436loPI   C1B 6973  11.256   3.283   9.571  0.3380  0.0840 -0.0692
  436loPI   C2B 6974  11.254   3.336   9.063 -0.0160 -0.2844  0.0978
  436loPI   C3B 6975  11.157   3.357   8.568  0.1973 -0.4405  0.1024
  436loPI   C4B 6976  10.903   3.415   8.185 -0.3988 -0.4690  0.1493
  437loPI    C1 6977   9.521   1.519  10.975  0.1054 -0.1330 -0.3800
  437loPI    C2 6978   9.603   1.230  11.239  0.0366  0.2260  0.0469
  437loPI    C3 6979   9.223   1.315  11.148  0.0513  0.2869  0.0425
  437loPI   PO4 6980   9.673   1.436  10.689 -0.1031  0.0522  0.0238
  437loPI   GL1 6981   9.534   1.418  10.304 -0.1633 -0.0415 -0.2029
  437loPI   GL2 6982   9.374   1.511  10.041  0.2068 -0.1017 -0.3470
  437loPI   C1A 6983   9.709   1.169   9.901  0.0729  0.0721  0.2550
  437loPI   C2A 6984   9.664   1.220   9.444 -0.1887  0.0621 -0.1344
  437loPI   C3A 6985   9.586   1.347   8.985  0.0724 -0.1973 -0.3024
  437loPI   C4A 6986   9.344   1.448   8.714  0.0022  0.1744  0.2099
  437loPI   C5A 6987   9.347   1.548   8.247 -0.1948 -0.0414  0.2759
  437loPI   C6A 6988   9.080   1.646   7.897  0.0405  0.3944 -0.0929
  437loPI   C1B 6989   9.122   1.642   9.642 -0.0894 -0.1013  0.2700
  437loPI   C2B 6990   9.167   1.648   9.179 -0.3252  0.0890 -0.2614
  437loPI   C3B 6991   9.223   1.938   8.809 -0.0327 -0.1845 -0.2279
  437loPI   C4B 6992   9.051   2.332   8.543  0.0081 -0.0975 -0.2403
  438loPI    C1 6993  12.533   6.594  10.530  0.1923  0.0701  0.0147
  438loPI    C2 6994  12.546   6.341  10.840 -0.0193 -0.1678 -0.1657
  438loPI    C3 6995  12.333   6.679  10.866  0.0955 -0.1073  0.0037
  438loPI   PO4 6996  12.576   6.586  10.261  0.2624  0.1146  0.1734
  438loPI   GL1 6997  12.712   6.749   9.814  0.1691 -0.0866 -0.2907
  438loPI   GL2 6998  12.429   6.583   9.736  0.1871  0.1382 -0.3050
  438loPI   C1A 6999  12.810   7.040   9.460  0.0354 -0.0055  0.0545
  438loPI   C2A 7000  13.130   7.040   9.075  0.3337 -0.0161 -0.2699
  438loPI   C3A 7001  13.146   6.951   8.677 -0.1700  0.0109 -0.1912
  438loPI   C4A 7002  13.465   6.845   8.383 -0.0723  0.0061 -0.0386
  438loPI   C5A 7003  13.766   6.988   8.151  0.0534  0.3852 -0.1193
  438loPI   C6A 7004  14.023   7.246   7.897 -0.3975  0.2715 -0.2967
  438loPI   C1B 7005  12.561   6.596   9.250  0.2355  0.0081 -0.0597
  438loPI   C2B 7006  12.626   6.902   9.027  0.0398 -0.0567  0.4419
  438loPI   C3B 7007  12.653   6.962   8.654  0.0764  0.1323  0.4671
  438loPI   C4B 7008  12.795   6.742   8.279  0.0948 -0.0623  0.1855
  439loPI    C1 7009  16.629   0.922  10.232 -0.0573  0.3249  0.1514
  439loPI    C2 7010  16.232   0.948  10.187 -0.0685 -0.0993 -0.0457
  439loPI    C3 7011  16.385   0.800  10.525 -0.0782  0.0072  0.0058
  439loPI   PO4 7012  16.678   0.813  10.040  0.3421 -0.0346  0.3722
  439loPI   GL1 7013  16.832   0.946   9.608  0.0363 -0.1497  0.1213
  439loPI   GL2 7014  16.669   0.612   9.584 -0.0585  0.0915  0.0630
  439loPI   C1A 7015  17.103   0.781   9.235 -0.1667 -0.1814 -0.0112
  439loPI   C2A 7016  17.284   0.845   8.799  0.3643  0.0991  0.1274
  439loPI   C3A 7017  17.080   0.811   8.441 -0.0189  0.0752  0.0208
  439loPI   C4A 7018  16.859   1.011   8.039  0.0576 -0.2021  0.0405
  439loPI   C5A 7019  16.496   1.321   7.883  0.0718  0.0356  0.2016
  439loPI   C6A 7020  16.375   1.427   7.554 -0.1411  0.1438  0.1252
  439loPI   C1B 7021  16.580   0.729   9.207  0.1516 -0.0396 -0.0042
  439loPI   C2B 7022  16.370   0.553   8.941 -0.0074  0.3527 -0.1070
  439loPI   C3B 7023  16.382   0.218   8.700 -0.1112 -0.2236 -0.1619
  439loPI   C4B 7024  16.082   0.016   8.422 -0.1767  0.0394  0.0123
  440loPI    C1 7025   1.336  16.055  10.140  0.2190  0.1788  0.0745
  440loPI    C2 7026   1.582  16.368  10.168  0.2972  0.1358 -0.1175
  440loPI    C3 7027   1.307  16.304  10.451  0.2519  0.4017 -0.0988
  440loPI   PO4 7028   1.293  16.076   9.904  0.1697 -0.0359 -0.0971
  440loPI   GL1 7029   1.386  16.444   9.664 -0.0753 -0.0117 -0.2433
  440loPI   GL2 7030   1.336  16.789   9.691 -0.1825 -0.0827 -0.0016
  440loPI   C1A 7031   1.705  16.398   9.318  0.0710  0.1180  0.0932
  440loPI   C2A 7032   1.689  16.388   8.862 -0.1721  0.1709  0.2564
  440loPI   C3A 7033   1.723  16.474   8.492 -0.0638  0.5260  0.0941
  440loPI   C4A 7034   1.775  16.437   8.021  0.2361 -0.1272 -0.0524
  440loPI   C5A 7035   2.015  16.131   7.841  0.1801  0.0068 -0.1149
  440loPI   C6A 7036   1.915  15.705   7.899 -0.2512  0.1206 -0.0148
  440loPI   C1B 7037   1.366  17.045   9.346 -0.2613  0.0977  0.2833
  440loPI   C2B 7038   1.531  16.894   9.017  0.0700  0.0788  0.0993
  440loPI   C3B 7039   1.796  17.058   8.628  0.1309  0.1549  0.0458
  440loPI   C4B 7040   2.088  16.839   8.346  0.0432 -0.1635 -0.1980
  441loPI    C1 7041  12.794  18.372  10.817 -0.2618  0.2137  0.0324
  441loPI    C2 7042  12.898  18.709  10.628  0.1109  0.1351  0.0896
  441loPI    C3 7043  13.002  18.654  11.010  0.1320 -0.0826  0.0542
  441loPI   PO4 7044  12.561  18.319  10.567  0.2408  0.3329 -0.1511
  441loPI   GL1 7045  12.575  18.435  10.123 -0.3339 -0.0975  0.0053
  441loPI   GL2 7046  12.369  18.384  10.087 -0.1251  0.0850  0.0308
  441loPI   C1A 7047  12.537  18.447   9.619  0.1170  0.0607  0.2620
  441loPI   C2A 7048  12.324  18.259   9.303  0.1385  0.0112  0.0356
  441loPI   C3A 7049  12.432  18.463   8.824  0.2099 -0.2497 -0.0365
  441loPI   C4A 7050  12.440  18.588   8.396  0.2036 -0.4069 -0.0759
  441loPI   C5A 7051  12.569  18.685   7.964 -0.1684 -0.0086  0.1387
  441loPI   C6A 7052  12.280  18.893   7.838 -0.3568 -0.1489 -0.3023
  441loPI   C1B 7053  12.085  18.298   9.772  0.0168 -0.0140 -0.1604
  441loPI   C2B 7054  11.836  18.376   9.272 -0.0986  0.2203 -0.0498
  441loPI   C3B 7055  11.943  18.249   8.889  0.3390  0.0660 -0.1353
  441loPI   C4B 7056  11.779  18.216   8.603  0.1706  0.1585  0.2269
  442loPI    C1 7057  17.825   0.256  10.372 -0.2139  0.0900  0.1153
  442loPI    C2 7058  17.838  -0.095  10.563 -0.1002  0.0124 -0.0327
  442loPI    C3 7059  18.040   0.219  10.707 -0.0307 -0.0403 -0.0149
  442loPI   PO4 7060  17.842   0.296  10.137 -0.1211  0.3713  0.2084
  442loPI   GL1 7061  18.062   0.255   9.851 -0.0334  0.3376  0.1040
  442loPI   GL2 7062  17.919   0.533   9.693  0.0368  0.2675 -0.0482
  442loPI   C1A 7063  18.390   0.338   9.501 -0.0735 -0.1157 -0.1904
  442loPI   C2A 7064  18.392   0.257   9.051  0.0748  0.1987 -0.3529
  442loPI   C3A 7065  18.224   0.428   8.712  0.1893  0.1334  0.0928
  442loPI   C4A 7066  18.050   0.483   8.309 -0.1136  0.3131  0.0823
  442loPI   C5A 7067  18.012   0.421   7.814  0.1822  0.0081  0.0815
  442loPI   C6A 7068  17.990   0.518   7.378  0.1395  0.0804  0.1912
  442loPI   C1B 7069  17.953   0.503   9.137  0.3730 -0.1378 -0.3608
  442loPI   C2B 7070  17.786   0.687   8.696  0.3738 -0.1767  0.2778
  442loPI   C3B 7071  17.608   0.665   8.252  0.0400  0.0757 -0.1345
  442loPI   C4B 7072  17.341   0.840   7.960 -0.3420  0.2219  0.0691
  443loPI    C1 7073   7.991  13.382   9.927  0.1811  0.0705 -0.0217
  443loPI    C2 7074   7.833  13.199  10.245  0.0874  0.1970  0.0056
  443loPI    C3 7075   7.824  13.021   9.887 -0.0969  0.1926  0.0111
  443loPI   PO4 7076   8.180  13.489   9.959 -0.0585 -0.2701  0.1340
  443loPI   GL1 7077   8.434  13.729   9.605  0.3783 -0.3695  0.3131
  443loPI   GL2 7078   8.156  13.797   9.512  0.2499 -0.1318 -0.1860
  443loPI   C1A 7079   8.584  13.562   9.232 -0.0406 -0.1826 -0.0473
  443loPI   C2A 7080   8.644  13.518   8.775  0.0458 -0.2462  0.2039
  443loPI   C3A 7081   8.472  13.383   8.395  0.3724 -0.1753 -0.0208
  443loPI   C4A 7082   8.122  13.308   8.203  0.0563 -0.2243  0.1382
  443loPI   C5A 7083   7.993  13.107   7.855  0.0735  0.3180  0.2011
  443loPI   C6A 7084   8.250  13.219   7.455  0.0271 -0.0857 -0.0689
  443loPI   C1B 7085   8.252  13.928   9.084 -0.1401  0.0925  0.1555
  443loPI   C2B 7086   8.459  14.035   8.699 -0.0224 -0.7060 -0.2014
  443loPI   C3B 7087   8.578  13.781   8.167  0.1840 -0.3688 -0.1388
  443loPI   C4B 7088   8.543  13.437   7.855 -0.0950  0.2235 -0.2382
  444loPI    C1 7089   0.507   9.535  10.498 -0.1975 -0.4318 -0.1130
  444loPI    C2 7090   0.660   9.171  10.429  0.2723 -0.2366 -0.1374
  444loPI    C3 7091   0.590   9.292  10.804  0.2609 -0.2940 -0.1210
  444loPI   PO4 7092   0.340   9.500  10.208  0.2851 -0.1464 -0.1154
  444loPI   GL1 7093   0.469   9.174   9.956 -0.0703  0.0787  0.1391
  444loPI   GL2 7094   0.693   9.392   9.849  0.6074  0.0048  0.0550
  444loPI   C1A 7095   0.324   9.308   9.507 -0.1105  0.3269  0.0145
  444loPI   C2A 7096   0.317   9.509   9.146 -0.0621  0.0458 -0.0977
  444loPI   C3A 7097   0.362   9.405   8.753 -0.1143  0.2881  0.0465
  444loPI   C4A 7098   0.515   9.227   8.416 -0.0097  0.0930 -0.1637
  444loPI   C5A 7099   0.667   9.278   8.046 -0.0349 -0.0340 -0.0134
  444loPI   C6A 7100   0.587   9.444   7.750  0.1374  0.4336  0.1194
  444loPI   C1B 7101   0.806   9.094   9.550 -0.1856  0.1857  0.0908
  444loPI   C2B 7102   0.646   9.013   9.218  0.0823 -0.1748 -0.0589
  444loPI   C3B 7103   0.855   8.907   8.897  0.2153  0.0272  0.0903
  444loPI   C4B 7104   0.927   8.980   8.513 -0.3353 -0.1829 -0.1304
  445loPI    C1 7105  17.158  11.346  10.186 -0.1425 -0.1044 -0.1735
  445loPI    C2 7106  17.172  11.044  10.448  0.1917  0.1569  0.1193
  445loPI    C3 7107  16.849  11.279  10.431 -0.0124 -0.1284 -0.0139
  445loPI   PO4 7108  17.395  11.268  10.039 -0.0332  0.0127  0.2857
  445loPI   GL1 7109  17.449  11.446   9.593  0.0318  0.0533 -0.1409
  445loPI   GL2 7110  17.218  11.143   9.562  0.1093 -0.1397  0.0823
  445loPI   C1A 7111  17.128  11.411   9.139  0.0795 -0.0672 -0.3433
  445loPI   C2A 7112  16.849  11.320   8.779 -0.1544 -0.0408 -0.1619
  445loPI   C3A 7113  16.901  11.091   8.396 -0.1204  0.0221 -0.1007
  445loPI   C4A 7114  16.830  11.038   7.918 -0.0197  0.0642 -0.0611
  445loPI   C5A 7115  16.774  11.061   7.531  0.0290  0.1396 -0.1130
  445loPI   C6A 7116  16.390  11.093   7.279  0.0342  0.1822 -0.0345
  445loPI   C1B 7117  17.098  10.915   9.287  0.0667  0.3925 -0.1642
  445loPI   C2B 7118  17.115  10.796   8.869  0.1423  0.1954  0.2312
  445loPI   C3B 7119  17.270  10.765   8.381 -0.4027 -0.4678 -0.0108
  445loPI   C4B 7120  17.250  10.778   7.964  0.0296  0.0790 -0.0224
  446loPI    C1 7121   3.722   5.731  10.352 -0.1482 -0.4369 -0.2965
  446loPI    C2 7122   3.368   5.886  10.457  0.1251 -0.0027  0.0193
  446loPI    C3 7123   3.507   5.560  10.643  0.0509  0.0362  0.1437
  446loPI   PO4 7124   3.733   5.662  10.179  0.1357  0.1567 -0.0228
  446loPI   GL1 7125   3.799   5.775   9.690 -0.1365 -0.1549 -0.0223
  446loPI   GL2 7126   3.812   6.179   9.650  0.1593 -0.0836 -0.0925
  446loPI   C1A 7127   3.813   5.624   9.303  0.1088  0.2162  0.2193
  446loPI   C2A 7128   3.833   5.567   8.809  0.1284 -0.1769  0.5027
  446loPI   C3A 7129   3.934   5.555   8.395  0.1191  0.0783 -0.0929
  446loPI   C4A 7130   4.021   5.858   8.009 -0.1676 -0.0097 -0.0020
  446loPI   C5A 7131   4.116   5.977   7.624  0.0757 -0.1661 -0.0595
  446loPI   C6A 7132   3.960   6.280   7.368  0.0047  0.0702  0.2863
  446loPI   C1B 7133   4.003   6.086   9.237  0.1103 -0.0444  0.0486
  446loPI   C2B 7134   3.980   6.063   8.913  0.1236  0.1208  0.2655
  446loPI   C3B 7135   3.885   6.055   8.476  0.1437  0.0351  0.0231
  446loPI   C4B 7136   3.544   5.959   8.218  0.0661 -0.0840  0.1751
  447loPI    C1 7137   1.416  16.951  10.244  0.1223  0.0970  0.0406
  447loPI    C2 7138   1.459  17.054  10.628 -0.1149  0.1588  0.0522
  447loPI    C3 7139   1.187  16.779  10.524  0.2163 -0.1465 -0.0289
  447loPI   PO4 7140   1.638  16.888  10.177 -0.4168 -0.0921  0.1628
  447loPI   GL1 7141   1.794  16.986   9.742 -0.1895  0.0071 -0.2292
  447loPI   GL2 7142   1.544  17.252   9.771 -0.0970  0.2676 -0.0155
  447loPI   C1A 7143   1.915  16.865   9.341  0.0840 -0.0616  0.1042
  447loPI   C2A 7144   2.011  16.736   8.989 -0.0236 -0.0907 -0.4327
  447loPI   C3A 7145   2.250  17.068   8.771  0.0621 -0.3144 -0.2541
  447loPI   C4A 7146   2.462  17.389   8.813  0.4539  0.0938  0.0419
  447loPI   C5A 7147   2.462  17.680   8.516  0.0656  0.2761 -0.2910
  447loPI   C6A 7148   2.449  17.615   8.153 -0.4190 -0.0079  0.0259
  447loPI   C1B 7149   1.664  17.427   9.427 -0.0450  0.0991  0.1912
  447loPI   C2B 7150   1.418  17.439   9.021  0.2270 -0.1193  0.1129
  447loPI   C3B 7151   1.487  17.459   8.541 -0.1406 -0.0778  0.2471
  447loPI   C4B 7152   1.639  17.409   8.151 -0.1841 -0.0902 -0.0263
  448loPI    C1 7153   5.661  16.958  10.324 -0.0135 -0.0296 -0.0694
  448loPI    C2 7154   5.750  17.243  10.590 -0.0669 -0.2047  0.1389
  448loPI    C3 7155   5.989  16.925  10.550  0.1615  0.0134 -0.3126
  448loPI   PO4 7156   5.616  17.136  10.124 -0.0277  0.2601 -0.0185
  448loPI   GL1 7157   5.658  17.257   9.757  0.1484  0.1055 -0.3550
  448loPI   GL2 7158   5.925  17.210   9.641  0.1311  0.0644 -0.1905
  448loPI   C1A 7159   5.393  17.109   9.409  0.2708 -0.0087  0.0984
  448loPI   C2A 7160   5.158  17.140   9.004 -0.0722  0.1219  0.1384
  448loPI   C3A 7161   5.320  17.191   8.664 -0.0680 -0.1270 -0.1210
  448loPI   C4A 7162   5.302  17.155   8.198 -0.1025  0.1589 -0.1058
  448loPI   C5A 7163   5.063  16.795   8.012  0.0067 -0.1952  0.0128
  448loPI   C6A 7164   5.256  16.795   7.601 -0.0747 -0.2640 -0.1137
  448loPI   C1B 7165   5.864  17.211   9.272 -0.0608 -0.3963 -0.1180
  448loPI   C2B 7166   5.799  17.185   8.812 -0.0649  0.0150  0.2395
  448loPI   C3B 7167   5.757  17.190   8.422  0.0137 -0.0107 -0.2290
  448loPI   C4B 7168   5.864  17.158   7.966  0.1087 -0.2320  0.0558
  449loPI    C1 7169  18.349  13.243  10.607 -0.2149  0.0249  0.1831
  449loPI    C2 7170  18.740  13.327  10.616 -0.1613 -0.2069  0.0663
  449loPI    C3 7171  18.571  13.126  10.918 -0.1323 -0.3509 -0.0125
  449loPI   PO4 7172  18.346  13.119  10.273 -0.0582  0.0108 -0.1105
  449loPI   GL1 7173  18.335  12.871   9.867 -0.1403 -0.2847 -0.2633
  449loPI   GL2 7174  18.533  13.003   9.636 -0.2819  0.0310  0.2180
  449loPI   C1A 7175  18.231  12.566   9.520 -0.4132  0.0833 -0.1346
  449loPI   C2A 7176  18.247  12.355   9.158  0.0010 -0.0814 -0.0527
  449loPI   C3A 7177  18.328  12.279   8.836  0.2059  0.0066  0.0729
  449loPI   C4A 7178  18.307  12.472   8.498  0.1558 -0.0634 -0.1296
  449loPI   C5A 7179  18.399  12.463   8.088 -0.0030  0.2615  0.0424
  449loPI   C6A 7180  18.269  12.640   7.733 -0.0920  0.1339  0.0389
  449loPI   C1B 7181  18.269  12.957   9.197 -0.0798 -0.0724 -0.1459
  449loPI   C2B 7182  18.189  12.897   8.766 -0.0992  0.1401 -0.1641
  449loPI   C3B 7183  18.075  12.873   8.292  0.3842  0.2318  0.1625
  449loPI   C4B 7184  18.226  13.106   7.967 -0.1204  0.2483  0.3178
  450loPI    C1 7185   0.113   0.086  10.320 -0.0958  0.1717 -0.2273
  450loPI    C2 7186  -0.230   0.293  10.316 -0.3121 -0.1644  0.1438
  450loPI    C3 7187   0.006   0.303  10.638  0.0199  0.0423 -0.0990
  450loPI   PO4 7188   0.171   0.139  10.062  0.0242  0.2443 -0.2355
  450loPI   GL1 7189   0.160  -0.099   9.721 -0.1454  0.0274  0.0003
  450loPI   GL2 7190  -0.165  -0.114   9.701  0.0258  0.1528  0.1033
  450loPI   C1A 7191   0.167  -0.082   9.270  0.1351 -0.2810 -0.2752
  450loPI   C2A 7192   0.150  -0.117   8.827 -0.0316  0.2262  0.1698
  450loPI   C3A 7193   0.071  -0.202   8.412  0.2406 -0.1275  0.2944
  450loPI   C4A 7194   0.078  -0.198   7.980  0.0853  0.0311 -0.3423
  450loPI   C5A 7195   0.423  -0.125   7.630  0.1550  0.3063 -0.0235
  450loPI   C6A 7196   0.812  -0.038   7.412 -0.2067  0.1302 -0.1582
  450loPI   C1B 7197  -0.575  -0.031   9.337 -0.0862 -0.0072  0.2150
  450loPI   C2B 7198  -0.772   0.136   8.916  0.1635  0.0093  0.1077
  450loPI   C3B 7199  -0.850   0.100   8.423 -0.2145  0.0405 -0.0017
  450loPI   C4B 7200  -0.945   0.068   8.061  0.0751 -0.2396 -0.2341
  451loPI    C1 7201   1.095  11.585  10.067 -0.0100  0.1553 -0.1112
  451loPI    C2 7202   1.380  11.762  10.285 -0.0887  0.0981  0.0398
  451loPI    C3 7203   1.003  11.753  10.419 -0.1253  0.0046 -0.0682
  451loPI   PO4 7204   1.199  11.597   9.803  0.0001 -0.2291  0.0806
  451loPI   GL1 7205   1.181  11.383   9.460 -0.1497  0.6116 -0.0415
  451loPI   GL2 7206   0.967  11.117   9.520  0.0750  0.0105  0.1463
  451loPI   C1A 7207   1.329  11.073   9.161  0.1225 -0.5122  0.1024
  451loPI   C2A 7208   1.468  10.726   8.985  0.0393 -0.1810  0.2219
  451loPI   C3A 7209   1.469  10.753   8.579 -0.1685 -0.0365 -0.0890
  451loPI   C4A 7210   1.368  10.851   8.147 -0.2009 -0.0196 -0.0421
  451loPI   C5A 7211   1.216  11.044   7.796  0.1900  0.2138 -0.3051
  451loPI   C6A 7212   0.983  11.413   7.710  0.1552 -0.0048  0.2626
  451loPI   C1B 7213   0.799  11.184   9.212 -0.0404 -0.0460 -0.2235
  451loPI   C2B 7214   0.680  11.301   8.800  0.3473  0.1340  0.1183
  451loPI   C3B 7215   0.762  11.500   8.290  0.3369 -0.0108 -0.1340
  451loPI   C4B 7216   0.542  11.616   7.846 -0.0940  0.2259  0.1011
  452loPI    C1 7217   5.671   6.637  10.559 -0.0773 -0.2273  0.0004
  452loPI    C2 7218   5.890   6.946  10.689 -0.1503 -0.1397 -0.0830
  452loPI    C3 7219   5.585   6.810  10.909  0.0356 -0.3133  0.0711
  452loPI   PO4 7220   5.718   6.742  10.271 -0.0383 -0.0050  0.0933
  452loPI   GL1 7221   5.884   6.811   9.786  0.0576  0.3135  0.0058
  452loPI   GL2 7222   6.108   6.717   9.751  0.2484  0.1709 -0.0300
  452loPI   C1A 7223   5.599   7.105   9.461  0.1043 -0.1067 -0.0643
  452loPI   C2A 7224   5.670   7.089   9.018 -0.0062  0.3101 -0.0573
  452loPI   C3A 7225   5.622   6.954   8.623 -0.0709 -0.3410  0.0150
  452loPI   C4A 7226   5.697   6.899   8.179  0.1818  0.1204 -0.0289
  452loPI   C5A 7227   5.946   6.728   7.883  0.0581  0.0496 -0.2673
  452loPI   C6A 7228   5.833   6.675   7.418 -0.1827 -0.2239 -0.0986
  452loPI   C1B 7229   5.834   6.538   9.384 -0.2322 -0.2101  0.0461
  452loPI   C2B 7230   5.621   6.463   9.061 -0.1267  0.3327  0.1338
  452loPI   C3B 7231   5.380   6.429   8.637 -0.1758  0.0790 -0.0388
  452loPI   C4B 7232   5.091   6.584   8.333  0.1544  0.0177 -0.2034
  453loPI    C1 7233  11.480   3.113  10.727 -0.0300  0.3160  0.0360
  453loPI    C2 7234  11.857   3.101  10.862 -0.0046  0.1284 -0.0496
  453loPI    C3 7235  11.556   2.981  11.097 -0.0020  0.1902 -0.0144
  453loPI   PO4 7236  11.506   2.973  10.434  0.0654 -0.2274  0.2204
  453loPI   GL1 7237  11.746   3.047  10.059  0.0331 -0.3675  0.1505
  453loPI   GL2 7238  11.854   2.743  10.059 -0.1798  0.4346  0.0557
  453loPI   C1A 7239  11.763   3.159   9.582  0.0663  0.0446 -0.2712
  453loPI   C2A 7240  11.821   3.176   9.274  0.0225  0.1033 -0.0199
  453loPI   C3A 7241  11.654   3.058   8.840  0.0298 -0.0276 -0.2272
  453loPI   C4A 7242  11.564   3.026   8.503 -0.0498  0.2706  0.2048
  453loPI   C5A 7243  11.295   3.094   8.102 -0.0693  0.1635  0.0555
  453loPI   C6A 7244  11.538   3.363   7.905  0.2721 -0.0873 -0.0337
  453loPI   C1B 7245  11.862   2.664   9.559 -0.0949 -0.0569  0.0303
  453loPI   C2B 7246  11.949   2.610   9.079  0.0478 -0.3265 -0.1566
  453loPI   C3B 7247  11.585   2.542   8.741 -0.3098 -0.2452  0.2272
  453loPI   C4B 7248  11.426   2.571   8.383  0.0685 -0.2163 -0.1486
  454loPI    C1 7249  10.455   4.619  10.698  0.1441  0.1023  0.0771
  454loPI    C2 7250  10.099   4.770  10.801  0.0780  0.0446 -0.0640
  454loPI    C3 7251  10.384   4.725  11.077  0.0713  0.3493 -0.0033
  454loPI   PO4 7252  10.568   4.735  10.479 -0.1301 -0.3042 -0.1078
  454loPI   GL1 7253  10.398   4.855  10.156 -0.1227 -0.2977 -0.0887
  454loPI   GL2 7254  10.443   5.181  10.148 -0.2062 -0.0493 -0.2232
  454loPI   C1A 7255  10.627   4.731   9.863  0.2601 -0.0259  0.3187
  454loPI   C2A 7256  10.640   4.556   9.406 -0.0001 -0.2105 -0.0446
  454loPI   C3A 7257  10.630   4.411   9.018 -0.1677 -0.4043 -0.2028
  454loPI   C4A 7258  10.651   4.450   8.555  0.2335 -0.1115 -0.2076
  454loPI   C5A 7259  10.854   4.373   8.233 -0.1995  0.2382  0.0880
  454loPI   C6A 7260  10.698   4.429   7.751  0.0550  0.0479  0.3304
  454loPI   C1B 7261  10.495   5.243   9.777  0.0262  0.0379  0.2219
  454loPI   C2B 7262  10.677   5.099   9.374 -0.1158  0.1412 -0.2578
  454loPI   C3B 7263  10.564   5.068   9.005  0.2230 -0.4413  0.0533
  454loPI   C4B 7264  10.636   4.989   8.632  0.1253  0.0617 -0.0095
  455loPI    C1 7265   8.473  11.265  10.452  0.0753 -0.1958 -0.0960
  455loPI    C2 7266   8.592  11.032  10.754  0.1492 -0.0300  0.0045
  455loPI    C3 7267   8.679  11.422  10.756  0.2404 -0.0465 -0.2816
  455loPI   PO4 7268   8.592  11.180  10.245 -0.2638 -0.0859 -0.3349
  455loPI   GL1 7269   8.589  10.977  10.013  0.0656  0.2136 -0.0834
  455loPI   GL2 7270   8.499  10.745   9.870 -0.0033  0.1517 -0.0740
  455loPI   C1A 7271   8.714  10.954   9.464 -0.0193 -0.2128  0.0889
  455loPI   C2A 7272   8.824  11.036   9.004 -0.2143 -0.0726 -0.2408
  455loPI   C3A 7273   8.878  10.961   8.675 -0.1071  0.4567  0.0193
  455loPI   C4A 7274   8.723  10.802   8.219  0.0103 -0.1486  0.3012
  455loPI   C5A 7275   8.335  10.705   7.958 -0.4878 -0.0789  0.1281
  455loPI   C6A 7276   8.132  10.898   7.647 -0.0615 -0.2367 -0.0253
  455loPI   C1B 7277   8.714  10.427   9.653  0.1059  0.0850  0.3352
  455loPI   C2B 7278   8.876  10.541   9.261  0.1205 -0.0017  0.0921
  455loPI   C3B 7279   9.029  10.521   8.794 -0.1049 -0.1990 -0.2205
  455loPI   C4B 7280   9.012  10.417   8.393 -0.0554 -0.2655  0.2188
  456loPI    C1 7281   6.404  14.856  10.639 -0.0445  0.0181  0.0269
  456loPI    C2 7282   6.695  14.864  10.914 -0.0873  0.0242  0.0722
  456loPI    C3 7283   6.424  15.158  10.901 -0.1666 -0.0469  0.1122
  456loPI   PO4 7284   6.523  14.818  10.392  0.3393  0.0406  0.0497
  456loPI   GL1 7285   6.482  14.537  10.013 -0.1775  0.0958  0.1875
  456loPI   GL2 7286   6.824  14.699   9.929 -0.1561 -0.2437  0.1366
  456loPI   C1A 7287   6.429  14.412   9.644  0.1444  0.2388 -0.0265
  456loPI   C2A 7288   6.359  14.546   9.331  0.0694 -0.1275  0.0464
  456loPI   C3A 7289   6.514  14.543   8.872  0.1561 -0.0604  0.1697
  456loPI   C4A 7290   6.491  14.478   8.460 -0.2419 -0.1909  0.1356
  456loPI   C5A 7291   6.556  14.335   8.026  0.1609  0.1258  0.2154
  456loPI   C6A 7292   6.751  14.211   7.673 -0.1960 -0.1268  0.2716
  456loPI   C1B 7293   6.702  14.903   9.554 -0.1979  0.1248 -0.3492
  456loPI   C2B 7294   6.663  15.026   9.123  0.3021  0.0456 -0.2253
  456loPI   C3B 7295   6.652  15.031   8.608 -0.1868  0.1734 -0.0137
  456loPI   C4B 7296   6.638  14.893   8.184  0.1359 -0.1359 -0.1733
  457loPI    C1 7297   2.430   2.619  10.318  0.1003  0.2058 -0.1206
  457loPI    C2 7298   2.428   2.978  10.494 -0.0070  0.1270  0.0415
  457loPI    C3 7299   2.637   2.678  10.656 -0.0808  0.0625  0.0172
  457loPI   PO4 7300   2.446   2.703  10.049  0.1919 -0.0225  0.1723
  457loPI   GL1 7301   2.461   2.985   9.706  0.3428 -0.2012 -0.1912
  457loPI   GL2 7302   2.688   3.236   9.862 -0.0469 -0.4648  0.1211
  457loPI   C1A 7303   2.458   2.950   9.244 -0.0981  0.3102  0.2831
  457loPI   C2A 7304   2.419   2.993   8.883  0.0418  0.2894 -0.1503
  457loPI   C3A 7305   2.443   2.840   8.437 -0.1062 -0.0339 -0.0359
  457loPI   C4A 7306   2.672   2.643   8.143 -0.2044  0.2857 -0.0218
  457loPI   C5A 7307   2.916   2.469   7.878 -0.0099  0.2478 -0.0099
  457loPI   C6A 7308   3.226   2.233   7.818 -0.1205  0.0558 -0.0753
  457loPI   C1B 7309   2.826   3.297   9.473 -0.0161 -0.1352 -0.3580
  457loPI   C2B 7310   2.848   3.201   9.096  0.0786 -0.2633 -0.0924
  457loPI   C3B 7311   2.973   3.199   8.760 -0.2173 -0.0831 -0.3237
  457loPI   C4B 7312   2.822   3.223   8.401 -0.3360 -0.3700  0.0624
  458loPI    C1 7313   2.597   1.303  10.381  0.0338 -0.0389 -0.0850
  458loPI    C2 7314   2.446   1.674  10.379  0.0666 -0.0226  0.1746
  458loPI    C3 7315   2.302   1.400  10.633  0.2639 -0.0941  0.2117
  458loPI   PO4 7316   2.603   1.171  10.142 -0.1980 -0.1423  0.1888
  458loPI   GL1 7317   2.561   1.322   9.666 -0.0556 -0.1857 -0.1325
  458loPI   GL2 7318   2.525   1.044   9.662 -0.1620  0.0777 -0.0128
  458loPI   C1A 7319   2.354   1.308   9.294  0.3259  0.0107  0.1680
  458loPI   C2A 7320   2.435   1.378   9.001 -0.0415  0.0983 -0.1106
  458loPI   C3A 7321   2.507   1.295   8.612  0.0835 -0.1961  0.0411
  458loPI   C4A 7322   2.663   1.245   8.230 -0.1884 -0.1071  0.1095
  458loPI   C5A 7323   2.770   1.279   7.835  0.3388 -0.0536  0.1894
  458loPI   C6A 7324   2.931   1.684   7.601  0.2222  0.2771  0.2062
  458loPI   C1B 7325   2.839   1.267   9.283  0.2595  0.2202 -0.2224
  458loPI   C2B 7326   2.891   1.617   8.960 -0.3970  0.1267 -0.0953
  458loPI   C3B 7327   2.896   1.610   8.567 -0.0685 -0.1149  0.0776
  458loPI   C4B 7328   3.015   1.721   8.131  0.2261  0.0779 -0.0143
  459loPI    C1 7329  16.708  12.416  10.184  0.0193 -0.1686 -0.0007
  459loPI    C2 7330  17.068  12.558  10.084 -0.0121 -0.1002 -0.0186
  459loPI    C3 7331  16.941  12.584  10.463 -0.1737  0.2676 -0.0943
  459loPI   PO4 7332  16.709  12.094  10.059  0.0639  0.0009  0.0161
  459loPI   GL1 7333  16.576  11.904   9.690  0.0686 -0.0194 -0.1565
  459loPI   GL2 7334  16.272  11.819   9.756 -0.0269 -0.1165 -0.1238
  459loPI   C1A 7335  16.531  12.135   9.325 -0.0372 -0.0751 -0.1885
  459loPI   C2A 7336  16.458  12.184   8.879 -0.2813  0.1545  0.0424
  459loPI   C3A 7337  16.260  12.253   8.406 -0.1527 -0.1957  0.0161
  459loPI   C4A 7338  16.116  12.497   8.044  0.1745  0.2496  0.0798
  459loPI   C5A 7339  15.622  12.658   8.042  0.2450  0.1755  0.3407
  459loPI   C6A 7340  15.238  12.900   7.963 -0.1154 -0.0863 -0.1904
  459loPI   C1B 7341  16.327  11.652   9.305  0.0627  0.3748 -0.0558
  459loPI   C2B 7342  16.202  11.634   8.887 -0.4285 -0.0407  0.3404
  459loPI   C3B 7343  16.162  11.539   8.424  0.0129  0.0482 -0.0261
  459loPI   C4B 7344  16.132  11.455   7.960  0.1569 -0.1729 -0.4184
  460loPI    C1 7345  13.774  13.085  10.400 -0.0535 -0.1718  0.1956
  460loPI    C2 7346  13.709  13.471  10.484  0.0726 -0.1737  0.3042
  460loPI    C3 7347  13.460  13.275  10.240  0.3033  0.1195 -0.1800
  460loPI   PO4 7348  13.997  13.058  10.309  0.2309 -0.0020  0.0264
  460loPI   GL1 7349  14.061  13.007   9.912 -0.0766 -0.0595  0.0180
  460loPI   GL2 7350  14.414  12.958   9.739  0.1119 -0.1322 -0.2254
  460loPI   C1A 7351  13.976  12.892   9.481  0.0890  0.5469  0.0180
  460loPI   C2A 7352  14.172  12.954   9.113 -0.2837  0.0564  0.0489
  460loPI   C3A 7353  14.507  13.000   8.893 -0.3865  0.1269 -0.0985
  460loPI   C4A 7354  14.799  12.933   8.707  0.0313 -0.1397 -0.3141
  460loPI   C5A 7355  14.780  12.868   8.252  0.1016 -0.3646 -0.3332
  460loPI   C6A 7356  14.799  13.096   7.866  0.1540 -0.1479 -0.1487
  460loPI   C1B 7357  14.459  12.708   9.497  0.1283 -0.0089 -0.0159
  460loPI   C2B 7358  14.643  12.578   9.095 -0.1297  0.0932  0.0105
  460loPI   C3B 7359  14.843  12.242   8.899  0.0281  0.1264 -0.1222
  460loPI   C4B 7360  14.925  11.947   8.714  0.1806  0.1965 -0.1578
  461loPI    C1 7361   2.474  15.263  10.280  0.0197  0.0828  0.0222
  461loPI    C2 7362   2.624  14.956  10.071  0.0213  0.1973 -0.1463
  461loPI    C3 7363   2.470  14.894  10.434 -0.0945 -0.0244 -0.2318
  461loPI   PO4 7364   2.411  15.445  10.019 -0.1673  0.5229  0.1302
  461loPI   GL1 7365   2.666  15.347   9.708 -0.3719  0.0460 -0.1849
  461loPI   GL2 7366   2.439  15.067   9.586 -0.3294 -0.0710  0.1891
  461loPI   C1A 7367   2.825  15.235   9.288  0.3025 -0.1027 -0.2302
  461loPI   C2A 7368   2.856  15.264   8.813 -0.1047  0.1617  0.3746
  461loPI   C3A 7369   3.109  14.949   8.436  0.2833 -0.0819  0.0711
  461loPI   C4A 7370   3.152  14.976   8.015  0.2304 -0.0968  0.3712
  461loPI   C5A 7371   3.011  14.696   7.775 -0.2411 -0.0403  0.0247
  461loPI   C6A 7372   2.994  14.661   7.356 -0.0063  0.3484  0.0950
  461loPI   C1B 7373   2.385  15.141   9.136 -0.0954  0.1585  0.0455
  461loPI   C2B 7374   2.372  15.072   8.628 -0.0120 -0.1009 -0.1501
  461loPI   C3B 7375   2.608  15.009   8.261 -0.0086 -0.0582  0.1345
  461loPI   C4B 7376   2.617  14.785   8.001  0.0009 -0.0302  0.1947
  462loPI    C1 7377  13.124  13.533  11.007  0.0834  0.0049 -0.0772
  462loPI    C2 7378  12.945  13.878  11.098  0.0751 -0.0409  0.0829
  462loPI    C3 7379  13.160  13.686  11.375 -0.0995 -0.2734  0.0602
  462loPI   PO4 7380  13.202  13.571  10.727 -0.0682  0.1944 -0.1555
  462loPI   GL1 7381  13.001  13.494  10.261 -0.0784 -0.0237 -0.1003
  462loPI   GL2 7382  12.723  13.651  10.116  0.0982 -0.1198 -0.1343
  462loPI   C1A 7383  13.167  13.603   9.892  0.0607  0.3703 -0.0519
  462loPI   C2A 7384  13.077  13.582   9.499 -0.0166  0.0050 -0.0506
  462loPI   C3A 7385  13.042  13.471   9.084 -0.0641  0.1648  0.1556
  462loPI   C4A 7386  13.237  13.243   8.697 -0.1446  0.2090  0.2352
  462loPI   C5A 7387  13.600  13.320   8.424  0.0391 -0.3565 -0.0608
  462loPI   C6A 7388  13.871  13.242   8.034  0.2071 -0.0217 -0.2092
  462loPI   C1B 7389  12.542  13.686   9.715 -0.2974  0.1233 -0.0947
  462loPI   C2B 7390  12.606  13.489   9.482  0.0765  0.3496 -0.2395
  462loPI   C3B 7391  12.575  13.267   9.045 -0.1229 -0.1801  0.4707
  462loPI   C4B 7392  12.725  13.386   8.623 -0.1052 -0.3056 -0.0795
  463loPI    C1 7393   1.455   7.704  11.143  0.0810 -0.0960  0.0360
  463loPI    C2 7394   1.142   7.937  11.055  0.1272 -0.0719 -0.0663
  463loPI    C3 7395   1.382   8.032  11.360  0.2768  0.1402 -0.2463
  463loPI   PO4 7396   1.483   7.568  10.846 -0.3341  0.0161 -0.0650
  463loPI   GL1 7397   1.333   7.522  10.318 -0.0676 -0.0686  0.1548
  463loPI   GL2 7398   1.614   7.664  10.208  0.0134 -0.0103  0.1425
  463loPI   C1A 7399   1.073   7.685  10.059 -0.0834  0.1144 -0.0495
  463loPI   C2A 7400   0.795   7.759   9.706 -0.2461 -0.0820  0.0010
  463loPI   C3A 7401   0.792   7.877   9.280  0.1221  0.0820  0.0118
  463loPI   C4A 7402   0.733   7.965   8.862  0.0998  0.3237 -0.2937
  463loPI   C5A 7403   0.633   8.126   8.551 -0.3072  0.0471  0.1847
  463loPI   C6A 7404   0.842   8.335   8.113  0.0346 -0.0239  0.0920
  463loPI   C1B 7405   1.469   7.530   9.836 -0.0181 -0.2356 -0.0446
  463loPI   C2B 7406   1.223   7.655   9.486  0.1900 -0.1903  0.0984
  463loPI   C3B 7407   1.223   7.716   9.057  0.2483  0.1123  0.0342
  463loPI   C4B 7408   1.164   7.931   8.588 -0.0047  0.1449  0.0439
  464loPI    C1 7409   9.734   8.439  11.138  0.0289  0.0180 -0.0267
  464loPI    C2 7410  10.082   8.256  11.214  0.0072 -0.1084 -0.2226
  464loPI    C3 7411  10.067   8.655  11.185  0.1098 -0.0935 -0.0822
  464loPI   PO4 7412   9.660   8.436  10.894  0.0436 -0.0070 -0.0484
  464loPI   GL1 7413   9.678   8.582  10.450 -0.2872  0.1266  0.0134
  464loPI   GL2 7414   9.947   8.439  10.285 -0.1440  0.1859 -0.2143
  464loPI   C1A 7415   9.674   8.810  10.087 -0.0589 -0.2539  0.0154
  464loPI   C2A 7416   9.593   8.700   9.659  0.0929 -0.1725 -0.2429
  464loPI   C3A 7417   9.617   8.715   9.222 -0.0211  0.4038 -0.0734
  464loPI   C4A 7418   9.590   8.638   8.807 -0.2677  0.0940 -0.0099
  464loPI   C5A 7419   9.709   8.520   8.306 -0.3987 -0.0078  0.1919
  464loPI   C6A 7420   9.863   8.234   7.979  0.2351  0.2129 -0.0152
  464loPI   C1B 7421   9.900   8.372   9.853 -0.0653  0.0395 -0.0251
  464loPI   C2B 7422   9.806   8.287   9.394 -0.2209 -0.3264 -0.0196
  464loPI   C3B 7423   9.895   8.218   9.007  0.0007 -0.0908  0.1611
  464loPI   C4B 7424   9.964   8.096   8.535  0.3035 -0.1307 -0.2277
  465loPI    C1 7425   9.329   6.156  10.456 -0.0507  0.1898 -0.0080
  465loPI    C2 7426   9.543   6.493  10.435  0.1401  0.0569 -0.2478
  465loPI    C3 7427   9.690   6.174  10.626  0.0300  0.0556 -0.1636
  465loPI   PO4 7428   9.293   6.071  10.236 -0.1815  0.0373 -0.1118
  465loPI   GL1 7429   9.387   6.302   9.826  0.0935 -0.0834 -0.2770
  465loPI   GL2 7430   9.680   6.413   9.972 -0.4098 -0.2771  0.0726
  465loPI   C1A 7431   9.331   6.271   9.398 -0.3408  0.1418  0.1414
  465loPI   C2A 7432   9.293   6.276   8.961  0.1878  0.2461  0.1663
  465loPI   C3A 7433   9.246   6.259   8.515 -0.0511  0.1593 -0.2042
  465loPI   C4A 7434   9.171   6.527   8.024 -0.1250 -0.0896 -0.3024
  465loPI   C5A 7435   9.445   6.618   7.737  0.2457 -0.0879  0.0339
  465loPI   C6A 7436   9.740   6.939   7.545  0.0193 -0.2093 -0.1701
  465loPI   C1B 7437   9.802   6.476   9.586 -0.3470  0.0573 -0.1258
  465loPI   C2B 7438   9.749   6.312   9.195 -0.2882  0.2182 -0.2434
  465loPI   C3B 7439   9.746   6.161   8.706 -0.0210 -0.1816  0.0811
  465loPI   C4B 7440   9.807   6.068   8.317  0.2824  0.0527  0.0301
  466loPI    C1 7441  12.743  11.375  10.959  0.1708 -0.3330 -0.0256
  466loPI    C2 7442  12.964  11.641  11.159 -0.0601 -0.0466 -0.1444
  466loPI    C3 7443  12.791  11.338  11.354 -0.0694  0.0806  0.0479
  466loPI   PO4 7444  12.833  11.310  10.810 -0.2971 -0.0604 -0.2559
  466loPI   GL1 7445  12.783  11.304  10.408  0.0151 -0.2374 -0.0727
  466loPI   GL2 7446  12.960  11.377  10.253  0.1092  0.1620  0.0359
  466loPI   C1A 7447  12.496  11.356  10.100  0.2821  0.1725  0.2325
  466loPI   C2A 7448  12.440  11.319   9.616 -0.1437 -0.5372 -0.2588
  466loPI   C3A 7449  12.356  11.134   9.341 -0.0639 -0.1975  0.0374
  466loPI   C4A 7450  12.328  11.065   8.876 -0.4158  0.1642 -0.0114
  466loPI   C5A 7451  12.269  10.836   8.449  0.2171  0.0659 -0.0960
  466loPI   C6A 7452  12.330  10.478   8.241 -0.1602  0.1100 -0.1351
  466loPI   C1B 7453  12.857  11.188   9.772 -0.0324  0.2717  0.1160
  466loPI   C2B 7454  12.881  11.097   9.364  0.0173  0.0968 -0.0472
  466loPI   C3B 7455  12.779  11.089   8.972 -0.1859 -0.0308  0.0071
  466loPI   C4B 7456  12.738  11.159   8.562 -0.0390  0.1020 -0.5109
  467loPI    C1 7457   5.780   3.797   9.881  0.0376  0.0152  0.0981
  467loPI    C2 7458   5.616   3.604  10.191  0.1855 -0.0720  0.1233
  467loPI    C3 7459   5.618   3.435   9.828 -0.0239  0.0475  0.0644
  467loPI   PO4 7460   5.964   3.836   9.958  0.1537  0.3086 -0.0997
  467loPI   GL1 7461   6.347   3.837   9.777  0.0766  0.0440 -0.0986
  467loPI   GL2 7462   6.531   4.154   9.717 -0.2521 -0.1205 -0.1440
  467loPI   C1A 7463   6.677   3.717   9.550 -0.2804  0.1263  0.1308
  467loPI   C2A 7464   6.904   3.754   9.134 -0.2599  0.0937  0.1104
  467loPI   C3A 7465   7.042   3.920   8.772 -0.0929 -0.1341  0.0744
  467loPI   C4A 7466   7.082   3.986   8.357  0.0373 -0.1473  0.0979
  467loPI   C5A 7467   6.863   4.014   7.963 -0.0899  0.0990  0.0351
  467loPI   C6A 7468   6.909   3.881   7.543 -0.1439 -0.1480 -0.0888
  467loPI   C1B 7469   6.690   4.256   9.368 -0.2919 -0.2464  0.0498
  467loPI   C2B 7470   6.973   4.473   9.027  0.1656  0.0961  0.4484
  467loPI   C3B 7471   6.964   4.404   8.632 -0.0707  0.2883  0.4533
  467loPI   C4B 7472   6.912   4.459   8.203  0.0354 -0.0633  0.3329
  468loPI    C1 7473  14.382   9.029  11.026 -0.0246  0.1510  0.1838
  468loPI    C2 7474  14.271   8.645  11.021 -0.0150  0.1492 -0.1318
  468loPI    C3 7475  14.463   8.794  11.339 -0.1780 -0.0591  0.0685
  468loPI   PO4 7476  14.402   9.094  10.737  0.0179 -0.0662  0.1649
  468loPI   GL1 7477  14.497   8.958  10.271  0.0567 -0.0380 -0.0777
  468loPI   GL2 7478  14.826   9.001  10.258 -0.1866  0.0620  0.1204
  468loPI   C1A 7479  14.321   8.883   9.882 -0.3752  0.0006 -0.1462
  468loPI   C2A 7480  14.261   8.930   9.394  0.3036 -0.2566  0.0076
  468loPI   C3A 7481  14.245   8.916   8.949 -0.1907 -0.1267 -0.0661
  468loPI   C4A 7482  14.080   8.894   8.500  0.1706  0.3018  0.0288
  468loPI   C5A 7483  14.068   8.666   8.123  0.1728 -0.3408 -0.1855
  468loPI   C6A 7484  13.828   8.563   7.786 -0.0562 -0.0114  0.0738
  468loPI   C1B 7485  14.798   8.971   9.829  0.1143 -0.2779  0.0185
  468loPI   C2B 7486  14.771   8.948   9.386 -0.0096  0.0220  0.2668
  468loPI   C3B 7487  14.762   8.846   8.981 -0.0411  0.2864 -0.0252
  468loPI   C4B 7488  14.592   8.845   8.583 -0.0169  0.0771  0.1371
  469loPI    C1 7489  13.028  13.078  10.547  0.1181  0.0118  0.0705
  469loPI    C2 7490  12.700  13.248  10.700 -0.0099 -0.1793  0.0112
  469loPI    C3 7491  12.949  13.043  10.937  0.1052  0.0252  0.0691
  469loPI   PO4 7492  12.928  13.011  10.302  0.1363  0.3791  0.1749
  469loPI   GL1 7493  12.882  12.699   9.920  0.1087  0.1711  0.3546
  469loPI   GL2 7494  13.100  12.619   9.661  0.1629 -0.0731  0.1217
  469loPI   C1A 7495  12.604  12.714   9.511  0.0305 -0.2153 -0.0656
  469loPI   C2A 7496  12.587  12.740   9.084  0.0608 -0.3494 -0.1206
  469loPI   C3A 7497  12.386  12.933   8.717 -0.0627  0.1547 -0.2214
  469loPI   C4A 7498  12.331  13.021   8.249 -0.0805 -0.1812 -0.2367
  469loPI   C5A 7499  12.621  13.355   8.093 -0.0847  0.2778  0.0522
  469loPI   C6A 7500  12.862  13.332   7.774  0.1645 -0.1271 -0.1959
  469loPI   C1B 7501  13.080  12.486   9.328  0.0466  0.2355 -0.2228
  469loPI   C2B 7502  13.045  12.442   8.852 -0.0780  0.1748 -0.0921
  469loPI   C3B 7503  13.058  12.493   8.442  0.2025  0.0491  0.1902
  469loPI   C4B 7504  12.939  12.310   8.108 -0.4308 -0.2541  0.1233
  470loPI    C1 7505   2.332   5.172  10.291 -0.1579  0.0686 -0.1103
  470loPI    C2 7506   2.176   5.305   9.948 -0.1963  0.0768 -0.0897
  470loPI    C3 7507   1.945   5.114  10.212 -0.1401 -0.0363 -0.1218
  470loPI   PO4 7508   2.561   5.057  10.144 -0.1736  0.2784  0.2471
  470loPI   GL1 7509   2.831   5.276   9.845  0.1001  0.0254  0.1267
  470loPI   GL2 7510   2.790   5.556   9.761  0.2559  0.0834  0.0250
  470loPI   C1A 7511   2.748   5.165   9.417 -0.1234  0.3508 -0.0771
  470loPI   C2A 7512   2.737   5.070   9.081  0.2945 -0.1499  0.0055
  470loPI   C3A 7513   2.868   5.139   8.669  0.0285 -0.0470 -0.1809
  470loPI   C4A 7514   2.827   5.091   8.250  0.0286 -0.3651 -0.0840
  470loPI   C5A 7515   2.891   5.274   7.908 -0.1458  0.0875 -0.1283
  470loPI   C6A 7516   2.979   5.305   7.463  0.1324  0.1752  0.0688
  470loPI   C1B 7517   2.851   5.586   9.268 -0.1675  0.0165 -0.0882
  470loPI   C2B 7518   2.886   5.657   8.828 -0.1685 -0.0460 -0.2615
  470loPI   C3B 7519   2.913   5.565   8.322  0.1611 -0.0208  0.3428
  470loPI   C4B 7520   3.219   5.654   7.982  0.1809  0.0833 -0.0976
  471loPI    C1 7521  13.483   2.561  10.573 -0.3008 -0.1750 -0.0920
  471loPI    C2 7522  13.549   2.867  10.822 -0.0377  0.0405 -0.4186
  471loPI    C3 7523  13.784   2.543  10.836 -0.2610 -0.1145 -0.1333
  471loPI   PO4 7524  13.377   2.784  10.389 -0.0126  0.0100 -0.1546
  471loPI   GL1 7525  13.638   2.996  10.078  0.0151 -0.0303 -0.4408
  471loPI   GL2 7526  13.679   2.765   9.942 -0.2343  0.2312 -0.3831
  471loPI   C1A 7527  13.324   3.123   9.784 -0.0729  0.0429 -0.0877
  471loPI   C2A 7528  13.291   3.255   9.337  0.2687 -0.0293 -0.2733
  471loPI   C3A 7529  13.226   3.377   8.967  0.1007  0.0697  0.0571
  471loPI   C4A 7530  13.124   3.521   8.580  0.0316  0.0788  0.2061
  471loPI   C5A 7531  12.770   3.689   8.271 -0.2050  0.0871  0.0054
  471loPI   C6A 7532  12.761   3.658   7.868  0.1146  0.1927  0.0930
  471loPI   C1B 7533  13.622   2.815   9.512  0.3669  0.2134  0.1323
  471loPI   C2B 7534  13.664   2.588   9.217 -0.1127 -0.2276 -0.0288
  471loPI   C3B 7535  13.764   2.504   8.787  0.0050  0.2032 -0.0768
  471loPI   C4B 7536  14.043   2.212   8.615  0.1826 -0.0518  0.0190
  472loPI    C1 7537  15.433   7.316  10.480 -0.0247 -0.2252 -0.0725
  472loPI    C2 7538  15.815   7.392  10.571 -0.0580 -0.1123 -0.0254
  472loPI    C3 7539  15.640   7.059  10.706  0.0412 -0.1941 -0.0969
  472loPI   PO4 7540  15.414   7.456  10.277 -0.2365 -0.1891  0.2485
  472loPI   GL1 7541  15.284   7.232   9.921  0.0950 -0.0336 -0.1990
  472loPI   GL2 7542  15.379   6.869   9.825  0.1129  0.0261 -0.3662
  472loPI   C1A 7543  15.320   7.293   9.406  0.0746 -0.0199 -0.3085
  472loPI   C2A 7544  15.298   7.300   8.964 -0.1554  0.0347 -0.1397
  472loPI   C3A 7545  15.616   7.528   8.681  0.3985  0.1589  0.1425
  472loPI   C4A 7546  15.700   7.472   8.244 -0.4830 -0.0429 -0.0463
  472loPI   C5A 7547  15.704   7.179   7.901  0.1603  0.1942  0.0690
  472loPI   C6A 7548  15.708   7.128   7.416 -0.0717 -0.3666 -0.3360
  472loPI   C1B 7549  15.656   6.988   9.668 -0.1503 -0.1269  0.0226
  472loPI   C2B 7550  15.837   7.343   9.364  0.0018  0.2667 -0.3462
  472loPI   C3B 7551  16.074   7.392   9.043 -0.2967  0.0331 -0.3324
  472loPI   C4B 7552  16.200   7.468   8.757 -0.3053  0.1541  0.3665
  473loPI    C1 7553  17.393   0.250  10.567  0.0297 -0.0312 -0.0953
  473loPI    C2 7554  17.529   0.571  10.763 -0.1805  0.0167 -0.0255
  473loPI    C3 7555  17.581   0.205  10.917 -0.0537  0.0272 -0.0426
  473loPI   PO4 7556  17.344   0.252  10.228 -0.3209 -0.0499  0.1211
  473loPI   GL1 7557  17.426   0.214   9.827  0.0243 -0.1734  0.2904
  473loPI   GL2 7558  17.586   0.084   9.604 -0.1083  0.0433  0.4700
  473loPI   C1A 7559  17.466   0.468   9.423 -0.0666  0.0118 -0.2314
  473loPI   C2A 7560  17.444   0.449   9.035 -0.2416 -0.1433  0.0615
  473loPI   C3A 7561  17.319   0.341   8.617 -0.0185  0.2715  0.0678
  473loPI   C4A 7562  17.228   0.387   8.153 -0.1713  0.3578 -0.0656
  473loPI   C5A 7563  17.067   0.168   7.797  0.2018 -0.1210 -0.1857
  473loPI   C6A 7564  16.652   0.165   7.593  0.0026 -0.1888  0.0249
  473loPI   C1B 7565  17.457  -0.063   9.221 -0.2005 -0.3576 -0.1135
  473loPI   C2B 7566  17.397  -0.132   8.825  0.0303  0.2011  0.1873
  473loPI   C3B 7567  17.281  -0.124   8.413  0.1897  0.1094  0.1509
  473loPI   C4B 7568  16.904  -0.214   8.110  0.0538  0.0271 -0.0238
  474loPI    C1 7569   7.252   1.282  10.636 -0.0250  0.0407 -0.0247
  474loPI    C2 7570   7.574   1.052  10.698 -0.1123 -0.1042 -0.1040
  474loPI    C3 7571   7.599   1.448  10.745  0.0724 -0.1169 -0.0908
  474loPI   PO4 7572   7.181   1.239  10.408  0.0915 -0.2967  0.1127
  474loPI   GL1 7573   6.962   1.228   9.981 -0.3286  0.1273 -0.2371
  474loPI   GL2 7574   7.264   1.442   9.886 -0.1199 -0.1164 -0.0081
  474loPI   C1A 7575   6.861   1.386   9.584 -0.0260 -0.2491  0.0607
  474loPI   C2A 7576   6.856   1.309   9.168 -0.1479 -0.0682  0.0210
  474loPI   C3A 7577   7.044   1.100   8.811 -0.0107 -0.0483  0.0962
  474loPI   C4A 7578   7.197   0.955   8.463  0.0106 -0.0309  0.0039
  474loPI   C5A 7579   7.391   0.798   8.172 -0.0017 -0.2273  0.2801
  474loPI   C6A 7580   7.692   0.843   7.827  0.0378  0.2827  0.0353
  474loPI   C1B 7581   7.210   1.712   9.500  0.0074 -0.0097  0.1182
  474loPI   C2B 7582   7.460   1.850   9.194 -0.1446 -0.1081 -0.0398
  474loPI   C3B 7583   7.392   1.864   8.795  0.0371 -0.0177  0.0437
  474loPI   C4B 7584   7.401   1.862   8.364 -0.0545 -0.0926  0.1433
  475loPI    C1 7585  15.395  16.050  10.550  0.1303 -0.2084 -0.1359
  475loPI    C2 7586  15.544  16.416  10.488  0.1423 -0.1738  0.0910
  475loPI    C3 7587  15.659  16.204  10.808  0.1326 -0.3749 -0.0373
  475loPI   PO4 7588  15.373  16.010  10.233  0.1952 -0.1030 -0.0454
  475loPI   GL1 7589  15.170  16.096   9.893  0.1718 -0.3332 -0.0862
  475loPI   GL2 7590  14.961  16.246   9.667  0.1599 -0.1044 -0.1546
  475loPI   C1A 7591  15.207  15.868   9.424 -0.2328 -0.2019  0.4685
  475loPI   C2A 7592  15.198  15.768   9.004  0.3022 -0.1085 -0.2331
  475loPI   C3A 7593  15.279  15.448   8.640  0.0546 -0.2630 -0.0621
  475loPI   C4A 7594  15.512  15.296   8.313  0.2268 -0.0819  0.1604
  475loPI   C5A 7595  15.748  14.872   8.231 -0.3364  0.1897 -0.3089
  475loPI   C6A 7596  15.577  14.726   7.903  0.0027  0.0808  0.0225
  475loPI   C1B 7597  14.951  16.259   9.213  0.0139  0.2084  0.3016
  475loPI   C2B 7598  14.866  16.158   8.768 -0.0052 -0.0624  0.1881
  475loPI   C3B 7599  15.001  15.849   8.437 -0.0143  0.1137  0.0832
  475loPI   C4B 7600  15.066  15.489   8.219  0.2251  0.0332  0.4416
  476loPI    C1 7601   2.807   3.510  10.316  0.1065 -0.1698  0.1340
  476loPI    C2 7602   2.903   3.658  10.676  0.2012  0.1304 -0.0112
  476loPI    C3 7603   2.559   3.460  10.626  0.0802  0.2850  0.1938
  476loPI   PO4 7604   2.803   3.706  10.108 -0.2798 -0.0947  0.0314
  476loPI   GL1 7605   2.587   3.718   9.821  0.0631  0.0809  0.0171
  476loPI   GL2 7606   2.324   3.521   9.720 -0.1291 -0.4600  0.1651
  476loPI   C1A 7607   2.863   3.869   9.393 -0.4545  0.0590 -0.0530
  476loPI   C2A 7608   2.980   3.676   8.976 -0.1363  0.2932  0.2823
  476loPI   C3A 7609   3.031   3.689   8.550  0.2381  0.4556  0.0694
  476loPI   C4A 7610   2.977   3.558   8.053 -0.1400 -0.0053 -0.1291
  476loPI   C5A 7611   2.964   3.122   7.952 -0.0177  0.0564  0.1668
  476loPI   C6A 7612   3.140   2.848   7.679 -0.0106  0.0745 -0.1132
  476loPI   C1B 7613   2.457   3.531   9.273  0.0433  0.0464 -0.1683
  476loPI   C2B 7614   2.555   3.467   8.786  0.0977 -0.1860  0.0263
  476loPI   C3B 7615   2.565   3.647   8.451  0.1116  0.0676  0.0280
  476loPI   C4B 7616   2.521   3.490   8.047 -0.0913  0.1969  0.0439
  477loPI    C1 7617   2.537  16.632  10.297 -0.1972  0.3540 -0.0278
  477loPI    C2 7618   2.935  16.647  10.260 -0.2129  0.1076 -0.3387
  477loPI    C3 7619   2.745  16.917  10.485  0.1329  0.1993 -0.1499
  477loPI   PO4 7620   2.454  16.435  10.042  0.0326 -0.0470  0.0497
  477loPI   GL1 7621   2.428  16.204   9.642 -0.1727  0.0457  0.0495
  477loPI   GL2 7622   2.229  16.213   9.518 -0.1036 -0.2018 -0.1090
  477loPI   C1A 7623   2.698  16.094   9.262 -0.0458  0.1082 -0.0179
  477loPI   C2A 7624   2.716  16.150   8.756 -0.2796 -0.0853  0.0151
  477loPI   C3A 7625   2.631  16.270   8.332 -0.0503 -0.1261  0.1820
  477loPI   C4A 7626   2.623  16.162   7.945 -0.1120  0.2465 -0.1954
  477loPI   C5A 7627   2.426  16.044   7.573 -0.1398 -0.0996  0.0323
  477loPI   C6A 7628   2.626  15.826   7.210  0.0933  0.2371  0.1227
  477loPI   C1B 7629   2.212  16.249   9.078 -0.4141 -0.2676 -0.2700
  477loPI   C2B 7630   2.220  16.206   8.602  0.0016 -0.0404 -0.0401
  477loPI   C3B 7631   2.304  15.931   8.252 -0.0128 -0.0473  0.1498
  477loPI   C4B 7632   2.423  15.668   7.916 -0.2081  0.2901  0.1683
  478loPI    C1 7633  13.039  14.169  10.583  0.0758 -0.3219  0.1436
  478loPI    C2 7634  12.769  14.290  10.853  0.0412  0.0105 -0.0342
  478loPI    C3 7635  13.159  14.299  10.942  0.0348  0.1948 -0.0217
  478loPI   PO4 7636  13.026  14.004  10.424 -0.0375 -0.0604  0.1736
  478loPI   GL1 7637  13.040  14.087  10.030  0.1245 -0.3962  0.0759
  478loPI   GL2 7638  12.797  14.411  10.005 -0.0387 -0.3461  0.1822
  478loPI   C1A 7639  13.045  14.055   9.601 -0.1107 -0.1919 -0.0660
  478loPI   C2A 7640  12.811  13.943   9.307  0.1928  0.0903 -0.2918
  478loPI   C3A 7641  12.556  13.785   9.046  0.2523 -0.1683 -0.0815
  478loPI   C4A 7642  12.320  13.735   8.603  0.1380 -0.2500  0.2272
  478loPI   C5A 7643  11.903  13.672   8.389  0.1849  0.0739 -0.3122
  478loPI   C6A 7644  11.639  13.605   8.054 -0.1129  0.2277  0.1079
  478loPI   C1B 7645  12.568  14.162   9.756  0.3407 -0.1623  0.2781
  478loPI   C2B 7646  12.312  14.094   9.429  0.1397 -0.0686  0.3893
  478loPI   C3B 7647  12.175  14.143   9.012  0.0474 -0.0133  0.0310
  478loPI   C4B 7648  11.776  14.147   8.726  0.1436  0.1024  0.1494
  479loPI    C1 7649   8.423  17.104  10.304 -0.0303 -0.0346 -0.3160
  479loPI    C2 7650   8.704  16.829  10.235  0.1044  0.0008  0.0661
  479loPI    C3 7651   8.497  16.821  10.577  0.0490  0.3227  0.0431
  479loPI   PO4 7652   8.285  17.093  10.057  0.4456 -0.1911  0.0237
  479loPI   GL1 7653   8.048  17.099   9.764  0.1544 -0.1740  0.0554
  479loPI   GL2 7654   7.960  16.799   9.711 -0.0581  0.0285 -0.1602
  479loPI   C1A 7655   8.218  17.266   9.363 -0.1665 -0.2339  0.1995
  479loPI   C2A 7656   8.387  17.225   8.948  0.1285 -0.4097 -0.2743
  479loPI   C3A 7657   8.193  17.357   8.630 -0.2320 -0.2497  0.2417
  479loPI   C4A 7658   8.377  17.556   8.257 -0.1711  0.0988 -0.0170
  479loPI   C5A 7659   8.391  17.749   7.923  0.0585 -0.0614  0.1460
  479loPI   C6A 7660   8.655  17.978   7.749 -0.0926  0.0511 -0.1338
  479loPI   C1B 7661   8.305  16.696   9.323  0.1281 -0.1557  0.0396
  479loPI   C2B 7662   8.343  16.765   8.815  0.0757  0.0240  0.1152
  479loPI   C3B 7663   8.378  16.951   8.365  0.0644  0.0021 -0.2897
  479loPI   C4B 7664   8.761  16.981   8.130 -0.0199 -0.1196  0.0202
  480loPI    C1 7665  10.666  13.405  11.046 -0.0918  0.1631 -0.1970
  480loPI    C2 7666  10.950  13.532  11.296 -0.0033 -0.1311 -0.1437
  480loPI    C3 7667  10.765  13.185  11.365 -0.3284  0.0237 -0.2172
  480loPI   PO4 7668  10.798  13.479  10.786  0.1411 -0.4569 -0.1038
  480loPI   GL1 7669  10.866  13.631  10.431  0.0387  0.1001 -0.1315
  480loPI   GL2 7670  11.123  13.550  10.372 -0.1528 -0.2372 -0.1751
  480loPI   C1A 7671  10.565  13.485  10.197 -0.2859  0.4282 -0.2493
  480loPI   C2A 7672  10.275  13.822   9.907 -0.0494 -0.1795 -0.0837
  480loPI   C3A 7673  10.368  13.945   9.572  0.4011  0.2094 -0.0545
  480loPI   C4A 7674  10.070  14.159   9.494  0.4112  0.0481  0.0933
  480loPI   C5A 7675   9.634  14.409   9.516  0.1802 -0.2556  0.1941
  480loPI   C6A 7676   9.299  14.747   9.391 -0.0548 -0.0543  0.0930
  480loPI   C1B 7677  10.989  13.333  10.002  0.0753  0.1018 -0.0246
  480loPI   C2B 7678  10.628  13.117   9.842 -0.0760  0.1879 -0.0958
  480loPI   C3B 7679  10.344  13.174   9.544 -0.0911 -0.1938 -0.0025
  480loPI   C4B 7680  10.320  13.322   9.151 -0.2674 -0.1977  0.1652
  481loPI    C1 7681  17.645  10.296  10.650 -0.2188  0.0818  0.1929
  481loPI    C2 7682  18.032  10.361  10.726 -0.1066 -0.1090 -0.1934
  481loPI    C3 7683  17.822  10.109  10.955 -0.0415  0.1017  0.1032
  481loPI   PO4 7684  17.647  10.249  10.409 -0.1664  0.0397  0.0264
  481loPI   GL1 7685  17.467  10.374  10.009  0.2229 -0.0760  0.1224
  481loPI   GL2 7686  17.767  10.304   9.920 -0.0057  0.2131  0.1137
  481loPI   C1A 7687  17.430  10.604   9.521 -0.2019 -0.0216  0.0566
  481loPI   C2A 7688  17.564  10.633   9.185  0.3249  0.1585 -0.0395
  481loPI   C3A 7689  17.585  10.566   8.779  0.2231  0.0468 -0.0465
  481loPI   C4A 7690  17.763  10.635   8.228  0.2643 -0.3422 -0.0926
  481loPI   C5A 7691  18.060  10.741   7.907 -0.3503 -0.2223  0.0299
  481loPI   C6A 7692  18.000  10.902   7.448 -0.3280  0.1472  0.0549
  481loPI   C1B 7693  17.879  10.198   9.464  0.3429  0.0408  0.0832
  481loPI   C2B 7694  17.688  10.075   9.151  0.3134  0.1730  0.0516
  481loPI   C3B 7695  17.710  10.070   8.717 -0.2720  0.2020  0.1255
  481loPI   C4B 7696  17.479  10.249   8.307  0.2895 -0.0974 -0.0156
  482loPI    C1 7697  15.285  12.002  10.415  0.0284 -0.2375  0.1905
  482loPI    C2 7698  15.287  12.389  10.517  0.2444 -0.2094  0.0838
  482loPI    C3 7699  15.028  12.139  10.690 -0.0600  0.0279 -0.0201
  482loPI   PO4 7700  15.347  12.005  10.110  0.0389 -0.0176  0.0100
  482loPI   GL1 7701  15.138  12.020   9.741 -0.0094  0.0355 -0.2260
  482loPI   GL2 7702  15.064  12.271   9.618  0.1604  0.0945 -0.4067
  482loPI   C1A 7703  15.178  11.784   9.342  0.4204 -0.1801 -0.0594
  482loPI   C2A 7704  15.171  11.528   8.892  0.0595  0.0426 -0.3076
  482loPI   C3A 7705  15.124  11.470   8.472  0.0670  0.0059 -0.2872
  482loPI   C4A 7706  15.079  11.721   8.147  0.2639 -0.0017  0.3009
  482loPI   C5A 7707  15.069  12.091   7.947  0.1956 -0.0666 -0.0847
  482loPI   C6A 7708  15.282  12.412   7.777 -0.3382  0.3011 -0.3628
  482loPI   C1B 7709  15.110  12.504   9.247  0.1734  0.1089 -0.1322
  482loPI   C2B 7710  15.131  12.595   8.742 -0.0955 -0.1291  0.0307
  482loPI   C3B 7711  15.282  12.939   8.473 -0.0260  0.0844  0.0931
  482loPI   C4B 7712  15.140  13.302   8.394 -0.2182 -0.1274  0.0186
  483loPI    C1 7713  12.262   8.205  10.819 -0.0360 -0.1735  0.1309
  483loPI    C2 7714  12.006   7.918  10.926 -0.1474 -0.0909  0.0881
  483loPI    C3 7715  12.028   8.256  11.139 -0.1025 -0.0814  0.0684
  483loPI   PO4 7716  12.205   8.265  10.488  0.0838  0.0130  0.0776
  483loPI   GL1 7717  12.134   8.301  10.109 -0.5059  0.2081 -0.0253
  483loPI   GL2 7718  11.817   8.469  10.196  0.1966 -0.2753  0.1680
  483loPI   C1A 7719  12.140   8.648   9.833  0.1983 -0.1484 -0.4778
  483loPI   C2A 7720  12.280   8.872   9.425 -0.3145  0.1046 -0.0688
  483loPI   C3A 7721  12.135   8.801   8.926  0.0715  0.1543 -0.0378
  483loPI   C4A 7722  12.021   8.511   8.591 -0.1391 -0.0103 -0.1506
  483loPI   C5A 7723  11.737   8.582   8.232  0.1970  0.2043 -0.1200
  483loPI   C6A 7724  11.425   8.853   8.103 -0.0528 -0.4240  0.0786
  483loPI   C1B 7725  11.512   8.629   9.851  0.0705  0.2212  0.2660
  483loPI   C2B 7726  11.200   8.779   9.504  0.0348  0.0362  0.3025
  483loPI   C3B 7727  11.135   8.703   9.098  0.0086  0.3284  0.0343
  483loPI   C4B 7728  11.033   8.671   8.657  0.4590  0.0059 -0.0174
  484loPI    C1 7729   5.722   6.151  10.695 -0.0635 -0.1876 -0.0698
  484loPI    C2 7730   5.481   5.854  10.577 -0.0594 -0.2234  0.0112
  484loPI    C3 7731   5.656   5.840  10.937 -0.0817 -0.1091  0.0270
  484loPI   PO4 7732   5.917   6.133  10.467 -0.0493 -0.1289  0.1088
  484loPI   GL1 7733   5.906   6.306  10.088 -0.0686  0.2471  0.0769
  484loPI   GL2 7734   5.675   6.376   9.864 -0.2101  0.0964 -0.1674
  484loPI   C1A 7735   6.045   6.040   9.759 -0.2068 -0.2115  0.0940
  484loPI   C2A 7736   6.050   5.993   9.285 -0.1572  0.2371 -0.2371
  484loPI   C3A 7737   6.003   6.212   8.932 -0.3233  0.1070  0.0029
  484loPI   C4A 7738   5.772   6.207   8.504 -0.0293  0.1476  0.1461
  484loPI   C5A 7739   5.661   6.252   8.042  0.0578 -0.1403 -0.0628
  484loPI   C6A 7740   5.396   6.578   7.885 -0.1938  0.0611  0.0625
  484loPI   C1B 7741   5.558   6.182   9.584  0.0157 -0.2376 -0.0823
  484loPI   C2B 7742   5.186   6.215   9.307  0.1643 -0.2189  0.1175
  484loPI   C3B 7743   5.119   6.326   9.027 -0.2151  0.0046 -0.2939
  484loPI   C4B 7744   4.888   6.259   8.629 -0.2551  0.0421 -0.2481
  485loPI    C1 7745   9.256  12.902  10.668 -0.0210 -0.0677 -0.2189
  485loPI    C2 7746   9.420  12.870  11.032 -0.0110  0.3047 -0.1865
  485loPI    C3 7747   9.177  12.583  10.895 -0.1629  0.2493  0.1896
  485loPI   PO4 7748   9.510  12.960  10.552  0.0066 -0.2026  0.1186
  485loPI   GL1 7749   9.627  12.911  10.167  0.0688  0.1526 -0.1153
  485loPI   GL2 7750   9.499  12.601  10.020  0.2912  0.1029 -0.3546
  485loPI   C1A 7751   9.852  12.924   9.828  0.1009 -0.2408 -0.1225
  485loPI   C2A 7752   9.887  12.983   9.376  0.1580 -0.2527  0.1616
  485loPI   C3A 7753   9.978  12.969   8.947  0.0536 -0.0312 -0.1691
  485loPI   C4A 7754  10.351  13.042   8.692  0.0677  0.0910  0.0164
  485loPI   C5A 7755  10.682  13.023   8.387  0.2557  0.1095  0.0136
  485loPI   C6A 7756  10.688  12.762   8.056 -0.1608 -0.0184 -0.0049
  485loPI   C1B 7757   9.307  12.425   9.637 -0.0902  0.3318  0.1854
  485loPI   C2B 7758   9.357  12.357   9.181  0.3509 -0.3359 -0.1390
  485loPI   C3B 7759   9.413  12.389   8.758  0.2118 -0.2275  0.1287
  485loPI   C4B 7760   9.393  12.583   8.446 -0.0003  0.1069  0.0618
  486loPI    C1 7761  12.151   9.522  11.061  0.1352 -0.0167 -0.0437
  486loPI    C2 7762  12.536   9.412  11.066  0.1244 -0.0547 -0.0483
  486loPI    C3 7763  12.258   9.177  11.233  0.0619 -0.1853 -0.3298
  486loPI   PO4 7764  12.093   9.485  10.776 -0.2055 -0.0769  0.0193
  486loPI   GL1 7765  12.118   9.592  10.305 -0.1897 -0.0185  0.0521
  486loPI   GL2 7766  12.375   9.382  10.321  0.2046  0.0339  0.4396
  486loPI   C1A 7767  12.022   9.507   9.883 -0.0032  0.0179 -0.0136
  486loPI   C2A 7768  12.020   9.449   9.423 -0.0632  0.0293 -0.1406
  486loPI   C3A 7769  11.894   9.290   9.074 -0.2091  0.0930  0.0367
  486loPI   C4A 7770  11.770   9.085   8.673  0.2309 -0.3246  0.0815
  486loPI   C5A 7771  11.990   9.031   8.259  0.3330  0.0777  0.0021
  486loPI   C6A 7772  11.987   9.042   7.887  0.1676  0.0132  0.1203
  486loPI   C1B 7773  12.392   9.136   9.879  0.2265 -0.1076 -0.1794
  486loPI   C2B 7774  12.496   9.408   9.497  0.1529  0.0387 -0.2610
  486loPI   C3B 7775  12.439   9.324   9.238 -0.1178  0.0143  0.1606
  486loPI   C4B 7776  12.302   9.247   8.708  0.0051  0.0802 -0.1161
  487loPI    C1 7777  15.822   1.734  10.252  0.0020 -0.1026  0.1301
  487loPI    C2 7778  15.724   1.822  10.629 -0.0267 -0.1490  0.1335
  487loPI    C3 7779  16.097   1.707  10.541 -0.0182 -0.1316  0.1467
  487loPI   PO4 7780  15.812   1.992  10.080 -0.1470 -0.2686 -0.0224
  487loPI   GL1 7781  15.965   1.991   9.797  0.2856  0.1210 -0.2677
  487loPI   GL2 7782  16.160   2.246   9.772  0.2348 -0.3621  0.0506
  487loPI   C1A 7783  16.139   1.889   9.445  0.0368  0.2736  0.4263
  487loPI   C2A 7784  16.216   1.661   9.051 -0.2265 -0.0564 -0.0579
  487loPI   C3A 7785  16.271   1.315   8.712 -0.1454 -0.0634  0.1306
  487loPI   C4A 7786  16.235   0.894   8.594  0.2641 -0.1633 -0.3844
  487loPI   C5A 7787  16.155   0.447   8.262  0.1288  0.2215 -0.0726
  487loPI   C6A 7788  16.277   0.244   7.915 -0.0029 -0.2713  0.0523
  487loPI   C1B 7789  15.879   2.351   9.406 -0.0742  0.0069 -0.1244
  487loPI   C2B 7790  15.640   2.449   9.099 -0.0291 -0.1674  0.1272
  487loPI   C3B 7791  15.340   2.319   8.980  0.2848 -0.2325  0.2102
  487loPI   C4B 7792  15.138   2.309   8.623 -0.0540 -0.1250  0.1452
  488loPI    C1 7793   9.592  10.151  10.667 -0.0417  0.1986  0.1528
  488loPI    C2 7794   9.867   9.934  10.861  0.1265  0.1791 -0.1027
  488loPI    C3 7795   9.517  10.016  11.036  0.1932 -0.0132  0.1262
  488loPI   PO4 7796   9.686  10.270  10.465  0.0922 -0.0352  0.1140
  488loPI   GL1 7797   9.495  10.223  10.064 -0.2291 -0.0550 -0.0552
  488loPI   GL2 7798   9.681  10.419   9.962  0.2588 -0.3163 -0.2261
  488loPI   C1A 7799   9.739  10.097   9.648  0.2214 -0.4332  0.1051
  488loPI   C2A 7800   9.694  10.090   9.232  0.0280  0.1210 -0.2815
  488loPI   C3A 7801   9.796   9.840   8.824 -0.1008 -0.3182 -0.0045
  488loPI   C4A 7802   9.762   9.836   8.440 -0.1200  0.3705 -0.1669
  488loPI   C5A 7803   9.813   9.839   7.954 -0.2356  0.0826 -0.1687
  488loPI   C6A 7804  10.093   9.554   7.716 -0.2320  0.0489 -0.4074
  488loPI   C1B 7805   9.993  10.561   9.595 -0.3662 -0.1378  0.3597
  488loPI   C2B 7806  10.046  10.572   9.079 -0.1562  0.2982  0.0405
  488loPI   C3B 7807   9.967  10.359   8.683  0.3030  0.1176  0.2400
  488loPI   C4B 7808   9.992  10.245   8.247  0.3050  0.2153 -0.1229
  489loPI    C1 7809   2.801  16.124  10.582 -0.0649  0.2311 -0.0822
  489loPI    C2 7810   2.803  16.490  10.744 -0.0696  0.1630  0.0733
  489loPI    C3 7811   2.480  16.256  10.781  0.0428  0.0309  0.2305
  489loPI   PO4 7812   2.971  16.144  10.354 -0.1886 -0.1356 -0.1980
  489loPI   GL1 7813   3.141  16.183   9.990 -0.1288 -0.0596  0.1320
  489loPI   GL2 7814   2.867  16.367   9.838 -0.0096  0.3829  0.4629
  489loPI   C1A 7815   3.187  16.149   9.506 -0.0759  0.1844 -0.2728
  489loPI   C2A 7816   3.235  16.139   9.043  0.0868 -0.0691  0.2137
  489loPI   C3A 7817   3.348  16.293   8.648 -0.4673  0.8010  0.0541
  489loPI   C4A 7818   3.163  16.344   8.358 -0.0662  0.2519  0.2000
  489loPI   C5A 7819   3.004  16.458   7.865 -0.1262  0.1718  0.0873
  489loPI   C6A 7820   3.452  16.370   7.760  0.1593 -0.0615  0.3644
  489loPI   C1B 7821   2.865  16.541   9.389 -0.1652 -0.3105 -0.1075
  489loPI   C2B 7822   2.967  16.558   9.016 -0.0294  0.0629  0.0405
  489loPI   C3B 7823   3.064  16.699   8.683  0.1095 -0.5787  0.0273
  489loPI   C4B 7824   2.930  16.811   8.185 -0.2425 -0.2774  0.2475
  490loPI    C1 7825   2.329   9.101  10.388  0.2266 -0.0534 -0.3371
  490loPI    C2 7826   2.705   9.168  10.507  0.1042 -0.0513  0.0619
  490loPI    C3 7827   2.398   9.308  10.723 -0.1289 -0.1439 -0.2027
  490loPI   PO4 7828   2.354   9.065  10.193  0.2639  0.0377  0.3325
  490loPI   GL1 7829   1.988   9.011   9.884  0.0842  0.1951  0.1421
  490loPI   GL2 7830   1.890   8.698   9.990 -0.3809  0.0951 -0.1506
  490loPI   C1A 7831   2.042   8.922   9.435  0.1449 -0.0260 -0.1887
  490loPI   C2A 7832   1.976   8.834   8.969 -0.0626 -0.1561  0.1789
  490loPI   C3A 7833   1.774   8.610   8.639  0.0293 -0.1571 -0.1728
  490loPI   C4A 7834   1.891   8.716   8.234 -0.2101 -0.2811 -0.2634
  490loPI   C5A 7835   2.193   8.878   7.897  0.1121 -0.3129 -0.2574
  490loPI   C6A 7836   2.573   9.101   7.940 -0.0240  0.2306  0.3207
  490loPI   C1B 7837   2.140   8.453   9.698  0.0925  0.0701  0.1522
  490loPI   C2B 7838   2.045   8.315   9.220  0.0749  0.4031 -0.2068
  490loPI   C3B 7839   2.044   8.185   8.808 -0.0464 -0.1651  0.0902
  490loPI   C4B 7840   1.958   8.213   8.338 -0.2114 -0.0118  0.2201
  491loPI    C1 7841   7.765   5.697  10.670  0.1086  0.1939 -0.1331
  491loPI    C2 7842   7.386   5.806  10.600  0.0254 -0.0967 -0.1450
  491loPI    C3 7843   7.617   6.028  10.840 -0.1861  0.0224 -0.0492
  491loPI   PO4 7844   7.865   5.632  10.379  0.1359 -0.1252  0.2228
  491loPI   GL1 7845   8.278   5.656  10.072 -0.2601  0.0129 -0.3451
  491loPI   GL2 7846   7.999   5.587   9.863  0.1234 -0.0210 -0.1155
  491loPI   C1A 7847   8.514   5.343   9.838 -0.1058  0.0977 -0.0343
  491loPI   C2A 7848   8.561   5.526   9.363  0.1735  0.2821 -0.0202
  491loPI   C3A 7849   8.612   5.531   8.942  0.0884 -0.1077  0.0816
  491loPI   C4A 7850   8.530   5.436   8.526  0.0590 -0.0364 -0.2407
  491loPI   C5A 7851   8.662   5.331   8.115  0.1535  0.4481 -0.0796
  491loPI   C6A 7852   8.904   5.390   7.762  0.0677  0.0589  0.3383
  491loPI   C1B 7853   8.064   5.495   9.499  0.3956 -0.1087 -0.1817
  491loPI   C2B 7854   8.029   5.645   9.063 -0.0169  0.0362  0.0667
  491loPI   C3B 7855   8.056   5.605   8.580  0.1320 -0.0930 -0.0349
  491loPI   C4B 7856   7.936   5.506   8.215  0.0634  0.0836  0.2056
  492loPI    C1 7857   6.517  12.514   9.896 -0.1248  0.0003 -0.1540
  492loPI    C2 7858   6.300  12.519  10.232  0.0666 -0.0719 -0.0275
  492loPI    C3 7859   6.559  12.814  10.157  0.2350 -0.2034  0.0303
  492loPI   PO4 7860   6.371  12.443   9.739 -0.0114  0.3114 -0.1547
  492loPI   GL1 7861   6.070  12.470   9.342  0.0364  0.0987  0.0957
  492loPI   GL2 7862   6.371  12.528   9.147  0.0697 -0.2630 -0.3947
  492loPI   C1A 7863   5.907  12.793   9.187 -0.2688 -0.0504 -0.0434
  492loPI   C2A 7864   5.677  12.733   8.770  0.0279  0.1204  0.2844
  492loPI   C3A 7865   5.491  12.566   8.369 -0.2089 -0.1681 -0.1411
  492loPI   C4A 7866   5.555  12.721   7.951 -0.4773  0.0094 -0.2139
  492loPI   C5A 7867   5.476  13.036   7.594 -0.1917  0.0721 -0.0491
  492loPI   C6A 7868   5.649  13.367   7.325  0.2451 -0.0447  0.0402
  492loPI   C1B 7869   6.635  12.585   8.902 -0.0112 -0.0280  0.2403
  492loPI   C2B 7870   6.910  12.326   8.500  0.3343  0.1656 -0.2937
  492loPI   C3B 7871   7.075  12.119   8.164 -0.0676  0.1143 -0.3526
  492loPI   C4B 7872   6.990  11.846   7.900  0.2388  0.0884 -0.0570
  493loPI    C1 7873  14.528   2.609  10.330 -0.1742 -0.1788 -0.0726
  493loPI    C2 7874  14.631   2.417  10.665 -0.1349 -0.0133  0.0114
  493loPI    C3 7875  14.260   2.562  10.623 -0.0924  0.1085  0.0520
  493loPI   PO4 7876  14.560   2.499  10.148 -0.1194  0.1622 -0.1440
  493loPI   GL1 7877  14.596   2.137   9.952  0.3711 -0.3993 -0.0291
  493loPI   GL2 7878  14.962   2.199   9.941 -0.0940  0.2321  0.2581
  493loPI   C1A 7879  14.275   2.072   9.726  0.1147  0.1311 -0.0367
  493loPI   C2A 7880  14.323   2.066   9.326  0.3026 -0.2618  0.0057
  493loPI   C3A 7881  14.307   2.331   8.995 -0.2038 -0.1707  0.0688
  493loPI   C4A 7882  14.302   2.654   8.643  0.0213  0.5092  0.1103
  493loPI   C5A 7883  14.341   2.489   8.285  0.0602 -0.0893  0.0877
  493loPI   C6A 7884  14.542   2.227   8.002  0.1781  0.2203 -0.1571
  493loPI   C1B 7885  14.896   2.119   9.516 -0.0944  0.0150 -0.1470
  493loPI   C2B 7886  14.773   2.261   9.040 -0.2716  0.2832  0.0504
  493loPI   C3B 7887  14.591   2.193   8.653 -0.4696 -0.0828  0.2561
  493loPI   C4B 7888  14.349   1.924   8.379  0.0401 -0.1007  0.0327
  494loPI    C1 7889   1.575  15.293   9.958  0.0207 -0.1153 -0.0499
  494loPI    C2 7890   1.360  15.451  10.257  0.0252 -0.3670  0.0896
  494loPI    C3 7891   1.713  15.611  10.157 -0.0296 -0.2118  0.1423
  494loPI   PO4 7892   1.504  15.245   9.703  0.0523 -0.2445  0.4027
  494loPI   GL1 7893   1.325  15.355   9.406 -0.1440  0.0237 -0.0896
  494loPI   GL2 7894   1.155  15.388   9.252 -0.1064  0.2752  0.0540
  494loPI   C1A 7895   1.522  15.258   8.994 -0.3773 -0.0916 -0.0605
  494loPI   C2A 7896   1.519  15.095   8.549  0.1129  0.0174 -0.2498
  494loPI   C3A 7897   1.424  14.989   8.229  0.0032  0.3294 -0.5921
  494loPI   C4A 7898   1.549  14.748   8.041 -0.0533  0.0975  0.0622
  494loPI   C5A 7899   1.478  14.437   7.781 -0.3548 -0.3441 -0.3806
  494loPI   C6A 7900   1.515  14.092   7.457  0.0530  0.4357 -0.2464
  494loPI   C1B 7901   1.095  15.466   8.769 -0.0451  0.0891 -0.0352
  494loPI   C2B 7902   1.027  15.230   8.422  0.0578 -0.1587 -0.0206
  494loPI   C3B 7903   0.808  15.334   8.060  0.0904  0.1193 -0.2324
  494loPI   C4B 7904   0.821  15.468   7.634 -0.4024  0.0066  0.0921
  495loPI    C1 7905  15.374  11.141  10.592  0.0646 -0.2829 -0.1772
  495loPI    C2 7906  15.081  10.897  10.714 -0.1179 -0.0296 -0.1001
  495loPI    C3 7907  15.200  11.199  10.948  0.0990 -0.0364 -0.1991
  495loPI   PO4 7908  15.412  11.011  10.344 -0.2454  0.0036 -0.0709
  495loPI   GL1 7909  15.561  11.113   9.907  0.0647 -0.2726 -0.1755
  495loPI   GL2 7910  15.848  10.910  10.032 -0.2199  0.1361 -0.2858
  495loPI   C1A 7911  15.349  10.820   9.490 -0.0565 -0.0026  0.2037
  495loPI   C2A 7912  15.284  10.719   9.060 -0.0942  0.1582  0.1009
  495loPI   C3A 7913  15.172  10.560   8.625 -0.1927 -0.0092  0.1335
  495loPI   C4A 7914  15.106  10.501   8.198  0.2906 -0.2846 -0.1574
  495loPI   C5A 7915  15.125  10.818   7.769 -0.0805 -0.0157 -0.2580
  495loPI   C6A 7916  15.334  11.184   7.688 -0.2413  0.0554  0.1304
  495loPI   C1B 7917  15.884  10.890   9.635 -0.0469  0.0936  0.0434
  495loPI   C2B 7918  15.763  10.813   9.233 -0.0315  0.2141 -0.0030
  495loPI   C3B 7919  15.676  10.596   8.803  0.3641 -0.1690 -0.1619
  495loPI   C4B 7920  15.663  10.653   8.374 -0.0334 -0.4398  0.0023
  496loPI    C1 7921   5.057   1.443  10.339 -0.1876  0.2012  0.0021
  496loPI    C2 7922   4.763   1.505  10.602 -0.0535  0.0085  0.2004
  496loPI    C3 7923   5.127   1.654  10.672 -0.0788  0.1678  0.0006
  496loPI   PO4 7924   4.958   1.261  10.098 -0.0035 -0.1447 -0.2835
  496loPI   GL1 7925   5.089   0.995   9.823 -0.0079 -0.0459 -0.1355
  496loPI   GL2 7926   5.385   1.166   9.762 -0.2814  0.4812  0.1211
  496loPI   C1A 7927   5.142   0.821   9.442 -0.1424 -0.0864  0.0513
  496loPI   C2A 7928   4.893   0.849   9.136 -0.0212  0.0585 -0.0720
  496loPI   C3A 7929   4.553   0.828   8.821  0.4135  0.0662  0.0837
  496loPI   C4A 7930   4.517   0.786   8.323  0.0331  0.1130 -0.2150
  496loPI   C5A 7931   4.679   0.902   7.936  0.2858  0.0065 -0.1179
  496loPI   C6A 7932   4.680   1.119   7.474  0.4034 -0.0675 -0.0676
  496loPI   C1B 7933   5.451   1.241   9.395  0.1500  0.0559  0.1464
  496loPI   C2B 7934   5.358   1.195   8.980  0.0850 -0.1441  0.1062
  496loPI   C3B 7935   4.983   1.159   8.750  0.2043 -0.1554 -0.1847
  496loPI   C4B 7936   4.828   1.229   8.322 -0.1293 -0.2035 -0.2110
  497loPI    C1 7937  11.003  10.672  10.857  0.0177  0.0608  0.0167
  497loPI    C2 7938  10.805  10.991  10.995  0.0919  0.0042  0.2594
  497loPI    C3 7939  11.130  10.860  11.187  0.2647 -0.0093 -0.0364
  497loPI   PO4 7940  10.893  10.597  10.681  0.2385  0.0444 -0.1498
  497loPI   GL1 7941  10.870  10.587  10.189  0.1290  0.3594  0.2959
  497loPI   GL2 7942  10.441  10.609  10.120 -0.3145 -0.2753 -0.1510
  497loPI   C1A 7943  11.079  10.652   9.748  0.2337 -0.0952  0.1594
  497loPI   C2A 7944  10.964  10.552   9.249  0.1504 -0.0033  0.4220
  497loPI   C3A 7945  11.005  10.571   8.798  0.1928 -0.0690 -0.1173
  497loPI   C4A 7946  10.957  10.627   8.388 -0.0100  0.0199 -0.0720
  497loPI   C5A 7947  10.757  10.521   8.061  0.2971 -0.0247 -0.2292
  497loPI   C6A 7948  10.448  10.659   7.987  0.2603 -0.0397 -0.1464
  497loPI   C1B 7949  10.502  10.602   9.668 -0.2247 -0.1081  0.0569
  497loPI   C2B 7950  10.456  10.573   9.275 -0.1322 -0.2692 -0.3731
  497loPI   C3B 7951  10.531  10.600   8.873  0.2969 -0.2829  0.0605
  497loPI   C4B 7952  10.497  10.657   8.514  0.1043 -0.1531  0.1545
  498loPI    C1 7953   2.019  10.926  10.348  0.1419 -0.0426  0.0523
  498loPI    C2 7954   1.965  10.530  10.351  0.0777 -0.0348 -0.0337
  498loPI    C3 7955   2.133  10.711  10.666 -0.0871 -0.1034  0.0952
  498loPI   PO4 7956   1.985  11.006  10.070 -0.1207  0.1664 -0.2942
  498loPI   GL1 7957   2.010  11.204   9.705  0.0611  0.2165  0.0767
  498loPI   GL2 7958   2.086  10.942   9.542 -0.1370 -0.2208  0.0395
  498loPI   C1A 7959   1.852  11.185   9.243  0.2484 -0.0085 -0.4777
  498loPI   C2A 7960   1.669  11.201   8.777  0.0722 -0.0237  0.0594
  498loPI   C3A 7961   1.660  11.250   8.374 -0.0017 -0.2486 -0.0825
  498loPI   C4A 7962   1.353  11.395   8.090  0.1898  0.0786  0.1389
  498loPI   C5A 7963   1.325  11.737   7.820 -0.2842 -0.1450 -0.2228
  498loPI   C6A 7964   1.162  12.116   7.644 -0.0534 -0.0608 -0.1273
  498loPI   C1B 7965   1.899  10.682   9.209  0.0201 -0.0825 -0.1111
  498loPI   C2B 7966   1.936  10.726   8.746  0.5485 -0.2314  0.1086
  498loPI   C3B 7967   1.953  10.825   8.321  0.0768 -0.0331  0.1381
  498loPI   C4B 7968   1.896  10.895   7.882 -0.2528  0.0616  0.4182
  499loPI    C1 7969   6.187  17.420  10.534  0.2570  0.1293 -0.1215
  499loPI    C2 7970   6.247  17.657  10.851  0.0053 -0.0215  0.0419
  499loPI    C3 7971   6.099  17.288  10.902 -0.0552 -0.0401 -0.2533
  499loPI   PO4 7972   6.376  17.466  10.396 -0.1506 -0.2569 -0.0522
  499loPI   GL1 7973   6.530  17.616  10.059 -0.0252 -0.3042  0.4035
  499loPI   GL2 7974   6.661  17.780  10.071  0.1153  0.1978 -0.0463
  499loPI   C1A 7975   6.180  17.650   9.765  0.0441  0.2352 -0.3827
  499loPI   C2A 7976   6.153  17.603   9.362 -0.0936 -0.1705  0.0614
  499loPI   C3A 7977   6.142  17.721   8.949  0.1071 -0.3125 -0.0426
  499loPI   C4A 7978   5.883  17.664   8.570 -0.0583  0.3397 -0.0855
  499loPI   C5A 7979   5.937  17.674   8.065  0.3710 -0.0029  0.0772
  499loPI   C6A 7980   5.961  17.707   7.646  0.0443  0.0454 -0.1327
  499loPI   C1B 7981   6.737  17.671   9.611 -0.0402  0.1168 -0.0358
  499loPI   C2B 7982   6.671  17.702   9.116  0.1516 -0.0733  0.2532
  499loPI   C3B 7983   6.591  17.771   8.749 -0.0133  0.1150  0.3081
  499loPI   C4B 7984   6.375  17.763   8.354  0.0118  0.1001 -0.1832
  500loPI    C1 7985   0.792  14.111  10.207  0.0100 -0.1070 -0.2247
  500loPI    C2 7986   0.898  13.744  10.327 -0.2843 -0.1174  0.0186
  500loPI    C3 7987   0.840  14.033  10.597 -0.1971  0.0714 -0.1618
  500loPI   PO4 7988   0.870  14.028   9.865 -0.1904 -0.2080  0.1828
  500loPI   GL1 7989   0.790  13.791   9.499 -0.2252  0.0029 -0.2609
  500loPI   GL2 7990   1.111  13.809   9.331  0.3851 -0.1589  0.0600
  500loPI   C1A 7991   0.551  13.564   9.091  0.1924  0.1647  0.3003
  500loPI   C2A 7992   0.669  13.600   8.618 -0.3047 -0.0796  0.0641
  500loPI   C3A 7993   0.865  13.518   8.263  0.1388 -0.0975 -0.0874
  500loPI   C4A 7994   0.920  13.582   7.872 -0.1936 -0.0939 -0.1575
  500loPI   C5A 7995   1.001  13.893   7.473  0.2165  0.1802  0.2033
  500loPI   C6A 7996   0.749  14.075   7.167  0.0788  0.1073 -0.0417
  500loPI   C1B 7997   0.996  13.726   9.014  0.1919  0.0194 -0.0273
  500loPI   C2B 7998   1.134  13.393   8.869 -0.0595  0.0817  0.2011
  500loPI   C3B 7999   1.068  13.110   8.553  0.1117  0.0861  0.0926
  500loPI   C4B 8000   1.204  12.771   8.310  0.1111  0.3661 -0.0687
  501loPI    C1 8001  16.821   8.059  10.350 -0.1064  0.0689  0.1355
  501loPI    C2 8002  16.617   7.715  10.344 -0.0998  0.0667 -0.0185
  501loPI    C3 8003  16.655   7.920  10.686  0.1936 -0.2610  0.1527
  501loPI   PO4 8004  16.708   8.212  10.128 -0.4787 -0.1763  0.2675
  501loPI   GL1 8005  16.688   8.267   9.649  0.0151 -0.4086  0.1223
  501loPI   GL2 8006  16.492   8.501   9.509 -0.3904  0.1379  0.1849
  501loPI   C1A 8007  16.954   8.071   9.367  0.1632 -0.0050 -0.1617
  501loPI   C2A 8008  16.980   8.129   8.863  0.1835 -0.0367  0.1049
  501loPI   C3A 8009  16.684   8.161   8.428 -0.0892 -0.0853  0.0847
  501loPI   C4A 8010  16.304   8.112   8.157  0.2992  0.1672 -0.0899
  501loPI   C5A 8011  16.130   8.059   7.716 -0.0405  0.0968  0.1010
  501loPI   C6A 8012  15.789   8.009   7.309 -0.1755  0.1759  0.1490
  501loPI   C1B 8013  16.317   8.770   9.256 -0.1009  0.1132  0.2702
  501loPI   C2B 8014  16.270   8.956   8.906  0.0347  0.2311 -0.1362
  501loPI   C3B 8015  16.271   8.893   8.481  0.0723 -0.0176  0.2061
  501loPI   C4B 8016  16.434   8.596   8.298 -0.1167  0.1284  0.0569
  502loPI    C1 8017  17.017  14.483  10.474  0.0850  0.1098  0.0182
  502loPI    C2 8018  17.215  14.137  10.501  0.1177  0.1396  0.1677
  502loPI    C3 8019  17.137  14.349  10.831 -0.0685  0.1817  0.0975
  502loPI   PO4 8020  17.177  14.569  10.269  0.0511 -0.3356 -0.0340
  502loPI   GL1 8021  17.325  14.370   9.857  0.0788  0.4229 -0.0438
  502loPI   GL2 8022  17.331  14.079   9.987  0.1156  0.1078  0.1290
  502loPI   C1A 8023  17.303  14.322   9.330 -0.1060 -0.3531  0.1515
  502loPI   C2A 8024  17.356  14.184   8.825 -0.1593  0.0496  0.3007
  502loPI   C3A 8025  17.281  14.172   8.312  0.0255  0.2579  0.0425
  502loPI   C4A 8026  16.975  14.270   7.977 -0.0009 -0.0206  0.1398
  502loPI   C5A 8027  16.663  13.963   7.848 -0.1208  0.0972  0.0763
  502loPI   C6A 8028  16.127  13.904   7.739 -0.3272 -0.1938  0.1526
  502loPI   C1B 8029  17.089  13.939   9.637 -0.2095 -0.1044  0.2318
  502loPI   C2B 8030  17.224  13.872   9.176 -0.0305  0.0630 -0.0376
  502loPI   C3B 8031  17.096  13.818   8.679 -0.1431 -0.0001  0.0691
  502loPI   C4B 8032  16.834  14.000   8.337 -0.2380  0.2017 -0.0758
  503loPI    C1 8033  10.959  17.797  10.669  0.1962 -0.1294  0.1276
  503loPI    C2 8034  11.040  17.573  10.347 -0.0753  0.0828 -0.0931
  503loPI    C3 8035  11.338  17.751  10.548  0.1424 -0.4470  0.0709
  503loPI   PO4 8036  10.827  18.016  10.581  0.2826  0.1311  0.0103
  503loPI   GL1 8037  10.513  17.989  10.345 -0.1239  0.0382 -0.2813
  503loPI   GL2 8038  10.169  17.857  10.340 -0.0438  0.0361 -0.0165
  503loPI   C1A 8039  10.706  17.895   9.989  0.1777 -0.1771 -0.1980
  503loPI   C2A 8040  10.855  18.061   9.656 -0.1145  0.0772  0.0736
  503loPI   C3A 8041  11.149  18.184   9.304 -0.0109 -0.1982  0.2982
  503loPI   C4A 8042  11.296  18.235   8.826 -0.0715 -0.0166 -0.2185
  503loPI   C5A 8043  11.158  18.105   8.417  0.2694  0.1175  0.0721
  503loPI   C6A 8044  11.190  18.126   8.022  0.1704 -0.1143 -0.1305
  503loPI   C1B 8045  10.234  17.897   9.885  0.3786 -0.2031  0.1815
  503loPI   C2B 8046   9.920  17.868   9.486 -0.2149  0.0153  0.0416
  503loPI   C3B 8047   9.851  17.991   9.028  0.0555 -0.0153 -0.0135
  503loPI   C4B 8048  10.057  17.854   8.674  0.1426 -0.0862  0.1382
  504loPI    C1 8049   9.140   9.394  10.714  0.2798 -0.0978  0.0708
  504loPI    C2 8050   9.489   9.585  10.755  0.1813  0.0658  0.1616
  504loPI    C3 8051   9.238   9.560  11.065  0.1690 -0.1670  0.1351
  504loPI   PO4 8052   9.014   9.421  10.446 -0.3704 -0.2663  0.0477
  504loPI   GL1 8053   8.968   9.441   9.998 -0.3675  0.1226  0.1909
  504loPI   GL2 8054   8.884   9.108  10.096 -0.0538  0.1858  0.2573
  504loPI   C1A 8055   8.973   9.594   9.554  0.0192  0.2422  0.0415
  504loPI   C2A 8056   8.894   9.611   9.159 -0.2694  0.0305 -0.0286
  504loPI   C3A 8057   8.976   9.516   8.724 -0.0811  0.1467 -0.1654
  504loPI   C4A 8058   8.916   9.238   8.412 -0.0999  0.2319 -0.0325
  504loPI   C5A 8059   8.891   8.921   8.115 -0.3934  0.0113 -0.1964
  504loPI   C6A 8060   9.034   8.705   7.848 -0.1021  0.3887  0.0730
  504loPI   C1B 8061   8.763   9.127   9.720 -0.2396  0.2230  0.0077
  504loPI   C2B 8062   8.825   9.050   9.253 -0.0816  0.0173  0.0702
  504loPI   C3B 8063   8.822   8.945   8.843 -0.0272 -0.1611  0.1286
  504loPI   C4B 8064   8.716   8.611   8.471 -0.0939  0.1980 -0.1901
  505loPI    C1 8065  14.696  16.552  10.647  0.1573  0.0066 -0.1008
  505loPI    C2 8066  15.067  16.411  10.599  0.2034 -0.0506  0.3793
  505loPI    C3 8067  15.005  16.742  10.815  0.0105  0.1982 -0.0443
  505loPI   PO4 8068  14.624  16.605  10.430  0.0599  0.2278  0.0894
  505loPI   GL1 8069  14.554  16.708   9.995 -0.3011 -0.0080  0.0157
  505loPI   GL2 8070  14.798  16.804   9.942 -0.1412 -0.3557  0.1103
  505loPI   C1A 8071  14.251  16.764   9.631  0.0745 -0.2179 -0.0611
  505loPI   C2A 8072  14.063  16.667   9.201 -0.0940  0.0763  0.2341
  505loPI   C3A 8073  14.124  16.728   8.710 -0.0972  0.1411  0.2670
  505loPI   C4A 8074  13.749  16.763   8.562 -0.1154 -0.0379  0.2047
  505loPI   C5A 8075  13.485  16.755   8.168  0.0419  0.1087  0.4158
  505loPI   C6A 8076  13.387  16.974   7.757  0.1423 -0.1642 -0.2241
  505loPI   C1B 8077  14.809  16.651   9.491  0.2082 -0.1376 -0.0389
  505loPI   C2B 8078  14.782  16.677   9.054  0.1733  0.2115  0.3354
  505loPI   C3B 8079  14.636  16.669   8.636  0.0126 -0.1759  0.0584
  505loPI   C4B 8080  14.442  16.598   8.225  0.0218  0.2270  0.1551
  506loPI    C1 8081  12.744   9.128  10.754 -0.0348  0.0743  0.1618
  506loPI    C2 8082  12.361   9.018  10.787 -0.0749  0.1819  0.0612
  506loPI    C3 8083  12.624   8.914  11.070 -0.1613  0.0366  0.0889
  506loPI   PO4 8084  12.719   9.044  10.445  0.0147  0.1019 -0.1094
  506loPI   GL1 8085  12.891   8.994  10.028  0.2104  0.0551  0.1028
  506loPI   GL2 8086  13.248   8.941   9.960 -0.2885 -0.1583  0.0254
  506loPI   C1A 8087  12.781   9.017   9.623  0.2765  0.0215  0.0334
  506loPI   C2A 8088  12.755   8.887   9.235 -0.0963 -0.2500  0.3826
  506loPI   C3A 8089  12.705   8.833   8.905  0.0514 -0.1927  0.1458
  506loPI   C4A 8090  12.498   8.827   8.482  0.2184  0.0162 -0.1795
  506loPI   C5A 8091  12.315   8.650   8.129 -0.1855 -0.0979  0.0133
  506loPI   C6A 8092  12.346   8.741   7.742 -0.2358 -0.0409 -0.2019
  506loPI   C1B 8093  13.294   8.984   9.514  0.2605 -0.0280 -0.0722
  506loPI   C2B 8094  13.171   8.936   8.997  0.1265  0.2417  0.0271
  506loPI   C3B 8095  13.116   8.766   8.526  0.1066 -0.0705 -0.1235
  506loPI   C4B 8096  13.121   9.033   8.180  0.1230  0.0216 -0.0788
  507loPI    C1 8097  10.881  11.681  10.969 -0.2023 -0.1170 -0.2750
  507loPI    C2 8098  10.687  11.420  11.202 -0.0104  0.0438  0.0739
  507loPI    C3 8099  10.914  11.704  11.367  0.0755  0.2064 -0.3124
  507loPI   PO4 8100  10.894  11.451  10.744  0.0701  0.0244  0.2896
  507loPI   GL1 8101  11.055  11.697  10.260  0.1278  0.3693 -0.1457
  507loPI   GL2 8102  11.051  11.367  10.153 -0.1198  0.1551  0.1422
  507loPI   C1A 8103  11.062  11.754   9.877  0.2271  0.0931  0.0036
  507loPI   C2A 8104  11.172  11.832   9.463  0.1082 -0.0519 -0.0773
  507loPI   C3A 8105  11.227  11.993   9.049 -0.1979 -0.2206  0.0429
  507loPI   C4A 8106  11.292  11.896   8.554  0.1443  0.4275 -0.4300
  507loPI   C5A 8107  11.542  11.813   8.167  0.2840  0.0147 -0.0739
  507loPI   C6A 8108  11.770  11.536   7.965 -0.0408 -0.1214 -0.1182
  507loPI   C1B 8109  11.149  11.183   9.734  0.3003 -0.0194  0.3738
  507loPI   C2B 8110  11.198  10.994   9.372 -0.0494 -0.0025  0.1357
  507loPI   C3B 8111  11.236  11.005   8.952 -0.0267 -0.0500  0.1632
  507loPI   C4B 8112  11.315  11.059   8.493  0.2571 -0.0161 -0.1953
  508loPI    C1 8113  12.044  17.025  10.498 -0.0876 -0.0570 -0.0694
  508loPI    C2 8114  12.399  16.879  10.388 -0.2229 -0.3509 -0.1261
  508loPI    C3 8115  12.204  16.718  10.698 -0.2184 -0.0611  0.0308
  508loPI   PO4 8116  11.923  17.003  10.274 -0.0058 -0.2392 -0.0143
  508loPI   GL1 8117  12.013  17.004   9.877  0.1055 -0.0522 -0.0673
  508loPI   GL2 8118  12.356  16.877   9.925  0.1676  0.3131  0.2470
  508loPI   C1A 8119  11.819  16.996   9.585  0.3027 -0.1623  0.1827
  508loPI   C2A 8120  11.803  16.905   9.132 -0.0392 -0.3327 -0.1756
  508loPI   C3A 8121  11.780  16.877   8.691  0.0477 -0.1242  0.2171
  508loPI   C4A 8122  12.049  16.583   8.490  0.3417 -0.0890  0.0069
  508loPI   C5A 8123  12.058  16.399   8.042 -0.0664 -0.2388 -0.2771
  508loPI   C6A 8124  12.259  16.072   7.733  0.2385  0.0047  0.1917
  508loPI   C1B 8125  12.299  16.836   9.509  0.0266  0.1464  0.1051
  508loPI   C2B 8126  12.272  16.825   9.063  0.1470 -0.0469 -0.1764
  508loPI   C3B 8127  12.233  17.075   8.627  0.0171  0.1779 -0.0690
  508loPI   C4B 8128  12.376  17.522   8.438  0.2663 -0.0383 -0.0125
  509loPI    C1 8129   9.315  17.226  10.013 -0.1669  0.0301  0.2593
  509loPI    C2 8130   9.459  17.218  10.387 -0.0697 -0.0044  0.2214
  509loPI    C3 8131   9.336  17.563  10.226  0.1054  0.0503  0.2031
  509loPI   PO4 8132   9.161  16.902  10.002  0.0004 -0.0390 -0.1494
  509loPI   GL1 8133   8.790  16.811   9.741 -0.0364 -0.2420 -0.3158
  509loPI   GL2 8134   8.590  17.046   9.660  0.1292  0.1418 -0.1591
  509loPI   C1A 8135   8.882  16.687   9.402 -0.3254 -0.1366  0.1813
  509loPI   C2A 8136   9.079  16.482   9.194 -0.0309 -0.1261  0.0814
  509loPI   C3A 8137   9.075  16.166   8.834 -0.0135 -0.2615  0.1210
  509loPI   C4A 8138   9.132  16.106   8.432  0.1242 -0.1150  0.0700
  509loPI   C5A 8139   8.953  15.970   8.157  0.1270  0.1013 -0.1509
  509loPI   C6A 8140   8.577  15.926   8.032  0.3409  0.2389  0.1716
  509loPI   C1B 8141   8.778  17.147   9.236  0.0456 -0.0489  0.1985
  509loPI   C2B 8142   8.816  16.967   8.931  0.1630  0.0191  0.1278
  509loPI   C3B 8143   8.810  16.672   8.603 -0.0324 -0.2276 -0.0409
  509loPI   C4B 8144   8.578  16.414   8.379  0.1752  0.0851 -0.0599
  510loPI    C1 8145  11.155  12.145  10.962  0.0292  0.0060 -0.0815
  510loPI    C2 8146  11.352  11.867  11.171  0.0412  0.0796  0.0056
  510loPI    C3 8147  11.181  12.176  11.360  0.1176  0.1878 -0.1003
  510loPI   PO4 8148  11.359  12.128  10.721  0.1538 -0.1903 -0.1600
  510loPI   GL1 8149  11.324  12.290  10.306 -0.1860 -0.1026  0.2328
  510loPI   GL2 8150  11.362  12.641  10.319  0.0724  0.1324 -0.2682
  510loPI   C1A 8151  11.176  12.267   9.910 -0.1026 -0.1863 -0.1994
  510loPI   C2A 8152  11.253  12.326   9.502  0.3724 -0.1222 -0.2517
  510loPI   C3A 8153  11.149  12.480   9.149  0.0801  0.0868 -0.0343
  510loPI   C4A 8154  11.020  12.348   8.796  0.0225 -0.1043  0.3883
  510loPI   C5A 8155  10.718  12.421   8.481 -0.1286 -0.0405 -0.4794
  510loPI   C6A 8156  10.260  12.630   8.342 -0.1230  0.1709 -0.2560
  510loPI   C1B 8157  11.702  12.358   9.963  0.2544 -0.0239  0.0862
  510loPI   C2B 8158  12.060  12.187   9.748  0.0270  0.0667  0.0069
  510loPI   C3B 8159  12.191  11.992   9.368  0.0473 -0.0235  0.1365
  510loPI   C4B 8160  12.317  11.955   8.970  0.0922  0.0915 -0.0765
  511loPI    C1 8161   2.491   4.159  10.140 -0.4154 -0.0111  0.2590
  511loPI    C2 8162   2.504   3.915  10.457 -0.3244 -0.0155  0.2521
  511loPI    C3 8163   2.223   3.865  10.177 -0.1630 -0.2617  0.1311
  511loPI   PO4 8164   2.567   4.353  10.218  0.1072  0.0160 -0.1855
  511loPI   GL1 8165   2.704   4.650   9.844 -0.2675 -0.0369 -0.1541
  511loPI   GL2 8166   2.536   4.823   9.664  0.0830  0.3217  0.1006
  511loPI   C1A 8167   3.019   4.812   9.574  0.1280 -0.0612  0.0347
  511loPI   C2A 8168   3.150   4.745   9.144 -0.0818 -0.2416  0.1629
  511loPI   C3A 8169   3.198   4.727   8.792  0.0399  0.1162 -0.0743
  511loPI   C4A 8170   3.315   4.945   8.439  0.1320 -0.0340 -0.0261
  511loPI   C5A 8171   3.281   5.032   8.070 -0.3432  0.3514  0.1613
  511loPI   C6A 8172   3.643   5.311   7.944 -0.0298 -0.1642  0.0545
  511loPI   C1B 8173   2.591   4.594   9.336 -0.1717  0.4858 -0.0825
  511loPI   C2B 8174   2.702   4.545   8.875  0.3579 -0.1980  0.0940
  511loPI   C3B 8175   2.927   4.612   8.431 -0.1644  0.1735  0.2667
  511loPI   C4B 8176   2.969   4.667   7.920 -0.2754  0.0586  0.1265
  512loPI    C1 8177  12.050  14.228  10.996 -0.0933  0.1000  0.0935
  512loPI    C2 8178  11.688  14.216  10.827 -0.0928  0.3693  0.0683
  512loPI    C3 8179  11.723  14.206  11.225 -0.1326  0.4116  0.0730
  512loPI   PO4 8180  12.246  14.138  10.802 -0.0133 -0.2072  0.0332
  512loPI   GL1 8181  12.011  14.367  10.453  0.1063 -0.0548  0.0210
  512loPI   GL2 8182  12.009  14.003  10.415  0.1359 -0.2123  0.2104
  512loPI   C1A 8183  12.092  14.430  10.070 -0.0616 -0.4697  0.0097
  512loPI   C2A 8184  12.127  14.485   9.695  0.0314  0.1499 -0.0543
  512loPI   C3A 8185  12.177  14.533   9.317  0.0602  0.1838  0.0690
  512loPI   C4A 8186  11.978  14.635   8.896  0.0952 -0.1557 -0.2831
  512loPI   C5A 8187  12.037  14.967   8.553  0.0255  0.0993 -0.1443
  512loPI   C6A 8188  12.110  15.163   8.239  0.2058  0.0967  0.1027
  512loPI   C1B 8189  12.181  13.943  10.041 -0.1435 -0.0216  0.0396
  512loPI   C2B 8190  12.034  13.730   9.650  0.3128 -0.1373 -0.0025
  512loPI   C3B 8191  11.798  13.448   9.596  0.0455 -0.0147  0.0809
  512loPI   C4B 8192  11.602  13.289   9.215  0.0458 -0.3213  0.3300
  513loPI    C1 8193   8.286   4.013  10.570 -0.0004  0.0701 -0.0568
  513loPI    C2 8194   8.175   3.694  10.785 -0.0686 -0.0715 -0.2974
  513loPI    C3 8195   8.556   3.736  10.671  0.0284  0.1511  0.0903
  513loPI   PO4 8196   8.204   4.066  10.304 -0.2825 -0.2065  0.0459
  513loPI   GL1 8197   8.467   4.225   9.925  0.1577 -0.1112  0.0241
  513loPI   GL2 8198   8.118   4.251   9.804 -0.3033  0.0181 -0.3339
  513loPI   C1A 8199   8.444   4.571   9.668 -0.0185 -0.0184 -0.2564
  513loPI   C2A 8200   8.439   4.642   9.244 -0.0430 -0.1120  0.2206
  513loPI   C3A 8201   8.408   4.683   8.800 -0.0663  0.0288  0.1096
  513loPI   C4A 8202   8.375   4.630   8.406  0.0743  0.0511 -0.1655
  513loPI   C5A 8203   8.309   4.413   7.985  0.0707  0.0165 -0.4890
  513loPI   C6A 8204   7.900   4.331   7.786  0.2076  0.2404  0.1214
  513loPI   C1B 8205   8.108   4.145   9.426  0.2533  0.0706 -0.0682
  513loPI   C2B 8206   8.120   4.254   9.101  0.0623 -0.0938  0.0149
  513loPI   C3B 8207   8.069   4.249   8.745  0.1744  0.0505  0.0534
  513loPI   C4B 8208   8.024   4.243   8.411 -0.0123 -0.2860 -0.1540
  514loPI    C1 8209   7.776  13.741  10.295  0.2154  0.3028 -0.1045
  514loPI    C2 8210   7.616  13.544  10.604 -0.1290  0.0514 -0.4322
  514loPI    C3 8211   7.700  13.934  10.637  0.1322 -0.0377  0.0742
  514loPI   PO4 8212   7.610  13.646  10.105  0.0143  0.1190  0.0011
  514loPI   GL1 8213   7.542  13.498   9.711 -0.0528  0.0506  0.0587
  514loPI   GL2 8214   7.337  13.342   9.478  0.0043  0.3497  0.0809
  514loPI   C1A 8215   7.852  13.388   9.426  0.1544 -0.1796  0.1176
  514loPI   C2A 8216   7.929  13.469   9.066  0.0936  0.0508  0.0936
  514loPI   C3A 8217   8.109  13.634   8.715  0.3021 -0.0484 -0.0040
  514loPI   C4A 8218   8.060  13.881   8.294  0.0245 -0.1493 -0.0814
  514loPI   C5A 8219   8.111  14.244   7.861  0.1288 -0.2424  0.0487
  514loPI   C6A 8220   7.904  14.610   7.709  0.0802 -0.0962  0.2401
  514loPI   C1B 8221   7.428  13.384   9.116 -0.2738  0.1691 -0.0664
  514loPI   C2B 8222   7.400  13.593   8.757 -0.2171  0.0133  0.2076
  514loPI   C3B 8223   7.633  13.621   8.303  0.0793  0.1199  0.0666
  514loPI   C4B 8224   7.664  13.825   7.895 -0.0987 -0.1404  0.1955
  515loPI    C1 8225  11.507   9.357  10.617  0.3821  0.2554  0.1087
  515loPI    C2 8226  11.375   9.205  10.963  0.1127 -0.1136 -0.1485
  515loPI    C3 8227  11.602   9.534  10.963  0.0457 -0.0593  0.3707
  515loPI   PO4 8228  11.287   9.331  10.394 -0.1537 -0.0888  0.1419
  515loPI   GL1 8229  11.078   9.508  10.082 -0.2527  0.0848 -0.0229
  515loPI   GL2 8230  11.043   9.753   9.944  0.1122  0.2743  0.2364
  515loPI   C1A 8231  10.834   9.328   9.715 -0.1197  0.0345  0.0401
  515loPI   C2A 8232  10.894   9.170   9.281  0.2686  0.2284  0.2099
  515loPI   C3A 8233  10.817   9.120   8.844 -0.1604 -0.0358 -0.0032
  515loPI   C4A 8234  10.852   9.124   8.377  0.3281 -0.0662 -0.1823
  515loPI   C5A 8235  10.868   8.907   8.053 -0.0724 -0.0455 -0.1510
  515loPI   C6A 8236  10.935   8.958   7.630  0.1508 -0.1603  0.3381
  515loPI   C1B 8237  11.012   9.688   9.469  0.0520  0.3606 -0.0632
  515loPI   C2B 8238  11.057   9.603   9.043 -0.0864  0.0125 -0.2505
  515loPI   C3B 8239  11.090   9.531   8.716 -0.2573 -0.0786  0.0771
  515loPI   C4B 8240  11.202   9.711   8.359 -0.0505 -0.0591  0.1169
  516loPI    C1 8241   4.547   2.598  10.547 -0.0803  0.0670  0.2271
  516loPI    C2 8242   4.447   2.963  10.417 -0.0475  0.0029  0.0175
  516loPI    C3 8243   4.321   2.837  10.775 -0.1053  0.1982  0.0674
  516loPI   PO4 8244   4.503   2.357  10.375 -0.0128  0.2312 -0.0702
  516loPI   GL1 8245   4.473   2.103   9.987  0.1434 -0.2440  0.2261
  516loPI   GL2 8246   4.501   1.964   9.694  0.2267  0.0348 -0.1070
  516loPI   C1A 8247   4.670   2.450   9.605 -0.1548 -0.0114 -0.0127
  516loPI   C2A 8248   4.714   2.632   9.172  0.2632 -0.3350  0.0183
  516loPI   C3A 8249   4.647   2.488   8.718 -0.4126 -0.1144 -0.2152
  516loPI   C4A 8250   4.763   2.411   8.338 -0.2863  0.2447  0.0492
  516loPI   C5A 8251   5.141   2.382   8.046 -0.3073  0.1546  0.1419
  516loPI   C6A 8252   5.621   2.392   8.101 -0.0850 -0.1505  0.2143
  516loPI   C1B 8253   4.793   1.939   9.422  0.2582 -0.1630 -0.1681
  516loPI   C2B 8254   4.977   2.192   9.150  0.3647  0.1010 -0.2018
  516loPI   C3B 8255   5.127   2.547   8.893  0.0176 -0.0077  0.1090
  516loPI   C4B 8256   5.299   2.631   8.484  0.0769  0.0765 -0.2286
  517loPI    C1 8257  17.924   4.673  10.117  0.0002  0.1108  0.1050
  517loPI    C2 8258  18.122   4.548  10.441 -0.2114 -0.3529  0.0627
  517loPI    C3 8259  17.808   4.792  10.481  0.2144  0.2027  0.1451
  517loPI   PO4 8260  17.816   4.402   9.893  0.1360  0.1132 -0.0639
  517loPI   GL1 8261  17.803   4.278   9.443 -0.0916 -0.0655 -0.1447
  517loPI   GL2 8262  17.933   3.939   9.207 -0.0575 -0.0554 -0.1118
  517loPI   C1A 8263  17.822   4.336   8.932 -0.1974 -0.0927 -0.2332
  517loPI   C2A 8264  17.810   4.068   8.575  0.1082  0.0435 -0.1090
  517loPI   C3A 8265  17.734   3.653   8.351  0.1145  0.0596  0.0089
  517loPI   C4A 8266  17.735   3.415   8.031 -0.3372 -0.0077  0.0396
  517loPI   C5A 8267  17.807   3.058   7.649 -0.4696  0.0896  0.0634
  517loPI   C6A 8268  18.043   3.025   7.390 -0.1504  0.0971 -0.1203
  517loPI   C1B 8269  17.782   3.658   8.922  0.0130 -0.1519 -0.0210
  517loPI   C2B 8270  17.525   3.445   8.790  0.0505  0.2754 -0.0924
  517loPI   C3B 8271  17.286   3.457   8.411 -0.1402  0.1042 -0.2036
  517loPI   C4B 8272  17.133   3.682   8.108  0.0252  0.0483  0.0614
  518loPI    C1 8273   0.084   4.317  10.121 -0.1008 -0.2446 -0.0390
  518loPI    C2 8274   0.068   4.056  10.423  0.0069  0.0260  0.2046
  518loPI    C3 8275   0.278   4.394  10.462 -0.1153  0.1415 -0.1138
  518loPI   PO4 8276  -0.027   4.186   9.914  0.0461 -0.0740 -0.1551
  518loPI   GL1 8277   0.022   4.054   9.503  0.0924  0.0139 -0.2348
  518loPI   GL2 8278   0.217   3.915   9.315 -0.0859 -0.1872  0.4672
  518loPI   C1A 8279  -0.096   4.247   9.094  0.1015  0.1532 -0.2056
  518loPI   C2A 8280  -0.267   4.325   8.726 -0.1072 -0.1005  0.2836
  518loPI   C3A 8281  -0.021   4.530   8.327  0.1503 -0.0757  0.0244
  518loPI   C4A 8282   0.125   4.648   8.047 -0.2375 -0.0133  0.1048
  518loPI   C5A 8283   0.290   4.899   7.855  0.4598 -0.1773  0.2170
  518loPI   C6A 8284   0.250   5.203   7.532  0.2371  0.2708 -0.1883
  518loPI   C1B 8285   0.272   3.735   8.913  0.0631 -0.0579  0.1357
  518loPI   C2B 8286   0.164   3.678   8.505  0.0685 -0.1849  0.2414
  518loPI   C3B 8287   0.153   3.519   8.103 -0.1848  0.1643  0.2082
  518loPI   C4B 8288   0.336   3.557   7.679 -0.0763 -0.0933  0.2603
  519loPI    C1 8289   9.679  14.733  10.533  0.1620 -0.2738  0.0023
  519loPI    C2 8290   9.674  14.722  10.933 -0.0049 -0.0818  0.0072
  519loPI    C3 8291   9.594  15.064  10.741  0.1245 -0.1604 -0.1906
  519loPI   PO4 8292   9.469  14.497  10.433  0.2507  0.0126  0.0697
  519loPI   GL1 8293   9.678  14.345  10.053 -0.1881  0.4738 -0.5015
  519loPI   GL2 8294   9.822  14.638  10.070 -0.3933 -0.0512 -0.2616
  519loPI   C1A 8295  10.175  14.280  10.008 -0.3796  0.1694  0.1592
  519loPI   C2A 8296  10.225  14.588   9.734  0.2516 -0.1890 -0.0664
  519loPI   C3A 8297  10.007  14.771   9.350  0.2285 -0.0116 -0.0253
  519loPI   C4A 8298  10.182  14.880   8.960  0.1172 -0.1183 -0.1402
  519loPI   C5A 8299  10.500  14.785   8.610  0.1042 -0.3054 -0.0093
  519loPI   C6A 8300  10.555  14.761   8.171  0.1570 -0.0097  0.0439
  519loPI   C1B 8301   9.781  14.941   9.750 -0.0074 -0.1432  0.1464
  519loPI   C2B 8302   9.602  15.196   9.427 -0.0608  0.0190 -0.1051
  519loPI   C3B 8303   9.536  14.898   9.004 -0.0881 -0.1765  0.0223
  519loPI   C4B 8304   9.214  14.767   8.724  0.0888  0.1643 -0.1012
  520loPI    C1 8305  15.766  14.216  10.293 -0.1442 -0.0944  0.2346
  520loPI    C2 8306  15.873  14.501  10.551  0.0118 -0.1600  0.2434
  520loPI    C3 8307  15.496  14.368  10.546 -0.0284 -0.0521  0.3334
  520loPI   PO4 8308  15.895  14.312  10.050 -0.1632 -0.4083  0.0537
  520loPI   GL1 8309  15.937  14.466   9.633 -0.2437 -0.0449  0.0763
  520loPI   GL2 8310  16.183  14.256   9.679  0.4835 -0.0332 -0.1943
  520loPI   C1A 8311  15.745  14.643   9.286 -0.2225 -0.0627  0.1838
  520loPI   C2A 8312  15.367  14.618   9.066 -0.1686  0.0785  0.0451
  520loPI   C3A 8313  15.015  14.789   8.905  0.1259 -0.0309  0.1440
  520loPI   C4A 8314  14.995  15.041   8.534  0.3706  0.1175 -0.0163
  520loPI   C5A 8315  14.651  15.049   8.138 -0.1418  0.0566  0.0598
  520loPI   C6A 8316  14.625  14.825   7.705 -0.2615 -0.1734 -0.1273
  520loPI   C1B 8317  16.615  14.130   9.476  0.1415 -0.2295  0.4544
  520loPI   C2B 8318  16.872  14.166   9.035 -0.1496 -0.0378 -0.1111
  520loPI   C3B 8319  16.935  14.322   8.674 -0.2046 -0.1387  0.6215
  520loPI   C4B 8320  16.982  14.615   8.382  0.2632  0.1450  0.1367
  521loPI    C1 8321   3.132  17.678  10.576 -0.0676 -0.0522  0.0832
  521loPI    C2 8322   3.334  17.383  10.756 -0.0483 -0.1786 -0.1416
  521loPI    C3 8323   2.937  17.358  10.718 -0.0463 -0.1765 -0.1634
  521loPI   PO4 8324   3.180  17.752  10.377 -0.2056  0.0742  0.0705
  521loPI   GL1 8325   3.541  17.752  10.037  0.0585 -0.1850 -0.0808
  521loPI   GL2 8326   3.677  17.511   9.857 -0.2948  0.0813 -0.1600
  521loPI   C1A 8327   3.572  17.992   9.555  0.1794  0.0543 -0.1879
  521loPI   C2A 8328   3.642  17.987   9.166  0.0867  0.1677  0.0943
  521loPI   C3A 8329   3.702  18.053   8.795 -0.1692  0.0869 -0.2738
  521loPI   C4A 8330   3.763  18.111   8.316  0.0227  0.2560 -0.1523
  521loPI   C5A 8331   3.888  18.072   7.840  0.1769 -0.2245 -0.0765
  521loPI   C6A 8332   4.153  17.683   7.600  0.0150 -0.3140  0.3591
  521loPI   C1B 8333   3.848  17.536   9.471 -0.0372  0.0766  0.1589
  521loPI   C2B 8334   3.946  17.562   9.070 -0.1061 -0.1887 -0.0448
  521loPI   C3B 8335   3.973  17.577   8.556  0.0270  0.0287 -0.0698
  521loPI   C4B 8336   3.989  17.701   8.090 -0.2010 -0.0189  0.0998
  522loPI    C1 8337   4.018  12.107  10.412  0.2122  0.0898 -0.0059
  522loPI    C2 8338   3.812  11.876  10.664  0.1499  0.2443  0.0865
  522loPI    C3 8339   3.740  12.269  10.649  0.1379  0.2337 -0.1882
  522loPI   PO4 8340   4.106  12.000  10.258  0.3577  0.0539  0.1385
  522loPI   GL1 8341   4.021  11.913   9.776  0.0015 -0.2047  0.0734
  522loPI   GL2 8342   3.844  12.167   9.671 -0.1306  0.1780 -0.1169
  522loPI   C1A 8343   4.034  11.931   9.333  0.2794  0.0646 -0.1538
  522loPI   C2A 8344   3.950  12.013   8.889  0.0329  0.0599  0.1643
  522loPI   C3A 8345   3.877  11.873   8.519  0.1493  0.3196  0.3619
  522loPI   C4A 8346   3.709  11.698   8.195 -0.2402 -0.2838 -0.1101
  522loPI   C5A 8347   3.623  11.598   7.856 -0.4127 -0.1087  0.0880
  522loPI   C6A 8348   3.623  11.436   7.469  0.0772  0.0394 -0.1804
  522loPI   C1B 8349   3.719  12.393   9.215  0.0910  0.2628 -0.2365
  522loPI   C2B 8350   3.786  12.497   8.727  0.3603  0.2859 -0.2866
  522loPI   C3B 8351   4.104  12.493   8.398  0.0637  0.0141  0.0904
  522loPI   C4B 8352   4.148  12.163   8.059  0.1035 -0.2357 -0.0822
  523loPI    C1 8353   1.187  15.019   9.993  0.0666  0.2161  0.0235
  523loPI    C2 8354   0.866  15.210  10.138 -0.0300  0.0889 -0.0209
  523loPI    C3 8355   1.108  15.008  10.385 -0.0045  0.1541  0.0076
  523loPI   PO4 8356   1.139  14.901   9.739  0.1515 -0.1632  0.0195
  523loPI   GL1 8357   1.281  14.870   9.376 -0.0535 -0.0416 -0.2436
  523loPI   GL2 8358   1.625  14.639   9.418  0.2202 -0.1270  0.2256
  523loPI   C1A 8359   1.064  14.923   8.961  0.1256  0.1758 -0.2277
  523loPI   C2A 8360   0.922  14.765   8.456 -0.1833 -0.2269 -0.0763
  523loPI   C3A 8361   0.769  14.493   8.092 -0.0227  0.1204 -0.1311
  523loPI   C4A 8362   0.636  14.054   7.808 -0.1878  0.1299 -0.1368
  523loPI   C5A 8363   0.527  13.695   7.482 -0.0321 -0.1164  0.0310
  523loPI   C6A 8364   0.545  13.320   7.357 -0.0307 -0.1434  0.0723
  523loPI   C1B 8365   1.534  14.719   8.968  0.0477  0.1395 -0.0463
  523loPI   C2B 8366   1.422  14.544   8.547 -0.0675  0.1930  0.3341
  523loPI   C3B 8367   1.269  14.288   8.209 -0.0791 -0.0934 -0.1935
  523loPI   C4B 8368   1.072  14.095   7.941 -0.0538 -0.0194 -0.1385
  524loPI    C1 8369   7.625   3.049  10.538 -0.0848  0.1052 -0.0438
  524loPI    C2 8370   7.615   3.028  10.938 -0.1070 -0.0395 -0.0515
  524loPI    C3 8371   7.278   2.984  10.727 -0.1189  0.1801 -0.0805
  524loPI   PO4 8372   7.789   3.264  10.519  0.5305  0.0328 -0.0530
  524loPI   GL1 8373   7.905   3.413  10.115 -0.0790  0.0702  0.1854
  524loPI   GL2 8374   7.603   3.110  10.015  0.1520 -0.1762 -0.0566
  524loPI   C1A 8375   7.839   3.487   9.676  0.2538  0.0946 -0.1445
  524loPI   C2A 8376   7.880   3.432   9.197  0.2180  0.0902 -0.1586
  524loPI   C3A 8377   7.840   3.303   8.766  0.0594 -0.0409 -0.0240
  524loPI   C4A 8378   7.696   3.247   8.334  0.0733 -0.0550 -0.2004
  524loPI   C5A 8379   7.443   3.214   7.990 -0.1324  0.0892 -0.2471
  524loPI   C6A 8380   7.074   3.248   7.729  0.0432  0.1518  0.0638
  524loPI   C1B 8381   7.353   3.131   9.649  0.1110 -0.1322  0.2379
  524loPI   C2B 8382   7.323   2.956   9.202  0.1314  0.0933 -0.2482
  524loPI   C3B 8383   7.306   2.878   8.765 -0.1914 -0.0219 -0.1397
  524loPI   C4B 8384   7.389   2.879   8.338  0.2355  0.2191 -0.1281
  525loPI    C1 8385   0.744  11.203   9.944  0.0448  0.0980 -0.0873
  525loPI    C2 8386   0.616  11.180  10.323  0.0547 -0.3738 -0.1061
  525loPI    C3 8387   0.592  11.527  10.124 -0.0033 -0.1354  0.3047
  525loPI   PO4 8388   0.561  11.007   9.773  0.2948  0.1575 -0.1256
  525loPI   GL1 8389   0.180  10.903   9.639 -0.1179  0.0299  0.1873
  525loPI   GL2 8390   0.022  10.648   9.507 -0.0665  0.0597 -0.2043
  525loPI   C1A 8391   0.257  11.242   9.330 -0.3630  0.1382 -0.0032
  525loPI   C2A 8392   0.192  11.335   8.848  0.0688 -0.4280 -0.1051
  525loPI   C3A 8393   0.304  11.456   8.463  0.0988 -0.1478 -0.2504
  525loPI   C4A 8394   0.371  11.911   8.252  0.2468 -0.5402  0.0381
  525loPI   C5A 8395   0.170  12.027   7.814  0.0002 -0.0747  0.0245
  525loPI   C6A 8396   0.046  12.278   7.472 -0.2154 -0.0023  0.0944
  525loPI   C1B 8397  -0.009  10.448   9.046 -0.0101 -0.0096  0.1665
  525loPI   C2B 8398   0.072  10.520   8.687  0.1837  0.1969 -0.3541
  525loPI   C3B 8399   0.318  10.492   8.337 -0.1823  0.0716 -0.2460
  525loPI   C4B 8400   0.610  10.628   8.118  0.0347 -0.0454 -0.1061
  526loPI    C1 8401   1.242   3.222   9.929  0.0311 -0.0174 -0.0473
  526loPI    C2 8402   1.447   3.294  10.265  0.1480 -0.0738 -0.1059
  526loPI    C3 8403   1.049   3.259  10.277  0.1363  0.0863  0.0006
  526loPI   PO4 8404   1.438   3.383   9.740 -0.2115 -0.1892  0.1394
  526loPI   GL1 8405   1.272   3.514   9.299 -0.1953  0.1700 -0.0594
  526loPI   GL2 8406   1.098   3.713   9.238 -0.5262  0.1715 -0.0869
  526loPI   C1A 8407   1.354   3.376   8.831 -0.1290  0.2810  0.0002
  526loPI   C2A 8408   1.097   3.381   8.445 -0.1605  0.1879  0.0428
  526loPI   C3A 8409   1.261   3.060   8.102 -0.0003 -0.0441 -0.0583
  526loPI   C4A 8410   1.364   2.998   7.677  0.2623 -0.1182 -0.2885
  526loPI   C5A 8411   1.598   2.970   7.330 -0.0279 -0.0887  0.0262
  526loPI   C6A 8412   1.836   3.415   7.408  0.2029 -0.0020  0.0425
  526loPI   C1B 8413   1.263   3.841   8.846 -0.2138 -0.3807 -0.0968
  526loPI   C2B 8414   1.135   3.862   8.439 -0.1775 -0.1232  0.0146
  526loPI   C3B 8415   0.950   3.909   7.999 -0.4689 -0.2020 -0.0730
  526loPI   C4B 8416   0.818   3.907   7.658  0.1079  0.0646  0.3987
  527loPI    C1 8417   7.574  17.346  10.735  0.1207  0.0285 -0.0022
  527loPI    C2 8418   7.543  17.613  11.031 -0.0883 -0.0073  0.0098
  527loPI    C3 8419   7.755  17.277  11.086  0.0388  0.0786  0.0501
  527loPI   PO4 8420   7.669  17.499  10.524  0.2722 -0.0970  0.5143
  527loPI   GL1 8421   7.622  17.681  10.079  0.0850 -0.0528  0.3634
  527loPI   GL2 8422   7.624  17.786   9.729  0.4118 -0.0291  0.2133
  527loPI   C1A 8423   7.608  17.313   9.787  0.2105 -0.2923 -0.0985
  527loPI   C2A 8424   7.616  17.216   9.313  0.4284 -0.1542 -0.0161
  527loPI   C3A 8425   7.856  17.047   8.954 -0.3237  0.0388  0.0385
  527loPI   C4A 8426   7.854  17.020   8.462 -0.1802 -0.3704 -0.2695
  527loPI   C5A 8427   7.775  16.807   8.115 -0.0346 -0.2530  0.2167
  527loPI   C6A 8428   7.779  16.962   7.649 -0.1832  0.0656 -0.1134
  527loPI   C1B 8429   7.400  17.750   9.201  0.1676 -0.0451  0.0348
  527loPI   C2B 8430   7.221  17.825   8.869 -0.0650  0.0549  0.2274
  527loPI   C3B 8431   7.127  18.059   8.457 -0.0530 -0.1038 -0.0573
  527loPI   C4B 8432   7.068  18.386   8.198  0.1333  0.4764  0.2847
  528loPI    C1 8433  10.881   9.527  10.597 -0.0813 -0.0920 -0.2514
  528loPI    C2 8434  10.709   9.675  10.926  0.0306  0.0807 -0.2693
  528loPI    C3 8435  11.107   9.637  10.908  0.0204  0.0159 -0.3625
  528loPI   PO4 8436  10.727   9.694  10.367 -0.3691 -0.0950 -0.1793
  528loPI   GL1 8437  10.481   9.796  10.084 -0.2049  0.0574 -0.0308
  528loPI   GL2 8438  10.687  10.097  10.049  0.0720 -0.1242  0.2788
  528loPI   C1A 8439  10.471   9.630   9.566 -0.1413  0.3027  0.0244
  528loPI   C2A 8440  10.536   9.644   9.137  0.1273  0.0808 -0.2211
  528loPI   C3A 8441  10.602   9.523   8.799 -0.3313  0.2801 -0.1534
  528loPI   C4A 8442  10.688   9.631   8.403  0.0954 -0.2727 -0.0032
  528loPI   C5A 8443  10.737   9.778   8.025 -0.0427  0.0519  0.0984
  528loPI   C6A 8444  10.579   9.705   7.694  0.3226 -0.0551 -0.1228
  528loPI   C1B 8445  10.785  10.092   9.589 -0.0705 -0.0517  0.1040
  528loPI   C2B 8446  10.724  10.112   9.142  0.0324  0.0136 -0.1274
  528loPI   C3B 8447  10.727  10.006   8.776 -0.3020 -0.0033  0.0805
  528loPI   C4B 8448  10.711  10.171   8.403  0.5539 -0.0458 -0.2389
  529loPI    C1 8449   5.018   9.666  10.572  0.0840  0.1032  0.1017
  529loPI    C2 8450   5.395   9.554  10.498  0.1152  0.1304  0.2169
  529loPI    C3 8451   5.177   9.355  10.767 -0.0092  0.0091  0.0281
  529loPI   PO4 8452   4.922   9.640  10.277 -0.0605  0.0279  0.0182
  529loPI   GL1 8453   4.642   9.391  10.010 -0.2062 -0.1628  0.0434
  529loPI   GL2 8454   4.912   9.333   9.897  0.1113 -0.0665  0.0370
  529loPI   C1A 8455   4.542   9.405   9.589 -0.2045  0.0660  0.2342
  529loPI   C2A 8456   4.661   9.493   9.114  0.1266 -0.0737  0.0609
  529loPI   C3A 8457   4.733   9.501   8.755  0.0121 -0.1491  0.1617
  529loPI   C4A 8458   4.653   9.574   8.325  0.2454  0.2049 -0.0873
  529loPI   C5A 8459   4.260   9.661   8.063 -0.1551  0.1909  0.0901
  529loPI   C6A 8460   4.240   9.796   7.591  0.1293  0.0269  0.1165
  529loPI   C1B 8461   5.002   9.185   9.456  0.1996 -0.1196  0.0180
  529loPI   C2B 8462   5.080   9.226   8.980 -0.0438 -0.1449  0.0693
  529loPI   C3B 8463   5.151   9.400   8.595 -0.1117 -0.1372 -0.1371
  529loPI   C4B 8464   5.160   9.553   8.186 -0.0732 -0.1476  0.0889
  530loPI    C1 8465  18.052   0.739  10.199  0.2440 -0.3172 -0.2635
  530loPI    C2 8466  18.350   0.779  10.462 -0.0083  0.1020 -0.0296
  530loPI    C3 8467  17.974   0.739  10.591 -0.1098  0.0721 -0.3268
  530loPI   PO4 8468  18.110   0.963   9.999  0.1897 -0.0109 -0.1358
  530loPI   GL1 8469  18.147   0.944   9.555  0.0015 -0.1302 -0.2100
  530loPI   GL2 8470  18.506   0.930   9.566 -0.0470  0.2984 -0.0450
  530loPI   C1A 8471  18.366   0.784   9.095 -0.0676  0.1642  0.1339
  530loPI   C2A 8472  18.464   0.841   8.596 -0.0607  0.2158  0.1611
  530loPI   C3A 8473  18.511   0.881   8.161 -0.0883  0.0102  0.0786
  530loPI   C4A 8474  18.453   0.767   7.710 -0.0130  0.1060  0.3053
  530loPI   C5A 8475  18.480   0.453   7.403 -0.1208  0.1438 -0.0168
  530loPI   C6A 8476  18.555   0.002   7.275  0.0056  0.0134 -0.0413
  530loPI   C1B 8477  18.205   1.269   9.219  0.2319  0.0606 -0.0850
  530loPI   C2B 8478  18.132   1.133   8.776  0.0933 -0.0106  0.1660
  530loPI   C3B 8479  18.030   1.033   8.335  0.2899 -0.2400  0.0476
  530loPI   C4B 8480  18.048   0.989   7.946 -0.1426 -0.1064  0.0690
  531loPI    C1 8481   8.599  10.133  10.442 -0.3682 -0.1587 -0.1211
  531loPI    C2 8482   8.599   9.890  10.124  0.0312 -0.0985 -0.1724
  531loPI    C3 8483   8.646   9.739  10.492  0.3122 -0.0996 -0.2070
  531loPI   PO4 8484   8.750  10.350  10.290 -0.1306  0.0376  0.0737
  531loPI   GL1 8485   9.068  10.497   9.963  0.2205 -0.0062 -0.0483
  531loPI   GL2 8486   9.034  10.821   9.851  0.0017  0.2609 -0.3176
  531loPI   C1A 8487   9.333  10.427   9.631  0.0556 -0.0604  0.0057
  531loPI   C2A 8488   9.583  10.549   9.388  0.1746  0.3482 -0.1130
  531loPI   C3A 8489   9.545  10.420   8.925 -0.1641 -0.1094  0.1577
  531loPI   C4A 8490   9.554  10.405   8.446 -0.1894  0.0053  0.0716
  531loPI   C5A 8491   9.432  10.125   8.111 -0.0630 -0.0691 -0.1412
  531loPI   C6A 8492   9.119   9.905   7.874  0.0756 -0.0610  0.0423
  531loPI   C1B 8493   9.198  10.876   9.505  0.1679 -0.2394  0.0662
  531loPI   C2B 8494   9.260  10.838   9.090 -0.0501 -0.1222 -0.0023
  531loPI   C3B 8495   9.371  10.836   8.604  0.1586  0.0621  0.0593
  531loPI   C4B 8496   9.196  11.070   8.266  0.0991  0.1107  0.2720
  532loPI    C1 8497  16.027  12.842  10.448  0.1110 -0.1101 -0.0209
  532loPI    C2 8498  16.420  12.771  10.449  0.1357  0.0199  0.1816
  532loPI    C3 8499  16.213  12.752  10.791 -0.0339 -0.0426  0.0766
  532loPI   PO4 8500  16.067  13.109  10.310 -0.0087 -0.2284  0.0851
  532loPI   GL1 8501  16.045  13.562  10.041 -0.1331  0.1408  0.2187
  532loPI   GL2 8502  16.237  13.748   9.961 -0.1941 -0.1294  0.0555
  532loPI   C1A 8503  15.876  13.398   9.612 -0.0059  0.2220  0.1978
  532loPI   C2A 8504  16.141  13.222   9.424  0.0663 -0.1736  0.0446
  532loPI   C3A 8505  16.231  13.278   9.028  0.4317 -0.0922  0.0398
  532loPI   C4A 8506  16.332  13.122   8.572  0.0563  0.0402 -0.0901
  532loPI   C5A 8507  16.184  13.002   8.132  0.0091 -0.2175 -0.0124
  532loPI   C6A 8508  16.321  13.028   7.771  0.1756 -0.2290  0.3747
  532loPI   C1B 8509  16.167  13.783   9.545  0.3030 -0.0622  0.4953
  532loPI   C2B 8510  16.069  14.115   9.225 -0.2586 -0.1443  0.2618
  532loPI   C3B 8511  16.086  14.370   8.921 -0.1602 -0.0499 -0.0243
  532loPI   C4B 8512  16.144  14.554   8.475  0.1883 -0.2222 -0.0582
  533loPI    C1 8513  13.975  10.320  10.742  0.1693 -0.1887 -0.0865
  533loPI    C2 8514  13.895   9.996  10.962  0.0742  0.0279  0.2036
  533loPI    C3 8515  14.136  10.281  11.106 -0.0959  0.2352  0.0841
  533loPI   PO4 8516  14.011  10.253  10.512  0.0947 -0.0398  0.3276
  533loPI   GL1 8517  13.797  10.376  10.178 -0.3034  0.1401  0.2752
  533loPI   GL2 8518  14.078  10.598  10.119 -0.0045  0.0307  0.0107
  533loPI   C1A 8519  13.506  10.385   9.806  0.0491 -0.0892  0.0814
  533loPI   C2A 8520  13.414  10.293   9.361 -0.2388  0.0889  0.0760
  533loPI   C3A 8521  13.340  10.187   8.900 -0.0208 -0.0442  0.1455
  533loPI   C4A 8522  13.267  10.161   8.455 -0.1997  0.3323 -0.0824
  533loPI   C5A 8523  13.421  10.047   8.073  0.0987  0.3996  0.1771
  533loPI   C6A 8524  13.529  10.033   7.588  0.1012 -0.1665  0.1068
  533loPI   C1B 8525  14.045  10.421   9.767  0.2291 -0.0164  0.0902
  533loPI   C2B 8526  13.987  10.286   9.382  0.1242  0.0294  0.0346
  533loPI   C3B 8527  13.867  10.226   9.036 -0.1890  0.0525 -0.0883
  533loPI   C4B 8528  13.914  10.281   8.701  0.0242 -0.1816 -0.0227
  534loPI    C1 8529   7.669  16.844  10.823 -0.1470  0.1418  0.2328
  534loPI    C2 8530   7.783  16.462  10.785 -0.1490  0.1626  0.0035
  534loPI    C3 8531   7.596  16.583  11.117 -0.2383 -0.0588  0.0356
  534loPI   PO4 8532   7.507  16.826  10.544  0.1954 -0.1259  0.2524
  534loPI   GL1 8533   7.548  16.653  10.084 -0.0605  0.0227  0.0967
  534loPI   GL2 8534   7.387  16.872   9.991  0.0006 -0.0003  0.0452
  534loPI   C1A 8535   7.605  16.473   9.577  0.2919  0.0078 -0.3307
  534loPI   C2A 8536   7.724  16.588   9.232 -0.0244  0.2365  0.2476
  534loPI   C3A 8537   7.966  16.521   8.975  0.0506  0.0399 -0.1261
  534loPI   C4A 8538   8.023  16.587   8.537 -0.1915  0.5280 -0.1212
  534loPI   C5A 8539   8.125  16.387   8.048  0.0519  0.3281  0.0544
  534loPI   C6A 8540   7.902  16.220   7.662  0.4115  0.2560  0.1797
  534loPI   C1B 8541   7.306  16.869   9.532 -0.2348  0.5693 -0.0304
  534loPI   C2B 8542   7.286  16.813   9.075 -0.2254 -0.0501  0.1533
  534loPI   C3B 8543   6.957  16.908   8.721 -0.0190 -0.2353  0.0801
  534loPI   C4B 8544   7.142  17.049   8.272 -0.0666  0.1998  0.0436
  535loPI    C1 8545   5.743  10.023  10.704 -0.2367 -0.1341  0.0697
  535loPI    C2 8546   5.421   9.853  10.870 -0.1309 -0.1770  0.2324
  535loPI    C3 8547   5.737   9.949  11.097 -0.1257  0.0904  0.1157
  535loPI   PO4 8548   5.751   9.987  10.450 -0.2070  0.0648  0.1917
  535loPI   GL1 8549   6.017   9.932  10.054 -0.1959  0.0366 -0.0219
  535loPI   GL2 8550   6.200   9.766   9.999 -0.0146  0.0820  0.2414
  535loPI   C1A 8551   6.020  10.155   9.658 -0.1195 -0.0390  0.2861
  535loPI   C2A 8552   5.909  10.375   9.219  0.0001  0.3789 -0.1277
  535loPI   C3A 8553   6.128  10.676   8.955  0.1825 -0.1139  0.2511
  535loPI   C4A 8554   6.198  10.818   8.496  0.1050 -0.2186 -0.0108
  535loPI   C5A 8555   6.417  10.901   8.081  0.1281  0.0062  0.0125
  535loPI   C6A 8556   6.592  10.615   7.828 -0.1977  0.0168  0.2504
  535loPI   C1B 8557   6.086   9.618   9.520  0.0043 -0.1086  0.0501
  535loPI   C2B 8558   6.135   9.700   9.048 -0.0646  0.3148 -0.2186
  535loPI   C3B 8559   6.170   9.591   8.638 -0.2498  0.0264  0.0670
  535loPI   C4B 8560   6.375   9.648   8.287  0.0370 -0.0758  0.3858
  536loPI    C1 8561   1.097   2.211  10.047 -0.2733 -0.0873 -0.2188
  536loPI    C2 8562   0.915   2.364  10.369 -0.0800  0.0144 -0.1560
  536loPI    C3 8563   1.214   2.102  10.414 -0.0557  0.0250 -0.2531
  536loPI   PO4 8564   0.921   2.281   9.867 -0.2190  0.3559  0.1394
  536loPI   GL1 8565   0.948   2.220   9.518  0.1970  0.1581 -0.1099
  536loPI   GL2 8566   0.721   2.096   9.310 -0.0542  0.0076 -0.1682
  536loPI   C1A 8567   1.197   2.232   9.095  0.1679  0.0420 -0.0741
  536loPI   C2A 8568   1.152   2.223   8.694 -0.1206  0.1679  0.2762
  536loPI   C3A 8569   1.157   2.170   8.257 -0.0958  0.0444  0.1659
  536loPI   C4A 8570   1.182   2.042   7.896  0.1914 -0.0226  0.2460
  536loPI   C5A 8571   1.497   2.122   7.542  0.0152 -0.2193 -0.0162
  536loPI   C6A 8572   1.801   2.292   7.266  0.1532 -0.0315  0.1582
  536loPI   C1B 8573   0.791   2.030   8.933  0.2267 -0.1190  0.1452
  536loPI   C2B 8574   0.692   2.079   8.440 -0.0753 -0.1162 -0.0558
  536loPI   C3B 8575   0.645   2.213   8.157 -0.2196 -0.0706 -0.1515
  536loPI   C4B 8576   0.349   2.280   7.896  0.0594 -0.2528 -0.1954
  537loPI    C1 8577   9.831  13.753  10.820 -0.0754  0.0938 -0.0393
  537loPI    C2 8578   9.822  13.645  11.206 -0.0426  0.1680 -0.0178
  537loPI    C3 8579   9.507  13.830  11.042 -0.0418  0.1706 -0.0164
  537loPI   PO4 8580   9.917  13.551  10.705 -0.1912  0.2936  0.2296
  537loPI   GL1 8581   9.983  13.220  10.332  0.1977  0.2187 -0.1315
  537loPI   GL2 8582  10.245  12.976  10.309 -0.1697 -0.1346  0.1169
  537loPI   C1A 8583  10.012  13.440   9.894  0.2816  0.3011  0.0045
  537loPI   C2A 8584  10.023  13.607   9.455 -0.3808  0.2422 -0.0244
  537loPI   C3A 8585  10.180  13.802   9.113 -0.0981 -0.0928 -0.3697
  537loPI   C4A 8586  10.083  13.827   8.736 -0.1789 -0.0257 -0.2466
  537loPI   C5A 8587  10.338  14.077   8.370  0.0292  0.2850  0.0686
  537loPI   C6A 8588  10.602  14.196   8.048  0.0951  0.0040 -0.3219
  537loPI   C1B 8589  10.318  12.812   9.949  0.3114  0.4474 -0.2207
  537loPI   C2B 8590  10.297  12.594   9.578 -0.0538  0.1565 -0.0004
  537loPI   C3B 8591  10.363  12.717   9.202 -0.0005  0.1294  0.0283
  537loPI   C4B 8592  10.393  12.540   8.829 -0.0549 -0.1876 -0.1877
  538loPI    C1 8593   4.834  11.391  10.600 -0.0782  0.0690  0.1524
  538loPI    C2 8594   4.856  11.012  10.725  0.1356  0.0165 -0.0379
  538loPI    C3 8595   4.820  11.309  10.991 -0.1225 -0.1409  0.1078
  538loPI   PO4 8596   5.000  11.387  10.374 -0.1046 -0.0986  0.0732
  538loPI   GL1 8597   4.982  11.495   9.960 -0.1198 -0.1945 -0.0608
  538loPI   GL2 8598   5.109  11.153   9.918  0.1202 -0.2015  0.0490
  538loPI   C1A 8599   4.917  11.447   9.526  0.1408  0.1161 -0.0107
  538loPI   C2A 8600   4.991  11.515   9.097  0.2671  0.1218  0.0029
  538loPI   C3A 8601   5.035  11.471   8.670  0.0969  0.2804 -0.0694
  538loPI   C4A 8602   5.003  11.515   8.306  0.0771  0.3780  0.0830
  538loPI   C5A 8603   4.711  11.375   8.020  0.1992 -0.4364 -0.0556
  538loPI   C6A 8604   4.497  11.188   7.679 -0.1373 -0.5795  0.1105
  538loPI   C1B 8605   5.326  11.179   9.647  0.0123 -0.1515 -0.2719
  538loPI   C2B 8606   5.284  11.079   9.271  0.3370  0.1769  0.0023
  538loPI   C3B 8607   5.113  10.980   8.830  0.0007 -0.4002 -0.1357
  538loPI   C4B 8608   5.007  10.951   8.380  0.0247  0.0663  0.3371
  539loPI    C1 8609   8.384   1.620  10.530 -0.0124  0.0134  0.1328
  539loPI    C2 8610   8.080   1.668  10.785 -0.0925  0.0773  0.0262
  539loPI    C3 8611   8.094   1.345  10.550 -0.1894  0.1767 -0.1181
  539loPI   PO4 8612   8.449   1.761  10.364 -0.0970 -0.0395 -0.2908
  539loPI   GL1 8613   8.679   1.752   9.990 -0.0828  0.0275  0.4039
  539loPI   GL2 8614   8.665   1.399   9.840 -0.0202 -0.2951  0.1077
  539loPI   C1A 8615   8.575   1.771   9.541 -0.0262 -0.0969  0.0196
  539loPI   C2A 8616   8.693   1.650   9.171  0.0921  0.1651 -0.4453
  539loPI   C3A 8617   8.760   1.662   8.738 -0.0946  0.0455 -0.1812
  539loPI   C4A 8618   8.999   1.827   8.406  0.2197 -0.0944 -0.0551
  539loPI   C5A 8619   9.170   2.149   7.994  0.0325 -0.1340 -0.2147
  539loPI   C6A 8620   9.169   2.523   8.079  0.0519 -0.2318  0.2171
  539loPI   C1B 8621   8.713   1.216   9.503  0.0789  0.0582 -0.1078
  539loPI   C2B 8622   8.682   1.135   9.140 -0.1135 -0.0688 -0.0129
  539loPI   C3B 8623   8.748   1.084   8.743  0.0265 -0.0844  0.0130
  539loPI   C4B 8624   8.752   0.797   8.312 -0.1502 -0.1291 -0.2891
  540loPI    C1 8625   9.560   5.607  10.546 -0.0125  0.2808  0.1648
  540loPI    C2 8626   9.319   5.288  10.549  0.1178  0.1723 -0.2560
  540loPI    C3 8627   9.485   5.416  10.889 -0.1244 -0.0620 -0.0453
  540loPI   PO4 8628   9.606   5.699  10.368 -0.2117 -0.0161 -0.2865
  540loPI   GL1 8629   9.770   5.933   9.943  0.1545 -0.1884  0.0143
  540loPI   GL2 8630   9.479   5.818   9.778 -0.1285  0.0338 -0.3182
  540loPI   C1A 8631   9.868   5.912   9.522  0.1353 -0.1841  0.0576
  540loPI   C2A 8632   9.856   5.758   9.115 -0.6881 -0.0578 -0.0425
  540loPI   C3A 8633   9.971   5.636   8.722 -0.0316  0.1881  0.0938
  540loPI   C4A 8634  10.235   5.709   8.371 -0.1620  0.0429 -0.0630
  540loPI   C5A 8635  10.284   5.693   7.916 -0.2139  0.1210 -0.3609
  540loPI   C6A 8636  10.513   5.796   7.544 -0.0751  0.0013  0.0178
  540loPI   C1B 8637   9.416   5.779   9.340 -0.0095 -0.3850  0.1227
  540loPI   C2B 8638   9.427   5.786   8.873  0.1238  0.0515  0.0041
  540loPI   C3B 8639   9.355   5.760   8.447 -0.4307  0.2299  0.2255
  540loPI   C4B 8640   9.566   5.670   8.151 -0.2993 -0.3584 -0.1813
  541POPI    C1 8641   0.440  14.737  10.100  0.0316 -0.0304  0.0379
  541POPI    C2 8642   0.638  14.872  10.420  0.0648 -0.1234  0.0566
  541POPI    C3 8643   0.820  14.626  10.161  0.0533 -0.0107 -0.0589
  541POPI   PO4 8644   0.385  14.935   9.971  0.1713 -0.3447  0.0944
  541POPI   GL1 8645   0.414  15.055   9.627 -0.0888 -0.2679  0.1460
  541POPI   GL2 8646   0.751  15.156   9.649  0.0368 -0.0517  0.2590
  541POPI   C1A 8647   0.435  14.739   9.309  0.4651  0.1729 -0.1239
  541POPI   D2A 8648   0.645  14.615   8.877 -0.0014  0.0512 -0.1332
  541POPI   C3A 8649   0.461  14.556   8.468 -0.1543 -0.1602  0.2755
  541POPI   C4A 8650   0.040  14.689   8.360  0.1325 -0.1454 -0.0264
  541POPI   C1B 8651   0.730  15.142   9.240 -0.2074  0.5088 -0.2268
  541POPI   C2B 8652   0.682  15.152   8.800  0.0164  0.2671 -0.0479
  541POPI   C3B 8653   0.509  15.049   8.326 -0.5969 -0.0870  0.0392
  541POPI   C4B 8654   0.545  14.902   7.962 -0.0979  0.0030  0.0927
  542POPI    C1 8655  18.189  10.989  10.084 -0.0169  0.0014  0.0233
  542POPI    C2 8656  18.144  11.275  10.359 -0.1552  0.0859 -0.0857
  542POPI    C3 8657  18.300  10.921  10.462 -0.0763  0.1650  0.0706
  542POPI   PO4 8658  18.288  11.116   9.843 -0.1244  0.2195  0.0173
  542POPI   GL1 8659  18.246  11.003   9.445  0.0503 -0.0877 -0.1050
  542POPI   GL2 8660  18.372  11.459   9.453 -0.1509 -0.0787  0.0337
  542POPI   C1A 8661  18.503  10.944   9.097  0.0889 -0.2471 -0.0392
  542POPI   D2A 8662  18.398  11.037   8.685 -0.0048 -0.2240  0.0860
  542POPI   C3A 8663  18.621  10.971   8.207  0.0338  0.0860 -0.4357
  542POPI   C4A 8664  18.523  10.796   7.815 -0.4672  0.2071  0.1657
  542POPI   C1B 8665  18.132  11.374   9.079 -0.1312  0.2228  0.1315
  542POPI   C2B 8666  18.011  11.451   8.719 -0.3548  0.0649  0.0792
  542POPI   C3B 8667  17.720  11.585   8.412 -0.4162  0.1837 -0.1839
  542POPI   C4B 8668  17.521  11.854   8.141  0.0281  0.1818  0.0527
  543POPI    C1 8669  13.872  12.562  10.384 -0.1014  0.2512  0.1242
  543POPI    C2 8670  14.148  12.677  10.649 -0.0705 -0.0240  0.2149
  543POPI    C3 8671  13.760  12.734  10.727 -0.0533  0.0734  0.2308
  543POPI   PO4 8672  13.861  12.605  10.153 -0.1920  0.0981 -0.2361
  543POPI   GL1 8673  13.610  12.891   9.839 -0.1941  0.0844 -0.0764
  543POPI   GL2 8674  13.282  13.072   9.822  0.0606  0.0253 -0.1172
  543POPI   C1A 8675  13.688  13.332   9.691  0.0618 -0.2408  0.3950
  543POPI   D2A 8676  13.617  13.683   9.530 -0.0838  0.1410  0.2343
  543POPI   C3A 8677  13.402  13.866   9.230 -0.0382 -0.2824  0.0493
  543POPI   C4A 8678  13.207  14.070   9.044  0.2984 -0.2098  0.0304
  543POPI   C1B 8679  13.473  13.026   9.368 -0.0824  0.2204  0.0108
  543POPI   C2B 8680  13.635  13.208   9.005  0.1164 -0.0286  0.0904
  543POPI   C3B 8681  13.912  13.036   8.694  0.2898  0.1923  0.2753
  543POPI   C4B 8682  14.273  13.045   8.383 -0.0165  0.1280 -0.3981
  544POPI    C1 8683   7.579  18.506  10.433 -0.0482  0.3361 -0.1735
  544POPI    C2 8684   7.350  18.764  10.635 -0.1166 -0.0754  0.2927
  544POPI    C3 8685   7.585  18.507  10.833  0.1023 -0.2379 -0.1653
  544POPI   PO4 8686   7.566  18.688  10.166 -0.1190 -0.2799  0.0997
  544POPI   GL1 8687   7.704  18.659   9.821 -0.1934 -0.0323  0.0996
  544POPI   GL2 8688   7.760  18.334   9.781  0.4145 -0.1009 -0.2834
  544POPI   C1A 8689   7.706  18.750   9.505  0.2489  0.4312 -0.2772
  544POPI   D2A 8690   7.546  18.787   9.053  0.0793 -0.0172 -0.0687
  544POPI   C3A 8691   7.203  18.473   8.969  0.1650 -0.3797 -0.2861
  544POPI   C4A 8692   6.857  18.171   8.868  0.1142 -0.2388 -0.0545
  544POPI   C1B 8693   7.917  17.989   9.367 -0.0436  0.0375 -0.1415
  544POPI   C2B 8694   7.929  17.626   9.110 -0.0990 -0.0177  0.0715
  544POPI   C3B 8695   7.633  17.455   8.860 -0.0730 -0.0212  0.0262
  544POPI   C4B 8696   7.414  17.137   8.690  0.1206  0.3981 -0.2081
  545POPI    C1 8697  16.453  18.411  10.556 -0.0453 -0.0397 -0.1987
  545POPI    C2 8698  16.744  18.137  10.572  0.0561  0.0772  0.0012
  545POPI    C3 8699  16.383  18.055  10.723 -0.0130 -0.0635 -0.2356
  545POPI   PO4 8700  16.521  18.508  10.351  0.0719 -0.2095 -0.3949
  545POPI   GL1 8701  16.447  18.455   9.839 -0.1239 -0.0124  0.1163
  545POPI   GL2 8702  16.464  18.678   9.651  0.1378  0.0697  0.0711
  545POPI   C1A 8703  16.173  18.169   9.683  0.0624  0.0310 -0.3044
  545POPI   D2A 8704  16.168  17.670   9.602 -0.2602 -0.0797  0.1335
  545POPI   C3A 8705  16.255  17.564   9.155 -0.3380  0.0118  0.5162
  545POPI   C4A 8706  16.167  17.823   8.891  0.0802 -0.0578 -0.0352
  545POPI   C1B 8707  16.556  18.697   9.183  0.0069 -0.3508 -0.2276
  545POPI   C2B 8708  16.870  18.878   9.123 -0.0496  0.1118 -0.1395
  545POPI   C3B 8709  16.884  19.124   8.834 -0.1761  0.0562  0.0686
  545POPI   C4B 8710  16.616  19.232   8.511  0.1509  0.1646  0.0595
  546POPI    C1 8711   1.493  10.814  10.383  0.0533 -0.0213  0.0969
  546POPI    C2 8712   1.389  10.483  10.581  0.1438 -0.1662 -0.0943
  546POPI    C3 8713   1.246  10.838  10.696 -0.0749 -0.2888  0.0194
  546POPI   PO4 8714   1.512  10.715  10.158 -0.0558 -0.0848  0.1264
  546POPI   GL1 8715   1.231  10.568   9.818  0.0161 -0.1065 -0.1688
  546POPI   GL2 8716   1.082  10.693   9.798  0.1375 -0.1820 -0.0414
  546POPI   C1A 8717   1.420  10.446   9.454 -0.0284 -0.1939  0.0739
  546POPI   D2A 8718   1.521  10.253   9.085  0.3948 -0.0428  0.0691
  546POPI   C3A 8719   1.658  10.103   8.626 -0.1084 -0.0748 -0.2415
  546POPI   C4A 8720   1.746  10.418   8.270 -0.0732 -0.0348 -0.0106
  546POPI   C1B 8721   0.995  10.652   9.276  0.1976 -0.0566 -0.2397
  546POPI   C2B 8722   0.967  10.722   8.873 -0.0994 -0.4163  0.0877
  546POPI   C3B 8723   0.936  10.884   8.429 -0.2035 -0.0653  0.2285
  546POPI   C4B 8724   0.894  11.046   8.144  0.0737  0.1144 -0.0890
  547POPI    C1 8725  13.548   9.156  10.691  0.2134  0.1460 -0.1620
  547POPI    C2 8726  13.202   9.354  10.726  0.1407  0.0317 -0.2279
  547POPI    C3 8727  13.457   9.341  11.034  0.0509  0.0502 -0.1524
  547POPI   PO4 8728  13.576   9.189  10.401  0.1340 -0.0005 -0.1577
  547POPI   GL1 8729  13.257   9.397  10.253 -0.1122 -0.3877  0.3485
  547POPI   GL2 8730  12.892   9.506  10.248 -0.1012 -0.1721  0.1299
  547POPI   C1A 8731  13.446   9.494   9.851 -0.0274  0.2011 -0.3134
  547POPI   D2A 8732  13.511   9.424   9.476  0.0537 -0.0601 -0.1214
  547POPI   C3A 8733  13.406   9.381   9.057 -0.0665  0.2531  0.1608
  547POPI   C4A 8734  13.342   9.224   8.607  0.1242  0.0204  0.1075
  547POPI   C1B 8735  12.940   9.544   9.892 -0.1177 -0.0803  0.0967
  547POPI   C2B 8736  13.027   9.405   9.499  0.1429  0.2218 -0.0926
  547POPI   C3B 8737  12.900   9.325   9.042  0.2839  0.0847 -0.1762
  547POPI   C4B 8738  12.799   9.286   8.620 -0.1934 -0.0411  0.0821
  548POPI    C1 8739   6.871  10.684  10.646  0.0957  0.0182 -0.1344
  548POPI    C2 8740   7.103  10.820  10.349  0.0932  0.1742 -0.0656
  548POPI    C3 8741   7.260  10.755  10.712  0.1383 -0.1953 -0.1477
  548POPI   PO4 8742   6.582  10.715  10.409 -0.1155 -0.3157 -0.0870
  548POPI   GL1 8743   6.775  10.714   9.906 -0.1193 -0.2138 -0.3676
  548POPI   GL2 8744   6.916  10.415   9.805 -0.0420  0.0407 -0.1022
  548POPI   C1A 8745   6.827  10.780   9.455  0.1611 -0.0400  0.1316
  548POPI   D2A 8746   6.682  10.722   9.056  0.2315  0.2075 -0.0275
  548POPI   C3A 8747   6.553  10.518   8.763 -0.2337  0.4204 -0.0875
  548POPI   C4A 8748   6.608  10.529   8.299  0.2438  0.2053 -0.1553
  548POPI   C1B 8749   6.851  10.222   9.391  0.1653 -0.1029 -0.2059
  548POPI   C2B 8750   6.929  10.296   8.967  0.0322  0.0372  0.0396
  548POPI   C3B 8751   7.029  10.537   8.581  0.3114  0.1021 -0.3036
  548POPI   C4B 8752   7.252  10.489   8.322 -0.1873 -0.2606 -0.1511
  549POPI    C1 8753  17.586   3.903  10.013  0.1432 -0.0641  0.1172
  549POPI    C2 8754  17.234   4.090  10.047  0.1922  0.0557 -0.0263
  549POPI    C3 8755  17.379   3.880  10.355 -0.0105 -0.0049  0.0291
  549POPI   PO4 8756  17.624   3.940   9.734  0.0297  0.0336 -0.1323
  549POPI   GL1 8757  17.295   3.954   9.494  0.0098  0.0266  0.1400
  549POPI   GL2 8758  17.036   3.715   9.416  0.0622  0.2094  0.3522
  549POPI   C1A 8759  17.431   4.021   9.062 -0.1916 -0.2719  0.1017
  549POPI   D2A 8760  17.385   3.911   8.579 -0.1776 -0.1085  0.1731
  549POPI   C3A 8761  17.696   4.122   8.131  0.1431  0.0978 -0.0558
  549POPI   C4A 8762  18.071   4.340   8.219 -0.0513  0.1950  0.0450
  549POPI   C1B 8763  17.029   3.775   8.968 -0.1170 -0.0111  0.0853
  549POPI   C2B 8764  16.905   3.689   8.577  0.0440  0.2589 -0.0517
  549POPI   C3B 8765  16.688   3.403   8.235 -0.0007  0.0616  0.0705
  549POPI   C4B 8766  16.845   3.428   7.800  0.1928 -0.0164 -0.0786
  550POPI    C1 8767  14.079   3.972  11.064  0.1097 -0.1654  0.0394
  550POPI    C2 8768  13.728   3.794  10.992 -0.0920  0.3761 -0.3885
  550POPI    C3 8769  13.749   4.096  11.253  0.2346 -0.1967  0.2823
  550POPI   PO4 8770  14.123   4.010  10.734  0.0853 -0.0557 -0.0208
  550POPI   GL1 8771  13.858   4.117  10.355 -0.1084  0.1968  0.0243
  550POPI   GL2 8772  13.715   3.875  10.476  0.1630 -0.0630 -0.0848
  550POPI   C1A 8773  13.829   4.353  10.008 -0.2776  0.0742 -0.0185
  550POPI   D2A 8774  13.608   4.771   9.959 -0.0432  0.0804  0.1994
  550POPI   C3A 8775  13.771   4.968   9.469  0.1816  0.2352 -0.0687
  550POPI   C4A 8776  13.741   5.265   9.130 -0.0905 -0.0854 -0.0274
  550POPI   C1B 8777  13.292   3.923  10.352 -0.1925  0.1331 -0.1336
  550POPI   C2B 8778  13.019   3.980   9.935  0.2021 -0.1703 -0.0831
  550POPI   C3B 8779  12.990   4.172   9.633 -0.1110 -0.0050 -0.1282
  550POPI   C4B 8780  12.993   4.181   9.277  0.0181 -0.1380 -0.1052
  551POPI    C1 8781  17.749  10.708  10.405  0.0260 -0.2744  0.1069
  551POPI    C2 8782  17.477  10.773  10.691 -0.1253  0.1874 -0.1310
  551POPI    C3 8783  17.855  10.890  10.745 -0.0508 -0.1258  0.0524
  551POPI   PO4 8784  17.663  10.784  10.141  0.1149 -0.0874  0.1029
  551POPI   GL1 8785  17.830  10.840   9.721  0.1920 -0.0724 -0.2051
  551POPI   GL2 8786  18.130  10.590   9.740  0.2087 -0.1929 -0.3469
  551POPI   C1A 8787  17.781  11.111   9.356  0.2675 -0.2285  0.0154
  551POPI   D2A 8788  17.536  11.126   9.036 -0.0049  0.0192  0.0653
  551POPI   C3A 8789  17.402  11.203   8.677  0.0915 -0.1256  0.2298
  551POPI   C4A 8790  17.325  11.424   8.260  0.1858 -0.0720  0.3145
  551POPI   C1B 8791  18.069  10.587   9.221  0.1475 -0.0532 -0.0485
  551POPI   C2B 8792  17.993  10.816   8.926 -0.1445 -0.2533  0.4705
  551POPI   C3B 8793  17.884  11.011   8.584  0.1729  0.2469  0.3532
  551POPI   C4B 8794  17.977  11.180   8.187  0.2239 -0.0866 -0.1502
  552POPI    C1 8795  15.327  13.031  10.490 -0.1282 -0.2172 -0.2198
  552POPI    C2 8796  15.144  12.811  10.769 -0.1201 -0.0709 -0.0977
  552POPI    C3 8797  14.949  13.113  10.594  0.0321  0.1452  0.0999
  552POPI   PO4 8798  15.525  12.852  10.318  0.0256 -0.2330 -0.1936
  552POPI   GL1 8799  15.629  12.852   9.877  0.2543  0.2066  0.2307
  552POPI   GL2 8800  15.938  12.949   9.830 -0.0862  0.3686 -0.2447
  552POPI   C1A 8801  15.461  12.813   9.515 -0.1809  0.0396  0.0284
  552POPI   D2A 8802  15.599  12.666   9.055 -0.2245  0.1975  0.0485
  552POPI   C3A 8803  16.067  12.696   8.973  0.1079  0.0347 -0.3216
  552POPI   C4A 8804  16.423  12.650   9.188  0.1564  0.1092 -0.5151
  552POPI   C1B 8805  16.053  12.690   9.502  0.2377  0.0177  0.3081
  552POPI   C2B 8806  16.109  12.311   9.308  0.1950 -0.0007  0.1779
  552POPI   C3B 8807  15.941  12.108   8.993 -0.0655 -0.5903  0.1129
  552POPI   C4B 8808  15.888  11.942   8.538 -0.1470  0.2234  0.0133
  553POPI    C1 8809  14.668  12.561  10.523 -0.1816  0.0735 -0.0170
  553POPI    C2 8810  14.645  12.758  10.871 -0.0195  0.2683 -0.1139
  553POPI    C3 8811  14.611  12.359  10.864  0.2138  0.2408  0.1547
  553POPI   PO4 8812  14.874  12.677  10.396  0.0706  0.0597 -0.1180
  553POPI   GL1 8813  14.809  12.641   9.882 -0.0474  0.1867  0.0977
  553POPI   GL2 8814  14.557  12.298   9.750 -0.1577  0.0280 -0.0500
  553POPI   C1A 8815  14.876  12.878   9.512  0.2940  0.3077  0.1439
  553POPI   D2A 8816  14.636  13.202   9.356  0.2772 -0.0268  0.1061
  553POPI   C3A 8817  14.800  13.384   8.957  0.1347 -0.0958 -0.1975
  553POPI   C4A 8818  14.656  13.424   8.617 -0.0130 -0.2667  0.2088
  553POPI   C1B 8819  14.446  12.069   9.418  0.1713  0.1168 -0.2220
  553POPI   C2B 8820  14.342  12.151   8.988  0.0416  0.3632 -0.2126
  553POPI   C3B 8821  14.455  11.937   8.656  0.3100  0.0494  0.0587
  553POPI   C4B 8822  14.623  11.964   8.270 -0.0747  0.2702  0.0397
  554POPI    C1 8823   6.952  16.232  10.779  0.2789  0.1168 -0.0408
  554POPI    C2 8824   7.014  15.838  10.807 -0.0659  0.0609 -0.0224
  554POPI    C3 8825   6.858  16.039  11.116  0.1414  0.2198 -0.0190
  554POPI   PO4 8826   6.817  16.285  10.491 -0.1512 -0.1081 -0.3029
  554POPI   GL1 8827   6.694  16.111  10.038 -0.1180  0.1280  0.2328
  554POPI   GL2 8828   6.576  16.392   9.971  0.2697  0.1787 -0.3520
  554POPI   C1A 8829   6.740  15.809   9.683 -0.1397 -0.1261 -0.1399
  554POPI   D2A 8830   6.741  15.748   9.250 -0.1401  0.1253  0.3311
  554POPI   C3A 8831   6.754  15.899   8.842 -0.0724 -0.2996 -0.2513
  554POPI   C4A 8832   6.707  15.943   8.343 -0.2868  0.0114 -0.1689
  554POPI   C1B 8833   6.492  16.411   9.573  0.0331  0.1500  0.2579
  554POPI   C2B 8834   6.455  16.385   9.183 -0.1900  0.0832 -0.0881
  554POPI   C3B 8835   6.366  16.254   8.742 -0.0785 -0.2743 -0.0596
  554POPI   C4B 8836   6.280  16.355   8.328 -0.2831 -0.0538  0.1305
  555POPI    C1 8837  17.914   5.795   9.785  0.2960  0.0980 -0.0040
  555POPI    C2 8838  17.765   5.844   9.417  0.1074  0.1215  0.0742
  555POPI    C3 8839  17.640   6.078   9.716  0.0681 -0.0669  0.2068
  555POPI   PO4 8840  18.048   5.602   9.749  0.2556 -0.1772  0.3223
  555POPI   GL1 8841  18.133   5.480   9.426 -0.1443  0.0691  0.1262
  555POPI   GL2 8842  18.062   5.261   9.344  0.0767  0.2366  0.0948
  555POPI   C1A 8843  18.122   5.689   9.096  0.2219 -0.4829  0.1259
  555POPI   D2A 8844  18.186   5.937   8.743 -0.6140  0.0578 -0.0882
  555POPI   C3A 8845  18.082   6.388   8.714 -0.0189 -0.0944  0.1646
  555POPI   C4A 8846  18.049   6.743   8.485  0.3695 -0.0094 -0.0283
  555POPI   C1B 8847  18.047   5.235   9.000 -0.0971 -0.0070  0.0412
  555POPI   C2B 8848  18.143   5.358   8.628  0.1385 -0.0375 -0.0684
  555POPI   C3B 8849  17.988   5.243   8.163 -0.2805 -0.0952 -0.0268
  555POPI   C4B 8850  17.868   5.525   7.951  0.0305 -0.2625 -0.3012
  556POPI    C1 8851  16.707   9.646  10.320  0.1234  0.1201 -0.0187
  556POPI    C2 8852  16.350   9.495  10.418  0.0511  0.1699 -0.2006
  556POPI    C3 8853  16.592   9.637  10.703 -0.1030  0.2001 -0.0833
  556POPI   PO4 8854  16.679   9.721  10.116 -0.0498 -0.1293 -0.1069
  556POPI   GL1 8855  16.646   9.694   9.685  0.0180  0.0269  0.1251
  556POPI   GL2 8856  16.987   9.794   9.488  0.0112 -0.0775  0.2010
  556POPI   C1A 8857  16.550   9.415   9.328  0.0942 -0.0976  0.1254
  556POPI   D2A 8858  16.495   9.422   8.904  0.2015  0.1603 -0.2397
  556POPI   C3A 8859  16.494   9.342   8.502  0.0118  0.0386 -0.0079
  556POPI   C4A 8860  16.403   9.292   8.172  0.1092  0.0916  0.0111
  556POPI   C1B 8861  16.822   9.789   9.029  0.1594  0.2777 -0.0647
  556POPI   C2B 8862  16.758   9.833   8.617 -0.1182  0.1331 -0.2414
  556POPI   C3B 8863  16.694   9.825   8.150 -0.2264  0.0105  0.0814
  556POPI   C4B 8864  16.889   9.880   7.740  0.2455 -0.0419  0.0420
  557POPI    C1 8865  16.412   6.032  10.305  0.0311 -0.1276 -0.0851
  557POPI    C2 8866  16.747   6.005  10.523 -0.0160  0.2611  0.0431
  557POPI    C3 8867  16.396   5.892  10.680  0.0040  0.1847  0.0330
  557POPI   PO4 8868  16.453   6.078  10.024 -0.6209 -0.2796  0.1065
  557POPI   GL1 8869  16.305   6.005   9.629  0.1129 -0.0573  0.0123
  557POPI   GL2 8870  16.196   6.304   9.551  0.0012  0.1210 -0.0109
  557POPI   C1A 8871  16.523   6.013   9.165 -0.0221 -0.0122  0.1150
  557POPI   D2A 8872  16.575   6.025   8.755  0.1405  0.1089  0.1550
  557POPI   C3A 8873  16.280   5.832   8.449  0.1218  0.1734  0.1057
  557POPI   C4A 8874  16.251   5.786   8.095  0.0185  0.1507  0.1107
  557POPI   C1B 8875  16.148   6.382   9.178  0.1415  0.0034 -0.1246
  557POPI   C2B 8876  16.273   6.387   8.751  0.3730  0.0393  0.1300
  557POPI   C3B 8877  16.220   6.317   8.414 -0.2791 -0.2435  0.0678
  557POPI   C4B 8878  16.011   6.209   8.066  0.2224 -0.1516  0.2276
  558POPI    C1 8879   7.734  11.644  10.346 -0.2503 -0.0699  0.0166
  558POPI    C2 8880   7.950  11.328  10.461 -0.1075 -0.0266 -0.1287
  558POPI    C3 8881   7.709  11.510  10.722  0.1569  0.0267  0.0837
  558POPI   PO4 8882   7.697  11.524  10.089  0.1791  0.1781  0.2188
  558POPI   GL1 8883   7.582  11.563   9.637 -0.1304  0.0711  0.2056
  558POPI   GL2 8884   7.754  11.769   9.709 -0.2775 -0.0305  0.0278
  558POPI   C1A 8885   7.759  11.390   9.193 -0.3218  0.2900  0.0990
  558POPI   D2A 8886   7.830  11.244   8.774  0.2292 -0.0374 -0.0640
  558POPI   C3A 8887   7.813  11.295   8.300  0.1039  0.2818 -0.0814
  558POPI   C4A 8888   7.979  10.964   8.143  0.1140 -0.1195 -0.2497
  558POPI   C1B 8889   7.701  11.913   9.277  0.2560 -0.0637 -0.2589
  558POPI   C2B 8890   7.926  12.184   8.900 -0.0954  0.1747  0.0652
  558POPI   C3B 8891   8.119  12.386   8.553 -0.1268 -0.1135  0.0506
  558POPI   C4B 8892   8.436  12.396   8.312 -0.1720  0.1917  0.1083
  559POPI    C1 8893   0.649   0.955  10.119 -0.0507  0.1766 -0.0925
  559POPI    C2 8894   0.896   1.059  10.416  0.0088 -0.0628 -0.0558
  559POPI    C3 8895   0.509   0.989  10.492 -0.0055  0.0108 -0.0596
  559POPI   PO4 8896   0.874   0.801   9.930  0.0809  0.2077 -0.0086
  559POPI   GL1 8897   0.866   0.537   9.527 -0.2195 -0.2925 -0.0637
  559POPI   GL2 8898   1.050   0.344   9.765 -0.0078 -0.1401  0.1081
  559POPI   C1A 8899   0.814   0.778   9.225 -0.1132 -0.0971  0.3556
  559POPI   D2A 8900   0.779   0.471   8.946 -0.1407  0.0463 -0.0770
  559POPI   C3A 8901   0.761   0.570   8.504 -0.1238  0.1038 -0.0315
  559POPI   C4A 8902   0.839   0.500   8.061 -0.0441 -0.1027 -0.0593
  559POPI   C1B 8903   1.119   0.117   9.371  0.2561  0.0250 -0.0601
  559POPI   C2B 8904   1.075   0.054   8.972 -0.0499  0.1700  0.2451
  559POPI   C3B 8905   0.924  -0.240   8.640 -0.1171  0.0848  0.4751
  559POPI   C4B 8906   0.608  -0.466   8.760  0.0094 -0.2586  0.0310
  560POPI    C1 8907   2.641  13.213  10.251 -0.0163 -0.1686 -0.0215
  560POPI    C2 8908   2.713  12.941  10.536  0.1366 -0.1234 -0.0160
  560POPI    C3 8909   2.564  13.300  10.634  0.0124 -0.1748 -0.0144
  560POPI   PO4 8910   2.520  13.091  10.089  0.2153  0.2993 -0.1754
  560POPI   GL1 8911   2.441  13.078   9.643 -0.0862  0.1945  0.1222
  560POPI   GL2 8912   2.220  13.307   9.733  0.0011  0.2200  0.4144
  560POPI   C1A 8913   2.236  13.216   9.226  0.1124  0.1040  0.0192
  560POPI   D2A 8914   1.923  13.372   8.950 -0.0880  0.4634  0.1322
  560POPI   C3A 8915   1.619  13.523   8.690 -0.3591 -0.0686  0.1854
  560POPI   C4A 8916   1.149  13.830   8.581  0.0203 -0.1207  0.2991
  560POPI   C1B 8917   2.416  13.650   9.467 -0.0150  0.1375 -0.2210
  560POPI   C2B 8918   2.424  13.990   9.075 -0.0204  0.1683  0.0415
  560POPI   C3B 8919   2.674  14.234   8.897  0.2555 -0.1716  0.0433
  560POPI   C4B 8920   3.056  14.134   8.611  0.0983  0.1567  0.2356
  561POPI    C1 8921   7.687  15.886  10.708  0.1317  0.1671 -0.0977
  561POPI    C2 8922   7.438  16.102  10.934 -0.0691  0.0755 -0.2283
  561POPI    C3 8923   7.461  15.705  10.984  0.1247  0.0954 -0.1499
  561POPI   PO4 8924   7.610  15.994  10.457 -0.0524  0.0395 -0.0898
  561POPI   GL1 8925   7.538  16.078  10.038 -0.0842  0.0460 -0.2345
  561POPI   GL2 8926   7.862  16.313  10.055 -0.0317  0.1670 -0.0614
  561POPI   C1A 8927   7.274  15.829   9.777 -0.1031 -0.1163  0.0467
  561POPI   D2A 8928   7.358  15.713   9.394  0.0217  0.0672  0.3138
  561POPI   C3A 8929   7.227  15.812   8.977 -0.1380  0.2769 -0.0559
  561POPI   C4A 8930   7.246  16.015   8.609  0.3764  0.0718 -0.0105
  561POPI   C1B 8931   8.118  16.325   9.648  0.0204  0.1423  0.0835
  561POPI   C2B 8932   8.200  16.108   9.213 -0.2427 -0.1195 -0.2205
  561POPI   C3B 8933   8.430  16.282   8.840 -0.0820  0.0268 -0.2158
  561POPI   C4B 8934   8.687  15.945   8.564  0.0055  0.0453  0.3041
  562POPI    C1 8935   6.300   0.590  11.011  0.0933 -0.0976  0.1577
  562POPI    C2 8936   6.317   0.925  11.229  0.0055  0.1364 -0.1879
  562POPI    C3 8937   6.108   0.611  11.361  0.2059  0.1622  0.2061
  562POPI   PO4 8938   6.345   0.774  10.665 -0.1900  0.0865 -0.1415
  562POPI   GL1 8939   6.403   0.613  10.223 -0.1010  0.0069 -0.0391
  562POPI   GL2 8940   6.203   0.863  10.152 -0.3026  0.1581  0.0043
  562POPI   C1A 8941   6.747   0.582   9.885  0.0541 -0.4181 -0.0413
  562POPI   D2A 8942   7.043   0.839   9.535  0.1433  0.0750  0.3562
  562POPI   C3A 8943   7.335   1.161   9.488 -0.1459  0.2117  0.3370
  562POPI   C4A 8944   7.409   1.391   9.126  0.0749 -0.3501  0.2177
  562POPI   C1B 8945   6.542   1.024   9.773  0.0309  0.2779  0.0480
  562POPI   C2B 8946   6.513   1.061   9.386 -0.1016 -0.0150 -0.0593
  562POPI   C3B 8947   6.431   1.049   8.904 -0.2769  0.3121  0.1813
  562POPI   C4B 8948   6.654   1.048   8.499  0.0565 -0.0660  0.0041
  563POPI    C1 8949   5.500   8.994  10.378 -0.0784  0.0882 -0.0902
  563POPI    C2 8950   5.626   9.147  10.725 -0.0311 -0.0505 -0.0455
  563POPI    C3 8951   5.323   8.887  10.720 -0.0737  0.0002 -0.1152
  563POPI   PO4 8952   5.767   8.979  10.261 -0.3451  0.3276  0.0272
  563POPI   GL1 8953   5.924   9.186   9.801  0.0059 -0.2153  0.4436
  563POPI   GL2 8954   6.232   8.913   9.711  0.0374  0.2017 -0.0500
  563POPI   C1A 8955   5.874   9.216   9.255  0.0199 -0.3311  0.0723
  563POPI   D2A 8956   5.937   9.197   8.809  0.0478  0.2109  0.0126
  563POPI   C3A 8957   6.149   8.814   8.625  0.0738  0.2017  0.0684
  563POPI   C4A 8958   6.330   8.631   8.290 -0.0761 -0.0714 -0.1629
  563POPI   C1B 8959   5.858   8.676   9.486 -0.0472 -0.0138  0.0321
  563POPI   C2B 8960   5.430   8.460   9.488  0.0217  0.2226 -0.0436
  563POPI   C3B 8961   5.305   8.343   9.126  0.0432 -0.1311 -0.1910
  563POPI   C4B 8962   5.399   8.478   8.739  0.1863 -0.0711  0.2444
  564POPI    C1 8963  13.471  10.152  10.710  0.0246  0.1089 -0.0976
  564POPI    C2 8964  13.198  10.184  11.000  0.2107  0.0592  0.0852
  564POPI    C3 8965  13.391   9.838  10.945  0.2441  0.0972 -0.0367
  564POPI   PO4 8966  13.333  10.268  10.496  0.1338 -0.2685 -0.0410
  564POPI   GL1 8967  13.125  10.390  10.147  0.0663 -0.0983 -0.0921
  564POPI   GL2 8968  12.882  10.265  10.079  0.1933  0.0242 -0.1030
  564POPI   C1A 8969  13.031  10.688   9.915 -0.2255  0.0609 -0.1475
  564POPI   D2A 8970  13.157  10.683   9.485  0.0658  0.0148  0.2281
  564POPI   C3A 8971  13.165  10.618   9.101  0.1466 -0.0110  0.3555
  564POPI   C4A 8972  13.028  10.622   8.679 -0.1741 -0.2902  0.2129
  564POPI   C1B 8973  12.965  10.277   9.675 -0.0207 -0.0239 -0.1022
  564POPI   C2B 8974  12.911  10.245   9.266  0.1170  0.2793 -0.2602
  564POPI   C3B 8975  12.820  10.130   8.799  0.0342 -0.1022  0.0208
  564POPI   C4B 8976  12.748  10.295   8.426  0.0324  0.1666 -0.0758
  565POPI    C1 8977   1.417   0.565  10.410 -0.0326 -0.0688  0.0382
  565POPI    C2 8978   1.348   0.916  10.590  0.2984 -0.0040  0.0445
  565POPI    C3 8979   1.296   0.575  10.791 -0.0530  0.0371  0.0295
  565POPI   PO4 8980   1.332   0.627  10.163  0.5340  0.0037 -0.0363
  565POPI   GL1 8981   1.470   0.720   9.857  0.2774 -0.2051 -0.0095
  565POPI   GL2 8982   1.580   1.008   9.683 -0.1165 -0.0431 -0.0146
  565POPI   C1A 8983   1.408   0.626   9.448  0.1551 -0.1352 -0.2798
  565POPI   D2A 8984   1.277   0.541   9.119  0.1084  0.0596 -0.3005
  565POPI   C3A 8985   1.275   0.511   8.654  0.1583  0.1416 -0.2349
  565POPI   C4A 8986   1.091   0.143   8.320 -0.1232 -0.2490 -0.1644
  565POPI   C1B 8987   1.243   1.077   9.278 -0.1447  0.1083  0.0880
  565POPI   C2B 8988   1.266   0.965   8.881  0.3702  0.1537  0.0166
  565POPI   C3B 8989   1.155   0.895   8.407 -0.0784 -0.0175  0.0010
  565POPI   C4B 8990   1.311   0.646   8.101  0.1467 -0.2100  0.0035
  566POPI    C1 8991   8.730  14.111  10.329 -0.0548 -0.0941  0.0498
  566POPI    C2 8992   8.602  14.407  10.566 -0.0221  0.0403 -0.0987
  566POPI    C3 8993   8.990  14.311  10.558 -0.0074  0.1049 -0.1738
  566POPI   PO4 8994   8.585  14.153  10.089 -0.0507  0.0844 -0.3399
  566POPI   GL1 8995   8.655  14.297   9.762  0.1532  0.1621 -0.0181
  566POPI   GL2 8996   8.375  14.228   9.502  0.4170 -0.2130 -0.0585
  566POPI   C1A 8997   9.088  14.301   9.540  0.1981 -0.0079 -0.0233
  566POPI   D2A 8998   9.306  14.288   9.104  0.2052 -0.1679 -0.2318
  566POPI   C3A 8999   9.802  14.347   9.023  0.0209  0.0256 -0.1776
  566POPI   C4A 9000   9.873  14.683   8.651 -0.3367  0.1579  0.0916
  566POPI   C1B 9001   8.711  14.051   9.194  0.0263  0.2038  0.1600
  566POPI   C2B 9002   8.976  13.931   8.803 -0.0563  0.0477  0.1458
  566POPI   C3B 9003   9.029  13.750   8.445  0.0402  0.0308  0.0941
  566POPI   C4B 9004   9.030  13.458   8.223  0.0607 -0.0677 -0.1240
  567POPI    C1 9005  18.087  14.022  10.363 -0.1525  0.0358 -0.0508
  567POPI    C2 9006  18.149  14.306  10.639 -0.0021  0.0439 -0.0924
  567POPI    C3 9007  18.037  13.939  10.751  0.0503  0.0498 -0.0206
  567POPI   PO4 9008  18.128  14.182  10.148  0.4106  0.0359 -0.2232
  567POPI   GL1 9009  17.835  14.298   9.865 -0.0359 -0.3365 -0.0559
  567POPI   GL2 9010  18.152  14.472   9.770 -0.1159 -0.3157  0.2288
  567POPI   C1A 9011  17.752  14.484   9.452  0.2077 -0.0963 -0.0814
  567POPI   D2A 9012  17.659  14.534   9.002 -0.0811 -0.2714  0.1017
  567POPI   C3A 9013  17.313  14.677   8.823 -0.1034  0.2595 -0.2078
  567POPI   C4A 9014  17.140  15.043   8.726  0.0367  0.0463  0.1578
  567POPI   C1B 9015  18.227  14.380   9.316  0.1882 -0.1136 -0.2116
  567POPI   C2B 9016  18.294  14.285   8.878 -0.1582  0.1745  0.0659
  567POPI   C3B 9017  18.222  14.287   8.431 -0.1853  0.0079 -0.1053
  567POPI   C4B 9018  18.281  14.316   8.070 -0.3601  0.2153 -0.0740
  568POPI    C1 9019   7.555   9.980  10.080  0.0367 -0.0109 -0.0180
  568POPI    C2 9020   7.800  10.235  10.266 -0.1986  0.2120 -0.0079
  568POPI    C3 9021   7.701   9.889  10.442  0.1306  0.1039 -0.0265
  568POPI   PO4 9022   7.383  10.167   9.952  0.1761  0.2515  0.2434
  568POPI   GL1 9023   7.343  10.366   9.508 -0.1737 -0.1681 -0.0250
  568POPI   GL2 9024   7.416  10.649   9.596  0.1277 -0.0778 -0.1373
  568POPI   C1A 9025   7.411  10.170   9.175  0.2744 -0.1244  0.2730
  568POPI   D2A 9026   7.628  10.385   8.825  0.1425  0.0066 -0.0382
  568POPI   C3A 9027   7.552  10.762   8.594 -0.1451 -0.2056 -0.0792
  568POPI   C4A 9028   7.458  10.947   8.138 -0.0458  0.3006 -0.0026
  568POPI   C1B 9029   7.329  10.697   9.105 -0.0020 -0.1735 -0.0181
  568POPI   C2B 9030   7.158  11.034   8.843  0.0609  0.1965  0.3472
  568POPI   C3B 9031   7.313  11.317   8.540  0.1992 -0.1034  0.0346
  568POPI   C4B 9032   7.167  11.716   8.495 -0.2576  0.0922  0.0666
  569POPI    C1 9033   6.888  18.498  10.230  0.0092  0.0890  0.0006
  569POPI    C2 9034   6.581  18.424  10.475  0.0765 -0.0757  0.0362
  569POPI    C3 9035   6.545  18.700  10.189 -0.0067  0.1103  0.2235
  569POPI   PO4 9036   6.991  18.187  10.240 -0.1715 -0.0771 -0.1039
  569POPI   GL1 9037   7.311  18.088  10.054 -0.0512  0.2662  0.1199
  569POPI   GL2 9038   7.272  18.436   9.850  0.0310  0.0291 -0.0180
  569POPI   C1A 9039   7.159  17.892   9.683  0.0109 -0.0628  0.0510
  569POPI   D2A 9040   6.961  18.045   9.329 -0.0368  0.0560  0.0929
  569POPI   C3A 9041   6.802  18.552   9.214 -0.1118  0.0547  0.1427
  569POPI   C4A 9042   6.595  18.639   8.898 -0.0530 -0.1066 -0.0518
  569POPI   C1B 9043   7.469  18.307   9.388 -0.0681  0.1053 -0.1189
  569POPI   C2B 9044   7.606  18.127   8.988  0.3362  0.0057 -0.2627
  569POPI   C3B 9045   7.617  18.039   8.571 -0.1622 -0.2768  0.1698
  569POPI   C4B 9046   7.800  17.611   8.363  0.1795 -0.1341  0.0366
  570POPI    C1 9047   5.285  12.414  10.224 -0.1299 -0.1450  0.2309
  570POPI    C2 9048   4.971  12.367   9.981  0.0713  0.1050 -0.0871
  570POPI    C3 9049   4.927  12.557  10.330 -0.0957  0.2969 -0.2103
  570POPI   PO4 9050   5.465  12.306  10.057 -0.1255 -0.0109 -0.2139
  570POPI   GL1 9051   5.328  12.411   9.629  0.2347 -0.0192 -0.4384
  570POPI   GL2 9052   5.567  12.564   9.590 -0.5039 -0.2654  0.0352
  570POPI   C1A 9053   5.224  12.168   9.297  0.1217  0.1153  0.0436
  570POPI   D2A 9054   4.918  12.041   8.914  0.0423 -0.1642  0.2677
  570POPI   C3A 9055   5.123  12.040   8.408 -0.2852  0.0824  0.0691
  570POPI   C4A 9056   5.156  12.346   8.012 -0.0017 -0.0484  0.0046
  570POPI   C1B 9057   5.469  12.579   9.211 -0.1030  0.1422 -0.1495
  570POPI   C2B 9058   5.319  12.322   8.822 -0.0641 -0.1186 -0.0646
  570POPI   C3B 9059   5.340  11.846   8.826  0.1504  0.2068 -0.0721
  570POPI   C4B 9060   5.447  11.665   8.430  0.0508  0.2954 -0.1706
  571POPI    C1 9061  12.207   7.262  10.851  0.1165  0.0100 -0.0110
  571POPI    C2 9062  12.243   7.505  11.166 -0.2003 -0.1850  0.1821
  571POPI    C3 9063  12.397   7.136  11.180 -0.1001 -0.1485  0.0565
  571POPI   PO4 9064  12.211   7.532  10.585  0.0883 -0.1225 -0.1329
  571POPI   GL1 9065  12.255   7.460  10.176  0.0941 -0.2211 -0.0595
  571POPI   GL2 9066  11.962   7.368   9.833 -0.3196 -0.0006 -0.0130
  571POPI   C1A 9067  12.270   7.797   9.864 -0.0423  0.0049 -0.0618
  571POPI   D2A 9068  12.257   8.176   9.605 -0.0401  0.1823 -0.0740
  571POPI   C3A 9069  11.789   8.349   9.596 -0.1030  0.1977 -0.0661
  571POPI   C4A 9070  11.370   8.302   9.353  0.1891  0.2065 -0.4320
  571POPI   C1B 9071  12.250   7.275   9.575  0.1828  0.1168  0.1184
  571POPI   C2B 9072  12.215   7.295   9.144 -0.0270  0.0300 -0.0266
  571POPI   C3B 9073  12.359   7.422   8.743 -0.0279  0.1829 -0.1498
  571POPI   C4B 9074  12.542   7.687   8.441 -0.0552  0.0780 -0.1997
  572POPI    C1 9075  18.008   9.520  10.432 -0.0202  0.0741 -0.0530
  572POPI    C2 9076  18.013   9.919  10.459 -0.2471  0.0858 -0.1639
  572POPI    C3 9077  17.717   9.710  10.630  0.1413 -0.0744  0.3365
  572POPI   PO4 9078  18.017   9.516  10.204 -0.0219  0.4625  0.1254
  572POPI   GL1 9079  18.062   9.897   9.899 -0.0326  0.2318 -0.1179
  572POPI   GL2 9080  18.274  10.130   9.884  0.2292  0.0932 -0.0631
  572POPI   C1A 9081  17.865   9.674   9.605 -0.1243  0.0876 -0.0632
  572POPI   D2A 9082  17.546   9.494   9.360 -0.1846 -0.0394 -0.3321
  572POPI   C3A 9083  17.308   9.703   9.070 -0.2417  0.2091 -0.2737
  572POPI   C4A 9084  17.247   9.928   8.687 -0.1116  0.1157  0.0119
  572POPI   C1B 9085  18.368  10.144   9.521  0.2536  0.1907  0.1538
  572POPI   C2B 9086  18.201  10.119   9.132 -0.1377 -0.2898 -0.3222
  572POPI   C3B 9087  18.080  10.379   8.704  0.1125  0.2339  0.2836
  572POPI   C4B 9088  18.240  10.674   8.393  0.2873 -0.1183  0.3498
  573POPI    C1 9089   7.026   8.231  10.487  0.1811  0.1229  0.2505
  573POPI    C2 9090   7.407   8.353  10.474  0.1565  0.1911  0.1530
  573POPI    C3 9091   7.220   8.316  10.826  0.2371  0.2075  0.1976
  573POPI   PO4 9092   6.831   8.408  10.292 -0.2044 -0.0945  0.1087
  573POPI   GL1 9093   6.966   8.402   9.811 -0.0998  0.0638 -0.0607
  573POPI   GL2 9094   7.094   8.104   9.975 -0.0116  0.0764  0.1717
  573POPI   C1A 9095   6.837   8.626   9.463  0.0722  0.0183  0.0986
  573POPI   D2A 9096   6.756   8.915   9.176  0.1163 -0.1284 -0.0216
  573POPI   C3A 9097   6.230   8.856   9.165  0.2799  0.1454 -0.1830
  573POPI   C4A 9098   5.861   8.651   8.975 -0.2287 -0.0443 -0.0986
  573POPI   C1B 9099   7.223   8.153   9.459  0.0018  0.0375 -0.3406
  573POPI   C2B 9100   7.318   8.024   9.070  0.0403 -0.2312  0.1404
  573POPI   C3B 9101   7.286   8.177   8.656  0.0215  0.0769  0.0130
  573POPI   C4B 9102   7.156   8.184   8.261 -0.0101  0.3584  0.1701
  574DPPI    C1 9103   8.450   0.738  10.362 -0.1051 -0.0847 -0.0253
  574DPPI    C2 9104   8.518   0.911  10.717 -0.2432  0.0453 -0.0612
  574DPPI    C3 9105   8.469   0.515  10.694  0.2592 -0.0262 -0.0029
  574DPPI   PO4 9106   8.635   0.806  10.147  0.1899 -0.1177  0.2275
  574DPPI   GL1 9107   8.665   0.649   9.738 -0.0728  0.1142 -0.1019
  574DPPI   GL2 9108   8.875   0.317   9.786 -0.1381 -0.0812 -0.0567
  574DPPI   C1A 9109   8.862   0.733   9.311  0.0559  0.0705 -0.3006
  574DPPI   C2A 9110   8.818   0.645   8.864  0.0620 -0.1036  0.1500
  574DPPI   C3A 9111   9.143   0.551   8.527 -0.2419  0.0147 -0.3579
  574DPPI   C4A 9112   9.228   0.664   8.052  0.3958  0.1280 -0.2709
  574DPPI   C1B 9113   9.013   0.282   9.369 -0.0180  0.0252  0.1189
  574DPPI   C2B 9114   8.873   0.214   9.063  0.0841  0.1989  0.2017
  574DPPI   C3B 9115   8.881   0.089   8.498  0.0818  0.0158 -0.1248
  574DPPI   C4B 9116   9.125   0.133   8.030 -0.1379  0.2515  0.2315
  575DPPI    C1 9117  17.195   7.339  10.290 -0.3296 -0.0433  0.1835
  575DPPI    C2 9118  16.998   7.485  10.606 -0.1304  0.3012  0.1537
  575DPPI    C3 9119  17.395   7.523  10.583 -0.1254  0.1410 -0.0667
  575DPPI   PO4 9120  16.993   7.377  10.111  0.4703  0.0430  0.0437
  575DPPI   GL1 9121  16.885   7.769   9.874  0.2287 -0.2665  0.0293
  575DPPI   GL2 9122  16.827   7.724   9.631 -0.2325 -0.0413 -0.0615
  575DPPI   C1A 9123  17.333   7.852   9.634 -0.2978 -0.1209 -0.3397
  575DPPI   C2A 9124  17.556   7.936   9.232 -0.0587  0.0719 -0.0193
  575DPPI   C3A 9125  17.450   7.853   8.801  0.3018  0.1166  0.1806
  575DPPI   C4A 9126  17.279   8.011   8.405  0.1659 -0.2527  0.3742
  575DPPI   C1B 9127  17.026   7.644   9.197 -0.3248  0.0604 -0.0101
  575DPPI   C2B 9128  17.106   7.493   8.746  0.1178 -0.1404  0.2520
  575DPPI   C3B 9129  16.982   7.604   8.315 -0.1412  0.0048 -0.0728
  575DPPI   C4B 9130  16.904   7.843   7.861 -0.0836  0.0650 -0.1465
  576DPPI    C1 9131   9.188   1.814  10.807 -0.1288  0.1082  0.1161
  576DPPI    C2 9132   9.224   2.204  10.888 -0.2108  0.1134  0.1283
  576DPPI    C3 9133   9.189   1.940  11.187 -0.0818  0.0890  0.1224
  576DPPI   PO4 9134   9.356   1.896  10.526  0.0877 -0.0346  0.0246
  576DPPI   GL1 9135   9.160   1.974  10.079  0.1612  0.1530 -0.0773
  576DPPI   GL2 9136   9.440   2.084  10.039 -0.2363  0.1054  0.0086
  576DPPI   C1A 9137   8.914   2.142   9.718 -0.1685  0.0058 -0.3618
  576DPPI   C2A 9138   8.769   2.215   9.272  0.1236  0.0716  0.0997
  576DPPI   C3A 9139   8.758   2.226   8.943 -0.0920 -0.1562 -0.3091
  576DPPI   C4A 9140   8.596   2.137   8.611 -0.0928  0.2186  0.4500
  576DPPI   C1B 9141   9.432   2.086   9.686  0.0407 -0.2546  0.0647
  576DPPI   C2B 9142   9.269   2.171   9.346 -0.0776 -0.2863 -0.0713
  576DPPI   C3B 9143   9.207   2.409   9.046  0.1253  0.0118  0.2130
  576DPPI   C4B 9144   8.842   2.672   9.019  0.0516  0.1575  0.0948
  577DPPI    C1 9145  13.097   7.747  10.702  0.0313  0.1620  0.1458
  577DPPI    C2 9146  13.236   7.373  10.725 -0.1195  0.0911 -0.0761
  577DPPI    C3 9147  13.136   7.569  11.058  0.1010 -0.0118  0.0525
  577DPPI   PO4 9148  13.212   7.831  10.458  0.0152  0.0562  0.0944
  577DPPI   GL1 9149  12.997   7.969  10.164 -0.0410  0.0200  0.1730
  577DPPI   GL2 9150  13.212   7.850   9.929  0.1902 -0.2246 -0.0535
  577DPPI   C1A 9151  12.707   8.043   9.827  0.1786 -0.1944  0.2878
  577DPPI   C2A 9152  12.717   8.103   9.376 -0.0516  0.0725 -0.0376
  577DPPI   C3A 9153  12.541   8.055   8.857  0.1813  0.0455 -0.1027
  577DPPI   C4A 9154  12.515   8.242   8.505  0.1459 -0.0102 -0.0521
  577DPPI   C1B 9155  13.124   7.843   9.556  0.0523 -0.2564  0.1614
  577DPPI   C2B 9156  13.130   7.859   9.163 -0.2464 -0.2445 -0.0093
  577DPPI   C3B 9157  13.354   7.539   8.887  0.3314 -0.1547  0.1439
  577DPPI   C4B 9158  13.481   7.299   8.506 -0.0108 -0.1013 -0.2191
  578DPPI    C1 9159   6.923   6.534  10.683 -0.2587  0.0826 -0.0969
  578DPPI    C2 9160   7.259   6.380  10.530 -0.2620  0.0455 -0.0668
  578DPPI    C3 9161   7.186   6.350  10.922 -0.2888  0.0753 -0.0695
  578DPPI   PO4 9162   6.680   6.393  10.485  0.2184 -0.2287  0.0015
  578DPPI   GL1 9163   6.577   6.668  10.102  0.0434  0.0891  0.1659
  578DPPI   GL2 9164   6.414   6.392  10.016 -0.1523 -0.2097 -0.1636
  578DPPI   C1A 9165   6.711   6.816   9.672  0.1243 -0.3479  0.2985
  578DPPI   C2A 9166   6.570   6.912   9.378  0.1094 -0.0517 -0.0084
  578DPPI   C3A 9167   6.299   6.911   9.072 -0.0515 -0.0724  0.1220
  578DPPI   C4A 9168   6.034   6.713   8.881  0.0971 -0.1139 -0.0845
  578DPPI   C1B 9169   6.436   6.406   9.549 -0.0754 -0.0993  0.0221
  578DPPI   C2B 9170   6.368   6.434   9.112 -0.0175 -0.3088  0.3460
  578DPPI   C3B 9171   6.396   6.321   8.676 -0.0917  0.0462  0.2537
  578DPPI   C4B 9172   6.487   5.932   8.614  0.2865  0.0904  0.2302
  579DPPI    C1 9173   5.696   4.230  10.152 -0.2343 -0.0744  0.1217
  579DPPI    C2 9174   5.869   4.410  10.464 -0.3409  0.0298  0.1218
  579DPPI    C3 9175   5.917   4.017  10.408 -0.0423  0.0702  0.0782
  579DPPI   PO4 9176   5.750   4.422   9.967 -0.0355 -0.0880  0.3236
  579DPPI   GL1 9177   5.584   4.405   9.504 -0.1585 -0.0599 -0.1013
  579DPPI   GL2 9178   5.469   4.158   9.734 -0.0120  0.0174  0.1399
  579DPPI   C1A 9179   5.522   4.723   9.180  0.0466 -0.2968 -0.1599
  579DPPI   C2A 9180   5.515   4.836   8.760 -0.2764 -0.0105 -0.0834
  579DPPI   C3A 9181   5.543   4.523   8.410 -0.0309  0.1765  0.2012
  579DPPI   C4A 9182   5.586   4.155   8.439 -0.1212 -0.0324 -0.2779
  579DPPI   C1B 9183   5.323   4.009   9.297  0.0488  0.0635 -0.0253
  579DPPI   C2B 9184   5.374   3.779   8.894 -0.0802  0.0343 -0.1819
  579DPPI   C3B 9185   5.475   3.642   8.450 -0.0935 -0.1112 -0.1813
  579DPPI   C4B 9186   5.458   3.874   8.026 -0.0184 -0.0004  0.1423
  580DPPI    C1 9187  10.137   6.871  10.703  0.1508 -0.1288 -0.0069
  580DPPI    C2 9188   9.738   6.848  10.720  0.1323  0.0998 -0.1011
  580DPPI    C3 9189   9.953   6.852  11.057  0.0490  0.0787 -0.0476
  580DPPI   PO4 9190  10.184   6.991  10.475  0.0427 -0.1174  0.0656
  580DPPI   GL1 9191   9.863   6.800  10.132 -0.2584 -0.0594 -0.0133
  580DPPI   GL2 9192   9.745   6.920   9.891  0.1109  0.1126 -0.0636
  580DPPI   C1A 9193  10.213   6.779   9.663 -0.1245  0.1722 -0.3985
  580DPPI   C2A 9194  10.116   6.721   9.290  0.2152 -0.1998  0.0167
  580DPPI   C3A 9195  10.144   6.479   8.986 -0.3173 -0.0960  0.0242
  580DPPI   C4A 9196  10.286   6.028   8.995 -0.1075  0.3838 -0.0075
  580DPPI   C1B 9197   9.676   6.939   9.464 -0.0117 -0.1956 -0.0584
  580DPPI   C2B 9198   9.535   6.726   9.147  0.0648 -0.1835 -0.0952
  580DPPI   C3B 9199   9.515   6.666   8.727  0.0523 -0.0796  0.4128
  580DPPI   C4B 9200   9.566   6.518   8.289  0.0221  0.3844  0.1611
  581DPPI    C1 9201   4.783   6.552  10.388  0.0164  0.1165 -0.0714
  581DPPI    C2 9202   4.751   6.940  10.483 -0.1837  0.0600  0.0993
  581DPPI    C3 9203   4.743   6.662  10.771 -0.1402 -0.0774 -0.0307
  581DPPI   PO4 9204   4.947   6.533  10.271  0.1063  0.2280  0.2341
  581DPPI   GL1 9205   5.210   6.536   9.889  0.2219  0.0425 -0.2221
  581DPPI   GL2 9206   4.984   6.423   9.692  0.1569 -0.0389 -0.0451
  581DPPI   C1A 9207   5.311   6.699   9.428 -0.0622  0.3889  0.0515
  581DPPI   C2A 9208   5.257   6.830   9.133 -0.1656  0.0769 -0.1800
  581DPPI   C3A 9209   5.073   6.760   8.806 -0.0282  0.1808  0.0300
  581DPPI   C4A 9210   4.657   6.782   8.689 -0.1302 -0.0383 -0.2755
  581DPPI   C1B 9211   4.857   6.650   9.407  0.2061  0.2296  0.1976
  581DPPI   C2B 9212   4.553   6.751   9.166 -0.0537  0.1057 -0.0568
  581DPPI   C3B 9213   4.189   7.049   8.916  0.0550 -0.1265  0.3214
  581DPPI   C4B 9214   4.211   6.935   8.535 -0.0941 -0.1456 -0.2698
  582DPPI    C1 9215   2.062   3.086  10.118 -0.0742  0.1070  0.1814
  582DPPI    C2 9216   2.338   3.369  10.181  0.1153  0.0090 -0.1834
  582DPPI    C3 9217   2.013   3.352  10.413  0.3274  0.2355  0.1387
  582DPPI   PO4 9218   1.969   3.141   9.847 -0.0524  0.0501 -0.1395
  582DPPI   GL1 9219   2.099   3.202   9.421  0.1525 -0.3225 -0.1929
  582DPPI   GL2 9220   1.876   3.471   9.477 -0.2828  0.0198 -0.2227
  582DPPI   C1A 9221   2.098   3.341   8.988 -0.1968 -0.0404  0.2925
  582DPPI   C2A 9222   2.115   3.298   8.526  0.0571  0.0369  0.1092
  582DPPI   C3A 9223   2.035   3.141   8.172 -0.3796  0.0562  0.1918
  582DPPI   C4A 9224   1.778   3.185   7.908  0.3190  0.0908 -0.3388
  582DPPI   C1B 9225   1.726   3.639   9.066 -0.0348  0.0879 -0.0726
  582DPPI   C2B 9226   1.712   3.707   8.660 -0.1825 -0.2199 -0.5438
  582DPPI   C3B 9227   1.889   3.659   8.235 -0.0165  0.0991  0.0907
  582DPPI   C4B 9228   2.021   3.630   7.824  0.2903  0.1411 -0.0984
  583DPPI    C1 9229   0.543  15.641  10.050 -0.1854  0.2068  0.0780
  583DPPI    C2 9230   0.464  15.360  10.324 -0.0833  0.0538 -0.0476
  583DPPI    C3 9231   0.480  15.745  10.431  0.1836 -0.0246  0.2081
  583DPPI   PO4 9232   0.615  15.616   9.818  0.0404 -0.1495 -0.2152
  583DPPI   GL1 9233   0.699  15.629   9.390 -0.2259  0.0169 -0.0134
  583DPPI   GL2 9234   0.365  15.501   9.440  0.5136  0.1629  0.1679
  583DPPI   C1A 9235   0.571  15.626   8.965  0.1596  0.1253 -0.1272
  583DPPI   C2A 9236   0.473  15.888   8.610  0.3749 -0.2176  0.0740
  583DPPI   C3A 9237   0.356  16.122   8.333 -0.2356  0.1225 -0.1832
  583DPPI   C4A 9238   0.406  16.449   8.081  0.0807 -0.2570 -0.0992
  583DPPI   C1B 9239   0.248  15.232   9.122 -0.0326  0.1270 -0.0090
  583DPPI   C2B 9240   0.244  15.422   8.679  0.0571  0.0769 -0.3001
  583DPPI   C3B 9241   0.450  15.520   8.276 -0.1679  0.1682 -0.1228
  583DPPI   C4B 9242   0.622  15.810   7.957 -0.1998 -0.1751 -0.2728
  584DPPI    C1 9243   3.068   1.918  10.223  0.0549 -0.0136  0.1509
  584DPPI    C2 9244   2.817   1.632  10.098 -0.0604  0.0786  0.1695
  584DPPI    C3 9245   3.076   1.556  10.394 -0.0211 -0.0366  0.1062
  584DPPI   PO4 9246   3.126   2.043   9.986 -0.1909  0.0863 -0.1554
  584DPPI   GL1 9247   3.145   2.263   9.654  0.3371 -0.2565 -0.3626
  584DPPI   GL2 9248   2.867   2.515   9.834  0.2271 -0.0195 -0.0540
  584DPPI   C1A 9249   2.850   2.105   9.271 -0.0803 -0.0611  0.1590
  584DPPI   C2A 9250   2.899   2.139   8.801  0.0163 -0.0819  0.0706
  584DPPI   C3A 9251   3.044   2.109   8.439 -0.2918 -0.1007  0.0405
  584DPPI   C4A 9252   3.406   2.190   8.262  0.0177 -0.0538  0.2881
  584DPPI   C1B 9253   2.849   2.766   9.462  0.0126  0.3543  0.2387
  584DPPI   C2B 9254   2.868   2.735   9.022  0.0075 -0.0750 -0.0185
  584DPPI   C3B 9255   2.946   2.626   8.662  0.0595 -0.1645 -0.4775
  584DPPI   C4B 9256   3.147   2.653   8.327 -0.1686 -0.1276 -0.0649
  585DPPI    C1 9257  14.224   8.074  10.556 -0.1023 -0.0364 -0.2136
  585DPPI    C2 9258  14.050   8.423  10.644  0.1801  0.0233  0.1297
  585DPPI    C3 9259  13.931   8.088  10.828 -0.2109 -0.0994 -0.3263
  585DPPI   PO4 9260  14.202   8.062  10.322 -0.1223  0.2054 -0.0202
  585DPPI   GL1 9261  14.206   7.873  10.054 -0.5063  0.0837  0.1558
  585DPPI   GL2 9262  14.540   7.822   9.960 -0.1838 -0.0202  0.1356
  585DPPI   C1A 9263  14.117   8.077   9.674 -0.0690 -0.3118 -0.1440
  585DPPI   C2A 9264  14.131   8.075   9.203  0.0842  0.0077 -0.1968
  585DPPI   C3A 9265  14.099   8.051   8.790 -0.3741 -0.1143  0.0523
  585DPPI   C4A 9266  14.134   7.959   8.322  0.1612  0.0862 -0.0340
  585DPPI   C1B 9267  14.796   7.989   9.682 -0.2689 -0.0344 -0.1347
  585DPPI   C2B 9268  14.631   8.019   9.301 -0.1459  0.1359  0.0107
  585DPPI   C3B 9269  14.653   8.016   8.784  0.0805 -0.0434 -0.0902
  585DPPI   C4B 9270  14.632   7.932   8.319 -0.2900 -0.3710  0.0444
  586DPPI    C1 9271  10.536   5.712  10.562  0.1354 -0.1205 -0.1391
  586DPPI    C2 9272  10.748   5.505  10.831 -0.1205 -0.1877  0.0137
  586DPPI    C3 9273  10.373   5.618  10.915 -0.1031  0.0399 -0.2041
  586DPPI   PO4 9274  10.517   5.593  10.365 -0.5482  0.1349  0.1376
  586DPPI   GL1 9275  10.826   5.568   9.966  0.1628  0.1765  0.0668
  586DPPI   GL2 9276  11.080   5.674   9.688 -0.2513  0.1450 -0.1345
  586DPPI   C1A 9277  11.083   5.099   9.782 -0.0031  0.1221  0.1241
  586DPPI   C2A 9278  11.181   4.909   9.315 -0.1741  0.0269  0.1032
  586DPPI   C3A 9279  11.062   4.793   8.978  0.2349 -0.0743  0.2283
  586DPPI   C4A 9280  11.036   4.718   8.535  0.0298  0.0335  0.0140
  586DPPI   C1B 9281  11.110   5.381   9.299  0.0508 -0.3169  0.0565
  586DPPI   C2B 9282  11.049   5.293   8.936 -0.0624  0.0087  0.2896
  586DPPI   C3B 9283  11.153   5.374   8.580  0.1741 -0.1053 -0.1911
  586DPPI   C4B 9284  11.123   5.617   8.177 -0.1186  0.2293  0.1424
  587DPPI    C1 9285   4.174   1.677  10.067  0.0583 -0.2084 -0.0713
  587DPPI    C2 9286   4.301   1.489  10.396  0.1166 -0.1311 -0.0495
  587DPPI    C3 9287   4.566   1.632  10.132  0.0696 -0.2124 -0.1409
  587DPPI   PO4 9288   3.875   1.498  10.047 -0.1746 -0.0334  0.0841
  587DPPI   GL1 9289   3.763   1.389   9.739  0.1007  0.4369  0.1745
  587DPPI   GL2 9290   3.486   1.168   9.729  0.0588  0.0660  0.0324
  587DPPI   C1A 9291   3.730   1.509   9.255  0.0945  0.0421  0.0040
  587DPPI   C2A 9292   3.833   1.282   9.082 -0.0634 -0.0481 -0.0104
  587DPPI   C3A 9293   3.724   1.295   8.698 -0.1415 -0.2022 -0.0774
  587DPPI   C4A 9294   3.800   1.273   8.283  0.0266 -0.0916 -0.0752
  587DPPI   C1B 9295   3.329   1.224   9.232  0.3654 -0.0038 -0.0910
  587DPPI   C2B 9296   3.138   1.259   8.848  0.0939  0.1127  0.0811
  587DPPI   C3B 9297   3.211   1.312   8.355 -0.1617 -0.2489  0.0703
  587DPPI   C4B 9298   3.303   1.317   8.007  0.0393  0.0642 -0.0367
  588DPPI    C1 9299  10.745  15.804  10.417  0.1685  0.0124 -0.0206
  588DPPI    C2 9300  11.082  15.870  10.622  0.1615  0.1031 -0.0377
  588DPPI    C3 9301  11.077  15.914  10.225  0.1425  0.0513 -0.0432
  588DPPI   PO4 9302  10.672  15.513  10.481  0.2418  0.0279  0.1932
  588DPPI   GL1 9303  10.394  15.144  10.277 -0.0198 -0.3464 -0.0265
  588DPPI   GL2 9304  10.191  15.100  10.043 -0.1291  0.1328 -0.2167
  588DPPI   C1A 9305  10.710  14.998   9.895  0.1031  0.1955 -0.0225
  588DPPI   C2A 9306  11.018  14.763   9.608 -0.0858 -0.1375 -0.1055
  588DPPI   C3A 9307  11.130  14.712   9.178  0.1624 -0.1248  0.0326
  588DPPI   C4A 9308  11.380  14.505   8.826 -0.2405 -0.2143  0.0870
  588DPPI   C1B 9309  10.278  15.086   9.613  0.1844  0.0771  0.2598
  588DPPI   C2B 9310  10.485  14.871   9.424 -0.0653 -0.0512  0.0954
  588DPPI   C3B 9311  10.649  14.751   9.081  0.0128 -0.0043  0.3972
  588DPPI   C4B 9312  10.813  14.463   8.805 -0.1136 -0.0666  0.2129
  589DPPI    C1 9313  14.501   3.147  10.809  0.2811  0.1036 -0.0359
  589DPPI    C2 9314  14.565   2.816  11.025 -0.4048 -0.0282 -0.0138
  589DPPI    C3 9315  14.430   3.149  11.203 -0.0635  0.1587 -0.0955
  589DPPI   PO4 9316  14.411   3.034  10.589  0.1517  0.0615 -0.1885
  589DPPI   GL1 9317  14.485   3.127  10.149 -0.1192  0.3871  0.1207
  589DPPI   GL2 9318  14.229   2.926  10.098  0.1015 -0.1371  0.0264
  589DPPI   C1A 9319  14.475   3.123   9.680  0.1698 -0.0148  0.0185
  589DPPI   C2A 9320  14.445   3.281   9.256  0.1144  0.2419 -0.1627
  589DPPI   C3A 9321  14.583   3.596   8.978 -0.2536  0.0307  0.1363
  589DPPI   C4A 9322  14.675   3.605   8.594  0.0453 -0.2705  0.0281
  589DPPI   C1B 9323  14.142   2.762   9.722  0.0701 -0.1593  0.1877
  589DPPI   C2B 9324  14.105   2.744   9.304 -0.0997  0.1841  0.3020
  589DPPI   C3B 9325  14.089   3.118   8.965 -0.3875  0.1062  0.1859
  589DPPI   C4B 9326  14.185   3.446   8.529 -0.0130  0.1080 -0.2117
  590DPPI    C1 9327   9.956   9.338  10.937 -0.0382 -0.2715  0.0165
  590DPPI    C2 9328  10.223   9.585  11.102 -0.2886  0.0199 -0.0060
  590DPPI    C3 9329  10.242   9.193  11.176  0.0646  0.0523  0.0954
  590DPPI   PO4 9330   9.987   9.422  10.698  0.3401  0.2959  0.2178
  590DPPI   GL1 9331  10.197   9.397  10.312  0.1004  0.0818 -0.0677
  590DPPI   GL2 9332  10.102   9.066  10.260  0.2295  0.1729  0.5233
  590DPPI   C1A 9333  10.342   9.208   9.862  0.0218  0.0556  0.0174
  590DPPI   C2A 9334  10.298   9.160   9.444 -0.3167  0.0697 -0.0200
  590DPPI   C3A 9335  10.324   9.115   9.070 -0.3181  0.1864 -0.0498
  590DPPI   C4A 9336  10.366   9.024   8.567  0.1612 -0.2197 -0.1035
  590DPPI   C1B 9337  10.129   8.793   9.895 -0.0743  0.1333 -0.0380
  590DPPI   C2B 9338  10.045   8.735   9.458 -0.0031  0.1075  0.0009
  590DPPI   C3B 9339  10.101   8.656   9.070 -0.0112  0.0085  0.0799
  590DPPI   C4B 9340  10.114   8.582   8.655  0.3700 -0.1780 -0.0816
  591DPPI    C1 9341   7.891   0.364  10.570 -0.0485 -0.0850  0.2242
  591DPPI    C2 9342   7.668   0.574  10.827  0.0841  0.0905  0.1971
  591DPPI    C3 9343   8.003   0.395  10.953  0.1927  0.2448  0.1311
  591DPPI   PO4 9344   7.943   0.497  10.341 -0.3666  0.0622  0.1494
  591DPPI   GL1 9345   7.926   0.471  10.035  0.0063 -0.0880  0.4390
  591DPPI   GL2 9346   7.692   0.657   9.891 -0.4370  0.4426  0.0604
  591DPPI   C1A 9347   8.134   0.331   9.634  0.0005 -0.1043 -0.0451
  591DPPI   C2A 9348   8.474   0.305   9.411  0.0523 -0.3310 -0.1452
  591DPPI   C3A 9349   8.415   0.424   9.064 -0.2522  0.0738 -0.2966
  591DPPI   C4A 9350   8.385   0.572   8.583 -0.0287  0.0315  0.1328
  591DPPI   C1B 9351   7.505   0.643   9.542  0.0459 -0.0740 -0.0240
  591DPPI   C2B 9352   7.409   0.704   9.055  0.1253  0.0896 -0.0121
  591DPPI   C3B 9353   7.387   0.473   8.653 -0.1799 -0.0186 -0.1733
  591DPPI   C4B 9354   7.447   0.013   8.541  0.1309  0.2943 -0.0184
  592DPPI    C1 9355   2.477  10.019  10.425  0.0625  0.1144  0.0036
  592DPPI    C2 9356   2.294  10.194  10.735  0.0212 -0.0130  0.0519
  592DPPI    C3 9357   2.315   9.795  10.715  0.2075 -0.0014 -0.0036
  592DPPI   PO4 9358   2.418  10.291  10.192  0.3116  0.0254 -0.1410
  592DPPI   GL1 9359   2.723  10.544   9.915  0.1103 -0.1210  0.2977
  592DPPI   GL2 9360   2.344  10.608   9.847  0.6910 -0.3874 -0.3383
  592DPPI   C1A 9361   2.800  10.674   9.519 -0.0961 -0.1478  0.3884
  592DPPI   C2A 9362   2.932  10.562   9.005 -0.0966 -0.2065  0.0334
  592DPPI   C3A 9363   2.903  10.537   8.467 -0.4063 -0.2449  0.1443
  592DPPI   C4A 9364   2.732  10.422   8.106 -0.1047 -0.2079 -0.0725
  592DPPI   C1B 9365   2.348  10.422   9.447 -0.3269  0.1052 -0.1075
  592DPPI   C2B 9366   2.431  10.519   9.036 -0.0487  0.1024 -0.2210
  592DPPI   C3B 9367   2.615  10.248   8.744  0.0524 -0.0014 -0.1034
  592DPPI   C4B 9368   2.604  10.010   8.421  0.0166  0.0317  0.1209
  593DPPI    C1 9369   7.871   8.384  10.416  0.0758  0.2747  0.0185
  593DPPI    C2 9370   7.848   8.700  10.661  0.2038  0.0409  0.3387
  593DPPI    C3 9371   7.797   8.330  10.806  0.0820 -0.0901 -0.0277
  593DPPI   PO4 9372   8.025   8.458  10.241 -0.0921 -0.1450  0.1006
  593DPPI   GL1 9373   8.170   8.346   9.875 -0.1212  0.2242 -0.0186
  593DPPI   GL2 9374   8.131   8.666   9.733  0.0324  0.4072 -0.3358
  593DPPI   C1A 9375   8.418   8.113   9.597  0.0403 -0.1161  0.1242
  593DPPI   C2A 9376   8.441   7.939   9.187 -0.0962  0.1303 -0.1453
  593DPPI   C3A 9377   8.615   7.674   9.017 -0.0560 -0.0479  0.0624
  593DPPI   C4A 9378   8.646   7.696   8.699  0.0737  0.1285  0.0836
  593DPPI   C1B 9379   8.115   8.423   9.288 -0.1032  0.0438  0.0258
  593DPPI   C2B 9380   7.929   8.319   8.901  0.2501 -0.3852  0.0710
  593DPPI   C3B 9381   7.763   8.070   8.593 -0.1231  0.1620 -0.1484
  593DPPI   C4B 9382   7.422   7.766   8.294  0.2313 -0.3167  0.4742
  594PYPI    C1 9383   8.485  17.417  10.727 -0.1282  0.0301 -0.0016
  594PYPI    C2 9384   8.473  17.684  11.024 -0.0757  0.1051 -0.0667
  594PYPI    C3 9385   8.291  17.331  11.067 -0.0296  0.0973  0.0723
  594PYPI   PO4 9386   8.462  17.559  10.525 -0.3611 -0.0570  0.2184
  594PYPI   GL1 9387   8.781  17.649  10.258  0.0893  0.0781  0.2632
  594PYPI   GL2 9388   8.493  17.609   9.997 -0.1000  0.0194 -0.0098
  594PYPI   C1A 9389   9.102  17.595   9.805  0.0833  0.0439  0.2297
  594PYPI   C2A 9390   9.234  17.391   9.460 -0.0459 -0.2420  0.1951
  594PYPI   D3A 9391   9.243  17.024   9.231  0.0200 -0.0619 -0.0923
  594PYPI   C4A 9392   9.290  17.004   8.819 -0.1597 -0.0261 -0.1312
  594PYPI   C1B 9393   8.646  17.539   9.595 -0.1640 -0.1417 -0.0707
  594PYPI   C2B 9394   8.736  17.668   9.218 -0.2535  0.4202  0.0793
  594PYPI   C3B 9395   8.674  17.726   8.726 -0.4059  0.1284 -0.2905
  594PYPI   C4B 9396   9.144  17.701   8.521  0.1105 -0.1281  0.0820
  595PYPI    C1 9397   5.404   5.570  10.146  0.0482  0.2215 -0.0371
  595PYPI    C2 9398   5.786   5.610  10.258 -0.0152  0.1861  0.1959
  595PYPI    C3 9399   5.603   5.907  10.064  0.1300  0.2036  0.0844
  595PYPI   PO4 9400   5.362   5.276  10.011  0.1583 -0.2104  0.1714
  595PYPI   GL1 9401   5.243   5.291   9.643  0.0429  0.3228  0.0413
  595PYPI   GL2 9402   5.198   4.902   9.548 -0.1609 -0.0045 -0.1288
  595PYPI   C1A 9403   5.394   5.265   9.229 -0.1213 -0.0425  0.0326
  595PYPI   C2A 9404   5.304   5.432   8.841  0.1475 -0.0144 -0.3549
  595PYPI   D3A 9405   5.369   5.376   8.522  0.2387  0.2656 -0.1433
  595PYPI   C4A 9406   5.089   5.081   8.377  0.0456  0.0015 -0.2073
  595PYPI   C1B 9407   5.007   4.976   9.191 -0.2620 -0.0006  0.1471
  595PYPI   C2B 9408   5.043   4.794   8.787 -0.3454 -0.1573  0.0115
  595PYPI   C3B 9409   5.073   4.573   8.448  0.2435  0.0333 -0.0191
  595PYPI   C4B 9410   5.164   4.458   7.974 -0.2513 -0.1074  0.0858
  596PYPI    C1 9411   4.760   8.636  10.490 -0.0129  0.0931 -0.1610
  596PYPI    C2 9412   5.042   8.364  10.572 -0.0479  0.0891 -0.0515
  596PYPI    C3 9413   4.706   8.375  10.788 -0.1337  0.0920 -0.1837
  596PYPI   PO4 9414   4.743   8.625  10.223 -0.1117 -0.1382 -0.0896
  596PYPI   GL1 9415   4.594   8.916   9.904  0.2790  0.2106 -0.1102
  596PYPI   GL2 9416   4.321   9.041   9.923 -0.0181 -0.1801 -0.0277
  596PYPI   C1A 9417   4.573   8.966   9.398 -0.0203  0.0883  0.1927
  596PYPI   C2A 9418   4.594   9.020   8.959  0.0330 -0.0141 -0.0675
  596PYPI   D3A 9419   4.605   9.074   8.542 -0.3301  0.0295 -0.1128
  596PYPI   C4A 9420   4.244   9.207   8.318  0.1881 -0.1287 -0.0360
  596PYPI   C1B 9421   4.036   8.804   9.599 -0.1220 -0.1380  0.2597
  596PYPI   C2B 9422   3.970   8.777   9.190 -0.0012 -0.0426  0.2861
  596PYPI   C3B 9423   4.040   8.966   8.801 -0.0716 -0.0747 -0.2485
  596PYPI   C4B 9424   3.850   8.881   8.415 -0.1154  0.0916 -0.2125
  597PYPI    C1 9425   2.959  10.134  10.468 -0.2555 -0.0686  0.2661
  597PYPI    C2 9426   2.985  10.517  10.356  0.1700 -0.0928  0.2633
  597PYPI    C3 9427   2.719  10.408  10.634 -0.0222  0.1850  0.1938
  597PYPI   PO4 9428   3.088  10.051  10.158  0.0309 -0.2342 -0.2782
  597PYPI   GL1 9429   3.381   9.859   9.907  0.1153 -0.1494 -0.1558
  597PYPI   GL2 9430   3.671   9.721   9.938 -0.2924 -0.0416 -0.2543
  597PYPI   C1A 9431   3.507  10.099   9.532  0.4510 -0.0182  0.0723
  597PYPI   C2A 9432   3.713  10.213   9.236  0.2296  0.1050 -0.1767
  597PYPI   D3A 9433   3.481  10.449   8.996 -0.0298 -0.2434 -0.0134
  597PYPI   C4A 9434   3.375  10.414   8.619 -0.2514 -0.0479  0.0514
  597PYPI   C1B 9435   3.731   9.675   9.403  0.1459 -0.0139  0.0878
  597PYPI   C2B 9436   3.754   9.799   8.954  0.1583  0.0696 -0.0538
  597PYPI   C3B 9437   3.740   9.959   8.579 -0.0185 -0.0283  0.2810
  597PYPI   C4B 9438   3.889   9.910   8.215  0.1174  0.0110 -0.5256
  598PYPI    C1 9439   0.396  12.218  10.121  0.1094  0.0119 -0.0642
  598PYPI    C2 9440   0.718  12.144  10.345  0.1811  0.1411 -0.1228
  598PYPI    C3 9441   0.454  12.421  10.460  0.0447 -0.0247 -0.0311
  598PYPI   PO4 9442   0.356  11.995   9.993 -0.1658 -0.0212 -0.0242
  598PYPI   GL1 9443   0.226  12.073   9.609 -0.1677 -0.0567  0.0774
  598PYPI   GL2 9444   0.161  11.843   9.548 -0.1814 -0.3171 -0.1473
  598PYPI   C1A 9445   0.118  12.119   9.113  0.1464 -0.1271  0.1719
  598PYPI   C2A 9446   0.233  12.179   8.650  0.1139  0.2010  0.1887
  598PYPI   D3A 9447   0.381  12.403   8.249  0.0165 -0.0505  0.0558
  598PYPI   C4A 9448   0.356  12.506   7.745  0.0548  0.2015  0.0457
  598PYPI   C1B 9449   0.407  11.752   9.198  0.0396  0.0233 -0.0813
  598PYPI   C2B 9450   0.618  11.804   8.661 -0.1572 -0.0686 -0.0885
  598PYPI   C3B 9451   0.791  12.162   8.472  0.0012  0.0044  0.0399
  598PYPI   C4B 9452   0.848  12.430   8.107  0.1846 -0.2266 -0.3363
  599PYPI    C1 9453  15.711   5.687  10.200  0.0377  0.1446 -0.0291
  599PYPI    C2 9454  15.780   5.466  10.526 -0.1427 -0.1450 -0.1821
  599PYPI    C3 9455  15.919   5.841  10.505  0.0335 -0.1876  0.1462
  599PYPI   PO4 9456  15.483   5.686  10.156  0.0143  0.1935  0.1754
  599PYPI   GL1 9457  15.381   5.525   9.764  0.2740 -0.1483  0.0125
  599PYPI   GL2 9458  15.016   5.624   9.917 -0.3168 -0.0778  0.1451
  599PYPI   C1A 9459  15.424   5.390   9.282 -0.2396 -0.1154 -0.0866
  599PYPI   C2A 9460  15.363   5.661   8.941  0.2632  0.1191 -0.0971
  599PYPI   D3A 9461  15.185   5.785   8.493 -0.1512  0.0200  0.1189
  599PYPI   C4A 9462  15.092   5.927   8.231 -0.2031 -0.0801  0.1836
  599PYPI   C1B 9463  15.008   5.535   9.468 -0.1233 -0.0749  0.2241
  599PYPI   C2B 9464  14.935   5.459   9.014  0.0974  0.0167 -0.0043
  599PYPI   C3B 9465  14.932   5.356   8.513 -0.1050 -0.0221 -0.1670
  599PYPI   C4B 9466  14.740   5.546   8.116  0.1718  0.0398  0.1490
  600PYPI    C1 9467  15.990  18.285  10.491 -0.2312 -0.2084 -0.1461
  600PYPI    C2 9468  15.704  18.444  10.721  0.0447 -0.1403  0.1577
  600PYPI    C3 9469  15.872  18.096  10.823  0.1235 -0.1427  0.0220
  600PYPI   PO4 9470  15.928  18.277  10.291  0.1421 -0.3023 -0.1351
  600PYPI   GL1 9471  15.658  18.144   9.903  0.2615  0.1651  0.2661
  600PYPI   GL2 9472  15.850  17.874   9.960  0.0297 -0.2834  0.0062
  600PYPI   C1A 9473  15.716  17.960   9.504 -0.1417 -0.2642  0.2442
  600PYPI   C2A 9474  15.702  17.981   9.031  0.3276  0.1757 -0.1993
  600PYPI   D3A 9475  15.611  17.754   8.679  0.0516  0.0744 -0.0976
  600PYPI   C4A 9476  15.390  17.408   8.700 -0.0847 -0.0440 -0.0459
  600PYPI   C1B 9477  15.700  17.450   9.766  0.1568 -0.2388 -0.0282
  600PYPI   C2B 9478  15.622  17.073   9.507 -0.1752  0.3088 -0.0285
  600PYPI   C3B 9479  15.641  16.987   9.088 -0.0257  0.0176 -0.1150
  600PYPI   C4B 9480  15.562  16.896   8.634  0.4286  0.2504 -0.0507
  601PYPI    C1 9481  11.540   7.587  10.236  0.1942  0.1360 -0.0489
  601PYPI    C2 9482  11.803   7.300  10.329 -0.2489 -0.2303  0.1171
  601PYPI    C3 9483  11.641   7.524  10.618 -0.1801 -0.0571  0.0234
  601PYPI   PO4 9484  11.394   7.482  10.005 -0.2786 -0.3719  0.0166
  601PYPI   GL1 9485  11.366   7.223   9.700 -0.2376  0.1280 -0.1772
  601PYPI   GL2 9486  11.007   7.335   9.672 -0.0663 -0.0806  0.0524
  601PYPI   C1A 9487  11.326   7.324   9.223 -0.0256  0.1297 -0.3495
  601PYPI   C2A 9488  11.194   7.437   8.777 -0.0356  0.2973  0.3137
  601PYPI   D3A 9489  11.295   7.287   8.430  0.2216  0.0097  0.2996
  601PYPI   C4A 9490  11.269   7.499   8.077 -0.2445  0.2003 -0.2785
  601PYPI   C1B 9491  10.841   7.374   9.213 -0.0993 -0.1476 -0.0510
  601PYPI   C2B 9492  10.726   7.311   8.795  0.0224 -0.1086  0.1363
  601PYPI   C3B 9493  10.758   7.168   8.443  0.1445  0.0313  0.0140
  601PYPI   C4B 9494  10.869   7.081   8.059 -0.1577 -0.3930 -0.2090
  602PYPI    C1 9495   4.896   4.188  10.465  0.0939 -0.0837 -0.0038
  602PYPI    C2 9496   4.854   4.544  10.642 -0.2827 -0.1586  0.0659
  602PYPI    C3 9497   4.825   4.208  10.858 -0.2686 -0.2400 -0.0580
  602PYPI   PO4 9498   4.858   4.298  10.238  0.0912  0.1129 -0.1859
  602PYPI   GL1 9499   4.853   4.214   9.838  0.1615  0.0087 -0.0176
  602PYPI   GL2 9500   4.778   3.918   9.664 -0.2094  0.1573 -0.2503
  602PYPI   C1A 9501   5.019   4.399   9.496  0.2773  0.1403  0.0898
  602PYPI   C2A 9502   5.099   4.472   9.150  0.1197 -0.1679  0.0235
  602PYPI   D3A 9503   5.417   4.326   8.921 -0.0734  0.3401  0.2163
  602PYPI   C4A 9504   5.745   4.298   9.072 -0.5459  0.2074 -0.3577
  602PYPI   C1B 9505   4.797   4.013   9.223  0.0197  0.0920  0.2280
  602PYPI   C2B 9506   4.918   4.015   8.828 -0.1118 -0.0204 -0.1684
  602PYPI   C3B 9507   5.075   3.960   8.352  0.0041 -0.1196  0.0397
  602PYPI   C4B 9508   4.977   3.820   7.927  0.0770 -0.1759  0.1022
  603PYPI    C1 9509   7.383  13.195  10.194  0.0781  0.0677 -0.0740
  603PYPI    C2 9510   7.218  13.535  10.325 -0.0842 -0.0768  0.1024
  603PYPI    C3 9511   7.245  13.219  10.569 -0.0191 -0.2204 -0.0889
  603PYPI   PO4 9512   7.289  13.179   9.955 -0.3976 -0.1411  0.0056
  603PYPI   GL1 9513   6.941  13.413   9.780  0.0009 -0.2540 -0.1762
  603PYPI   GL2 9514   7.123  13.649   9.891  0.1167  0.2762  0.0463
  603PYPI   C1A 9515   6.836  13.498   9.309 -0.1193  0.0691 -0.0495
  603PYPI   C2A 9516   6.608  13.599   8.967 -0.0361  0.1021  0.0755
  603PYPI   D3A 9517   6.470  13.544   8.554 -0.1173 -0.0309 -0.2387
  603PYPI   C4A 9518   6.555  13.510   8.181 -0.1322  0.3333  0.2398
  603PYPI   C1B 9519   7.138  13.875   9.619  0.1286 -0.1649 -0.1051
  603PYPI   C2B 9520   7.193  13.877   9.204  0.0972  0.0364  0.1748
  603PYPI   C3B 9521   7.149  14.018   8.864  0.1800 -0.1822 -0.0695
  603PYPI   C4B 9522   6.816  14.082   8.632  0.0812 -0.2288 -0.0541
  604PYPI    C1 9523   0.715   5.913  10.092 -0.1962 -0.0123  0.0888
  604PYPI    C2 9524   1.027   5.935  10.341 -0.1425  0.0936  0.0135
  604PYPI    C3 9525   0.663   5.847  10.483 -0.1392  0.2948  0.1514
  604PYPI   PO4 9526   0.879   5.901   9.870 -0.3342 -0.0484 -0.0414
  604PYPI   GL1 9527   0.878   6.280   9.600 -0.0517  0.2285 -0.0797
  604PYPI   GL2 9528   1.159   6.127   9.434  0.1118  0.0628 -0.1597
  604PYPI   C1A 9529   0.484   6.151   9.312 -0.2366  0.2278  0.1598
  604PYPI   C2A 9530   0.557   6.197   8.866 -0.1183  0.2363  0.2395
  604PYPI   D3A 9531   0.499   6.226   8.416 -0.1196  0.1111 -0.0841
  604PYPI   C4A 9532   0.708   6.424   8.083  0.2056  0.0592 -0.0017
  604PYPI   C1B 9533   0.987   6.346   9.075 -0.0122  0.2020  0.0502
  604PYPI   C2B 9534   0.995   6.426   8.688 -0.1330  0.0693  0.0058
  604PYPI   C3B 9535   1.067   6.671   8.289  0.0173  0.2483 -0.0965
  604PYPI   C4B 9536   1.021   6.889   7.872  0.0485 -0.1718 -0.1169
  605PYPI    C1 9537   7.124  12.276  10.064  0.0165  0.3292  0.0951
  605PYPI    C2 9538   6.836  12.369  10.325 -0.2330  0.2899 -0.1620
  605PYPI    C3 9539   6.973  11.994  10.304 -0.0122  0.3527  0.1047
  605PYPI   PO4 9540   7.016  12.484   9.871  0.0526 -0.1742  0.2444
  605PYPI   GL1 9541   6.927  12.589   9.415 -0.1707  0.1127 -0.1118
  605PYPI   GL2 9542   7.245  12.753   9.471  0.1317 -0.0800  0.1153
  605PYPI   C1A 9543   6.851  12.933   9.167  0.0117 -0.2734  0.0616
  605PYPI   C2A 9544   7.016  13.212   8.885  0.0087 -0.4059 -0.0498
  605PYPI   D3A 9545   6.953  13.462   8.581 -0.1327  0.1264  0.2554
  605PYPI   C4A 9546   7.208  13.870   8.373 -0.2875  0.0224 -0.3583
  605PYPI   C1B 9547   7.140  12.558   8.931 -0.3481  0.0513 -0.3450
  605PYPI   C2B 9548   7.165  12.790   8.550 -0.3013 -0.3620 -0.2467
  605PYPI   C3B 9549   7.078  13.095   8.198 -0.1681  0.0973 -0.2603
  605PYPI   C4B 9550   7.195  13.414   8.100  0.0754  0.1790  0.1656
  606PYPI    C1 9551  13.909   6.766  10.551  0.0973  0.1430 -0.2267
  606PYPI    C2 9552  14.240   6.607  10.710 -0.0002  0.0097 -0.1551
  606PYPI    C3 9553  14.199   7.004  10.689  0.0295  0.0294  0.1222
  606PYPI   PO4 9554  13.888   6.668  10.308 -0.1198 -0.0369  0.1629
  606PYPI   GL1 9555  13.701   6.765   9.968  0.0247 -0.1868 -0.1462
  606PYPI   GL2 9556  13.576   7.053   9.844  0.4509  0.0275 -0.0082
  606PYPI   C1A 9557  14.011   6.750   9.580 -0.1081 -0.1469  0.1788
  606PYPI   C2A 9558  13.983   6.708   9.190 -0.1316  0.0222 -0.2198
  606PYPI   D3A 9559  14.355   6.679   8.902  0.2616 -0.1095  0.3545
  606PYPI   C4A 9560  14.508   6.449   8.520 -0.1445  0.2457  0.2017
  606PYPI   C1B 9561  13.546   6.857   9.530 -0.3607 -0.0510 -0.1950
  606PYPI   C2B 9562  13.453   6.659   9.085  0.0101  0.1740  0.0821
  606PYPI   C3B 9563  13.425   6.438   8.707 -0.0595 -0.0119  0.0815
  606PYPI   C4B 9564  13.612   6.324   8.385  0.2210 -0.1046  0.1851
  607ERGO   ROH 9565   8.862  14.791   9.604  0.0152 -0.0070  0.1680
  607ERGO    R1 9566   8.765  14.643   9.384 -0.1052  0.2284  0.0594
  607ERGO    R2 9567   8.734  14.754   9.133  0.3590  0.3420  0.0427
  607ERGO    R3 9568   8.890  14.545   9.056 -0.0091  0.0106  0.1591
  607ERGO    R4 9569   8.751  14.628   8.811  0.3201  0.2903  0.0601
  607ERGO    R5 9570   8.757  14.427   8.896 -0.1481  0.2730  0.0756
  607ERGO    C1 9571   8.908  14.358   8.552 -0.0481 -0.0508  0.1797
  607ERGO    C2 9572   8.698  14.277   8.321 -0.1029 -0.1803 -0.1665
  608ERGO   ROH 9573  13.585  18.490   9.925  0.2112 -0.0045 -0.0541
  608ERGO    R1 9574  13.450  18.381   9.700  0.2453 -0.0189 -0.0688
  608ERGO    R2 9575  13.584  18.263   9.489  0.2782 -0.0560 -0.0337
  608ERGO    R3 9576  13.418  18.055   9.544  0.2514 -0.0338 -0.0356
  608ERGO    R4 9577  13.469  18.036   9.256  0.1872 -0.0020 -0.0409
  608ERGO    R5 9578  13.274  18.041   9.353  0.2119  0.0176 -0.0047
  608ERGO    C1 9579  13.246  17.707   9.171  0.1092  0.0502 -0.0469
  608ERGO    C2 9580  13.195  17.444   8.988  0.0058 -0.1167 -0.2239
  609ERGO   ROH 9581   6.130   3.409   9.507  0.3939 -0.0027  0.2316
  609ERGO    R1 9582   6.355   3.385   9.336  0.2809  0.0503  0.0792
  609ERGO    R2 9583   6.334   3.297   9.074  0.1082  0.1486  0.0737
  609ERGO    R3 9584   6.462   3.531   9.020  0.0930  0.1562  0.0582
  609ERGO    R4 9585   6.483   3.376   8.773  0.2032  0.0691  0.0958
  609ERGO    R5 9586   6.647   3.467   8.883  0.1590  0.1297  0.1399
  609ERGO    C1 9587   6.690   3.641   8.546  0.2441  0.0300  0.0942
  609ERGO    C2 9588   6.689   3.547   8.243 -0.2114 -0.1399 -0.0209
  610ERGO   ROH 9589  12.748   7.541   9.957  0.1938  0.0813  0.2068
  610ERGO    R1 9590  12.675   7.458   9.696  0.1418 -0.0355  0.2568
  610ERGO    R2 9591  12.616   7.638   9.495 -0.1183 -0.1234  0.2457
  610ERGO    R3 9592  12.807   7.499   9.359 -0.0537  0.0214  0.1871
  610ERGO    R4 9593  12.660   7.646   9.152 -0.2431 -0.1179  0.2296
  610ERGO    R5 9594  12.698   7.431   9.157 -0.0671 -0.0835  0.2327
  610ERGO    C1 9595  12.865   7.520   8.825 -0.2553  0.0213  0.1653
  610ERGO    C2 9596  12.989   7.533   8.476 -0.1127 -0.0520  0.0232
  611ERGO   ROH 9597   3.037   7.454   9.820 -0.0622  0.0538  0.0611
  611ERGO    R1 9598   2.896   7.428   9.576 -0.0519 -0.0287  0.0629
  611ERGO    R2 9599   2.731   7.626   9.477 -0.1501 -0.1097  0.0492
  611ERGO    R3 9600   2.887   7.600   9.256 -0.1338 -0.0510  0.0549
  611ERGO    R4 9601   2.635   7.714   9.157 -0.0953  0.0212  0.0688
  611ERGO    R5 9602   2.735   7.535   9.083 -0.1190  0.0385  0.0134
  611ERGO    C1 9603   2.726   7.742   8.763 -0.0480  0.1525  0.0855
  611ERGO    C2 9604   2.699   7.782   8.372 -0.2598  0.2792 -0.0400
  612ERGO   ROH 9605   3.739  14.116   9.801  0.0654  0.0035  0.0531
  612ERGO    R1 9606   3.678  14.144   9.526  0.0410 -0.0136  0.0566
  612ERGO    R2 9607   3.726  14.377   9.386 -0.0532  0.0081  0.0585
  612ERGO    R3 9608   3.862  14.211   9.220  0.0010  0.0621  0.0491
  612ERGO    R4 9609   3.815  14.453   9.061 -0.2697 -0.0281 -0.0106
  612ERGO    R5 9610   3.764  14.248   9.004 -0.1329 -0.0885  0.0826
  612ERGO    C1 9611   3.995  14.341   8.715 -0.3447  0.0014 -0.0599
  612ERGO    C2 9612   3.995  14.505   8.372 -0.0392 -0.0062 -0.3187
  613ERGO   ROH 9613   0.032   6.574   9.768  0.1817 -0.2676  0.1273
  613ERGO    R1 9614   0.137   6.472   9.525  0.1143 -0.1283  0.0374
  613ERGO    R2 9615  -0.022   6.367   9.326  0.0655 -0.1162  0.0660
  613ERGO    R3 9616   0.107   6.549   9.171 -0.0803  0.0013  0.0814
  613ERGO    R4 9617  -0.030   6.374   8.980  0.1057 -0.1245  0.0656
  613ERGO    R5 9618   0.182   6.423   8.981  0.0595  0.0695  0.0925
  613ERGO    C1 9619   0.087   6.548   8.634 -0.0079 -0.0191  0.0799
  613ERGO    C2 9620   0.096   6.579   8.335  0.1728  0.0714 -0.0612
  614ERGO   ROH 9621   0.799   7.222   9.993  0.0406  0.0842 -0.0592
  614ERGO    R1 9622   0.931   7.256   9.744 -0.0591  0.0125 -0.1260
  614ERGO    R2 9623   0.874   7.101   9.522 -0.2336  0.0161 -0.1047
  614ERGO    R3 9624   0.834   7.342   9.404 -0.1921  0.0324 -0.0789
  614ERGO    R4 9625   0.841   7.152   9.182  0.0946  0.1279 -0.1213
  614ERGO    R5 9626   0.961   7.331   9.202  0.0063  0.1491  0.0515
  614ERGO    C1 9627   0.784   7.408   8.873  0.3247  0.2082 -0.1067
  614ERGO    C2 9628   0.809   7.550   8.608 -0.0914  0.2258  0.0170
  615ERGO   ROH 9629  16.077   9.032   7.499  0.1004  0.1475  0.1144
  615ERGO    R1 9630  16.133   8.925   7.242  0.0901  0.0530  0.1502
  615ERGO    R2 9631  16.033   9.036   7.010 -0.0144 -0.0981  0.1161
  615ERGO    R3 9632  16.295   9.040   6.938 -0.0314 -0.0121  0.0616
  615ERGO    R4 9633  16.156   9.163   6.712 -0.1157 -0.1134  0.0683
  615ERGO    R5 9634  16.294   8.995   6.703 -0.0566 -0.0585  0.0743
  615ERGO    C1 9635  16.473   9.241   6.472 -0.1906 -0.0415 -0.0107
  615ERGO    C2 9636  16.540   9.407   6.152  0.0839 -0.2145 -0.1179
  616ERGO   ROH 9637   9.219   3.487   9.873 -0.0801 -0.0318  0.0798
  616ERGO    R1 9638   9.139   3.688   9.691  0.0520  0.0126  0.0711
  616ERGO    R2 9639   9.321   3.841   9.549  0.1499 -0.1149  0.0672
  616ERGO    R3 9640   9.177   3.753   9.335  0.0930 -0.0247  0.0668
  616ERGO    R4 9641   9.232   4.036   9.278  0.2810 -0.0479  0.0714
  616ERGO    R5 9642   9.037   3.939   9.278  0.2117  0.0741  0.0714
  616ERGO    C1 9643   9.046   4.067   8.919  0.3037  0.0758  0.0734
  616ERGO    C2 9644   8.940   3.947   8.575  0.0655  0.0846 -0.0839
  617ERGO   ROH 9645   6.296   7.684   9.594  0.0538 -0.0056 -0.1189
  617ERGO    R1 9646   6.245   7.824   9.353  0.0525 -0.0086 -0.1204
  617ERGO    R2 9647   6.424   7.827   9.143  0.0683  0.0203 -0.1062
  617ERGO    R3 9648   6.209   7.741   9.001  0.0917 -0.0075 -0.1249
  617ERGO    R4 9649   6.410   7.809   8.798  0.0484  0.1624 -0.1133
  617ERGO    R5 9650   6.204   7.883   8.808  0.0181  0.0745 -0.0643
  617ERGO    C1 9651   6.200   7.717   8.464  0.0588  0.2190 -0.1351
  617ERGO    C2 9652   6.246   7.582   8.182 -0.1740  0.0516  0.0547
  618ERGO   ROH 9653   5.711   5.564   9.729 -0.2546 -0.0047 -0.0112
  618ERGO    R1 9654   5.702   5.739   9.507 -0.3379  0.0478  0.0329
  618ERGO    R2 9655   5.759   5.656   9.250  0.0061  0.2057  0.0530
  618ERGO    R3 9656   5.515   5.762   9.196 -0.1184 -0.1532 -0.1177
  618ERGO    R4 9657   5.661   5.773   8.941  0.2472  0.5337  0.0959
  618ERGO    R5 9658   5.561   5.940   9.041 -0.2091  0.1948  0.2390
  618ERGO    C1 9659   5.375   5.941   8.709  0.2706  0.3877 -0.0394
  618ERGO    C2 9660   5.324   6.026   8.401  0.1119  0.1274  0.4183
  619ERGO   ROH 9661   0.484  16.067   9.409  0.2587 -0.0450  0.0431
  619ERGO    R1 9662   0.470  16.171   9.146  0.0772 -0.0499  0.0506
  619ERGO    R2 9663   0.500  16.439   9.090  0.1604 -0.0690  0.0133
  619ERGO    R3 9664   0.691  16.349   8.919 -0.0338 -0.1692 -0.1558
  619ERGO    R4 9665   0.590  16.595   8.795 -0.0519 -0.1389 -0.0904
  619ERGO    R5 9666   0.604  16.398   8.702 -0.2199 -0.1588 -0.0826
  619ERGO    C1 9667   0.822  16.601   8.462 -0.3577 -0.2736 -0.3095
  619ERGO    C2 9668   0.841  16.715   8.117  0.0822 -0.1255  0.0179
  620ERGO   ROH 9669  12.277  16.423  10.175 -0.0161 -0.0547 -0.0735
  620ERGO    R1 9670  12.085  16.358   9.977  0.0241 -0.0463 -0.1153
  620ERGO    R2 9671  12.012  16.534   9.777  0.1212 -0.0673 -0.1678
  620ERGO    R3 9672  12.079  16.327   9.615  0.1173 -0.1123 -0.1122
  620ERGO    R4 9673  11.917  16.505   9.446  0.1620 -0.1239 -0.1747
  620ERGO    R5 9674  11.883  16.293   9.480  0.1289 -0.1144 -0.1316
  620ERGO    C1 9675  11.924  16.294   9.101  0.1820 -0.1992 -0.1264
  620ERGO    C2 9676  11.739  16.468   8.887 -0.1453  0.3058  0.0592
  621ERGO   ROH 9677   5.741  15.880   9.682  0.1532 -0.0965  0.0989
  621ERGO    R1 9678   5.615  15.871   9.428  0.0631 -0.2187  0.1469
  621ERGO    R2 9679   5.695  16.031   9.217 -0.2139 -0.0922  0.1353
  621ERGO    R3 9680   5.714  15.793   9.087  0.0273 -0.0557  0.0980
  621ERGO    R4 9681   5.644  15.986   8.878 -0.1496 -0.0869  0.1244
  621ERGO    R5 9682   5.540  15.800   8.923  0.0277 -0.1991  0.0886
  621ERGO    C1 9683   5.632  15.736   8.559  0.1144 -0.0495  0.0830
  621ERGO    C2 9684   5.680  15.841   8.269 -0.1197 -0.1866 -0.1459
  622ERGO   ROH 9685  11.575   9.607  10.064  0.0890  0.0558  0.0798
  622ERGO    R1 9686  11.485   9.686   9.807  0.0178  0.1121  0.1222
  622ERGO    R2 9687  11.657   9.782   9.612 -0.0057 -0.0538  0.0236
  622ERGO    R3 9688  11.545   9.584   9.463 -0.2589  0.0318  0.0945
  622ERGO    R4 9689  11.651   9.773   9.267  0.3016 -0.3243  0.0199
  622ERGO    R5 9690  11.447   9.697   9.277  0.1307  0.0792 -0.0955
  622ERGO    C1 9691  11.542   9.582   8.926  0.2426 -0.4016  0.0844
  622ERGO    C2 9692  11.589   9.578   8.692  0.1453  0.0811  0.3296
  623ERGO   ROH 9693  10.707   6.739   9.653  0.0460  0.0464  0.0874
  623ERGO    R1 9694  10.757   6.827   9.389  0.0225 -0.0546  0.0474
  623ERGO    R2 9695  11.004   6.921   9.307  0.0125 -0.0523 -0.0054
  623ERGO    R3 9696  10.978   6.730   9.115  0.0239 -0.1404  0.0820
  623ERGO    R4 9697  11.059   6.971   8.970 -0.4110 -0.1039 -0.0865
  623ERGO    R5 9698  10.885   6.847   8.928 -0.3105 -0.3128  0.1406
  623ERGO    C1 9699  11.066   6.820   8.593 -0.6469 -0.2165 -0.0519
  623ERGO    C2 9700  11.324   6.806   8.410  0.0065 -0.0885  0.2137
  624ERGO   ROH 9701   7.121  17.447   9.836 -0.1512  0.0965  0.0794
  624ERGO    R1 9702   7.170  17.346   9.576 -0.0756  0.0262  0.1206
  624ERGO    R2 9703   6.969  17.241   9.417 -0.0610  0.1495  0.0224
  624ERGO    R3 9704   7.060  17.423   9.237  0.1724  0.0588  0.0449
  624ERGO    R4 9705   6.903  17.234   9.078  0.0322  0.1984  0.0031
  624ERGO    R5 9706   7.109  17.294   9.042  0.1077 -0.0006  0.0641
  624ERGO    C1 9707   6.951  17.401   8.712  0.3054  0.1413  0.0129
  624ERGO    C2 9708   6.776  17.339   8.391  0.3610 -0.1882  0.0104
  625ERGO   ROH 9709  16.139  16.228   9.785 -0.2282 -0.0718  0.1053
  625ERGO    R1 9710  16.191  16.217   9.507 -0.1096 -0.1370  0.1290
  625ERGO    R2 9711  16.173  15.983   9.361 -0.1717 -0.1493  0.1525
  625ERGO    R3 9712  16.005  16.130   9.206 -0.0248 -0.0768  0.0593
  625ERGO    R4 9713  16.066  15.892   9.046 -0.3369 -0.2854  0.2465
  625ERGO    R5 9714  16.088  16.100   8.984 -0.0991 -0.3622  0.0680
  625ERGO    C1 9715  15.845  15.976   8.717 -0.2953 -0.2965  0.2138
  625ERGO    C2 9716  15.877  15.657   8.467 -0.2717 -0.3352  0.0549
  626ERGO   ROH 9717  13.541   3.480  10.057  0.1608  0.0503  0.1505
  626ERGO    R1 9718  13.527   3.552   9.784  0.0200  0.0199  0.1484
  626ERGO    R2 9719  13.482   3.812   9.701  0.1098  0.0360  0.1417
  626ERGO    R3 9720  13.711   3.771   9.559 -0.0048 -0.1133 -0.0023
  626ERGO    R4 9721  13.576   3.992   9.421  0.1636  0.1285  0.2192
  626ERGO    R5 9722  13.646   3.807   9.331 -0.0823  0.1139  0.0544
  626ERGO    C1 9723  13.844   4.059   9.125  0.0873  0.0421  0.1292
  626ERGO    C2 9724  13.750   4.172   8.929  0.1784 -0.1387 -0.0697
  627ERGO   ROH 9725   5.986   4.090   9.517 -0.0717  0.0264  0.0584
  627ERGO    R1 9726   6.199   4.155   9.342 -0.0954  0.0980  0.0532
  627ERGO    R2 9727   6.349   3.962   9.212  0.0086  0.1412  0.0912
  627ERGO    R3 9728   6.278   4.103   8.991 -0.0622  0.0663  0.0677
  627ERGO    R4 9729   6.535   3.980   8.922  0.0596  0.3089  0.1342
  627ERGO    R5 9730   6.485   4.191   8.908 -0.1303  0.2551  0.1129
  627ERGO    C1 9731   6.577   4.122   8.544  0.0229  0.3364  0.1372
  627ERGO    C2 9732   6.480   3.979   8.222 -0.0335 -0.0257  0.0248
  628ERGO   ROH 9733   3.540  13.713   9.770 -0.0257 -0.2076 -0.1554
  628ERGO    R1 9734   3.519  13.668   9.491  0.1202 -0.1892 -0.1711
  628ERGO    R2 9735   3.386  13.842   9.322  0.0482 -0.2682 -0.2023
  628ERGO    R3 9736   3.622  13.839   9.187  0.1083 -0.0660 -0.1053
  628ERGO    R4 9737   3.422  13.907   8.985  0.1430 -0.2132 -0.1818
  628ERGO    R5 9738   3.567  13.745   8.974  0.2773 -0.0924 -0.1355
  628ERGO    C1 9739   3.664  13.942   8.661  0.2547  0.0087 -0.0788
  628ERGO    C2 9740   3.530  14.087   8.510  0.0105 -0.1624  0.2239
  629ERGO   ROH 9741  14.621   6.024   9.954 -0.0445 -0.1127  0.1349
  629ERGO    R1 9742  14.702   5.924   9.702  0.0175 -0.0361  0.1243
  629ERGO    R2 9743  14.533   5.914   9.484  0.0284 -0.1029  0.1215
  629ERGO    R3 9744  14.733   6.053   9.363 -0.0454  0.0228  0.1401
  629ERGO    R4 9745  14.605   5.902   9.146  0.1623 -0.1827  0.1521
  629ERGO    R5 9746  14.818   5.902   9.197  0.1475  0.0230  0.2328
  629ERGO    C1 9747  14.836   6.024   8.836  0.1709 -0.1111  0.1873
  629ERGO    C2 9748  14.717   5.914   8.547 -0.0424 -0.0348 -0.3021
  630ERGO   ROH 9749   4.557  13.840   9.631  0.1496 -0.0952 -0.0453
  630ERGO    R1 9750   4.675  13.852   9.374  0.0092 -0.0998 -0.1119
  630ERGO    R2 9751   4.575  13.713   9.157 -0.1931  0.0012 -0.0931
  630ERGO    R3 9752   4.574  13.958   9.041 -0.1297  0.0325 -0.0264
  630ERGO    R4 9753   4.637  13.774   8.823  0.0329  0.1130 -0.0327
  630ERGO    R5 9754   4.751  13.950   8.881 -0.0232  0.0992  0.0941
  630ERGO    C1 9755   4.671  14.040   8.519  0.2240  0.2074  0.0651
  630ERGO    C2 9756   4.755  14.032   8.157  0.1522 -0.1329 -0.0416
  631ERGO   ROH 9757  12.673   3.864  10.269 -0.0596 -0.1078 -0.0118
  631ERGO    R1 9758  12.630   3.733  10.022  0.0129 -0.0178 -0.0733
  631ERGO    R2 9759  12.475   3.841   9.821  0.0702  0.0547 -0.0789
  631ERGO    R3 9760  12.698   3.800   9.671  0.1142  0.1121 -0.0296
  631ERGO    R4 9761  12.490   3.869   9.476  0.0857 -0.1499 -0.0958
  631ERGO    R5 9762  12.617   3.692   9.473  0.2065 -0.0671  0.0278
  631ERGO    C1 9763  12.707   3.846   9.135  0.1360 -0.2152 -0.0593
  631ERGO    C2 9764  12.770   3.841   8.809  0.0120 -0.1515 -0.1827
  632ERGO   ROH 9765   5.765   3.688   9.343  0.0532  0.0327  0.2827
  632ERGO    R1 9766   5.924   3.812   9.144  0.0647 -0.0788  0.2213
  632ERGO    R2 9767   6.038   3.672   8.935 -0.1470 -0.1558  0.1571
  632ERGO    R3 9768   5.909   3.857   8.783 -0.0661 -0.0338  0.2304
  632ERGO    R4 9769   6.088   3.720   8.596 -0.0472  0.0252  0.1953
  632ERGO    R5 9770   6.075   3.935   8.629 -0.0033  0.0152  0.3170
  632ERGO    C1 9771   5.995   3.921   8.257  0.0869  0.2451  0.2864
  632ERGO    C2 9772   5.934   3.911   7.887 -0.1199  0.1553 -0.0947
  633ERGO   ROH 9773  10.315   4.359   9.964 -0.0872  0.1503 -0.0175
  633ERGO    R1 9774  10.307   4.274   9.694 -0.1422 -0.0228  0.0376
  633ERGO    R2 9775  10.089   4.143   9.585 -0.3071  0.2158  0.0789
  633ERGO    R3 9776  10.101   4.343   9.401  0.0249  0.0770 -0.0592
  633ERGO    R4 9777   9.993   4.113   9.254 -0.2063  0.1018  0.0588
  633ERGO    R5 9778  10.166   4.233   9.199 -0.0248 -0.1532  0.0437
  633ERGO    C1 9779   9.949   4.283   8.889  0.1641 -0.0948 -0.0827
  633ERGO    C2 9780   9.854   4.339   8.548 -0.0898  0.0346  0.1404
  634ERGO   ROH 9781   1.510   4.329   9.608 -0.0068 -0.0951 -0.0000
  634ERGO    R1 9782   1.600   4.360   9.341 -0.0175 -0.1163 -0.0063
  634ERGO    R2 9783   1.690   4.148   9.188 -0.0229 -0.1289  0.0066
  634ERGO    R3 9784   1.502   4.236   9.013 -0.0306 -0.1432  0.0079
  634ERGO    R4 9785   1.729   4.158   8.845 -0.0036 -0.0689  0.0106
  634ERGO    R5 9786   1.627   4.351   8.844 -0.0449 -0.0910  0.0330
  634ERGO    C1 9787   1.575   4.247   8.481  0.0004 -0.0473  0.0142
  634ERGO    C2 9788   1.427   4.148   8.130 -0.1066 -0.0097 -0.2161
  635ERGO   ROH 9789  13.585  11.577   9.381  0.0626  0.2791  0.0435
  635ERGO    R1 9790  13.669  11.607   9.112  0.0363 -0.1606 -0.0230
  635ERGO    R2 9791  13.565  11.456   8.906 -0.5009 -0.0371  0.1321
  635ERGO    R3 9792  13.514  11.699   8.796  0.1395  0.0484 -0.0119
  635ERGO    R4 9793  13.483  11.509   8.574 -0.6111 -0.0374  0.1594
  635ERGO    R5 9794  13.610  11.686   8.577 -0.0689 -0.4071 -0.0807
  635ERGO    C1 9795  13.387  11.768   8.278 -0.0741  0.0427  0.0402
  635ERGO    C2 9796  13.237  11.876   8.006  0.1764  0.4702  0.1676
  636ERGO   ROH 9797   3.420   5.429   9.771 -0.0609 -0.0708  0.1535
  636ERGO    R1 9798   3.451   5.268   9.539  0.0233  0.0526  0.0782
  636ERGO    R2 9799   3.249   5.233   9.354  0.0610  0.0781  0.0340
  636ERGO    R3 9800   3.439   5.318   9.179  0.0576  0.2252  0.0996
  636ERGO    R4 9801   3.194   5.299   9.020  0.1155  0.0669  0.0226
  636ERGO    R5 9802   3.386   5.206   8.975  0.1970  0.2029  0.0730
  636ERGO    C1 9803   3.340   5.417   8.660  0.1440  0.1986  0.0774
  636ERGO    C2 9804   3.355   5.389   8.386 -0.1365 -0.0573 -0.0496
  637ERGO   ROH 9805  12.408   2.821  10.081 -0.0523 -0.2992 -0.0398
  637ERGO    R1 9806  12.353   2.762   9.809 -0.1502 -0.1305 -0.0575
  637ERGO    R2 9807  12.263   2.953   9.630  0.0580  0.0461  0.0269
  637ERGO    R3 9808  12.477   2.871   9.485 -0.0532 -0.1529 -0.0294
  637ERGO    R4 9809  12.269   2.924   9.286 -0.0415  0.1174  0.0183
  637ERGO    R5 9810  12.383   2.740   9.308 -0.2317 -0.0150 -0.0427
  637ERGO    C1 9811  12.474   2.831   8.949 -0.2038 -0.0278 -0.0394
  637ERGO    C2 9812  12.487   2.848   8.735  0.1986 -0.0530  0.0167
  638ERGO   ROH 9813  17.913  16.606   9.838  0.1384  0.0153 -0.1356
  638ERGO    R1 9814  17.893  16.585   9.557  0.1389  0.1730 -0.1481
  638ERGO    R2 9815  17.725  16.405   9.432  0.2756  0.1143 -0.2486
  638ERGO    R3 9816  17.632  16.627   9.306  0.0901  0.1194 -0.1067
  638ERGO    R4 9817  17.682  16.434   9.090  0.2338  0.2883 -0.2289
  638ERGO    R5 9818  17.759  16.638   9.103  0.0721  0.3450 -0.1086
  638ERGO    C1 9819  17.570  16.661   8.773  0.0354  0.3944 -0.0842
  638ERGO    C2 9820  17.474  16.747   8.484  0.4320  0.0053  0.2010
  639ERGO   ROH 9821  14.585   9.449  10.376 -0.2294  0.0472 -0.1863
  639ERGO    R1 9822  14.564   9.524  10.104 -0.1328 -0.0335 -0.2171
  639ERGO    R2 9823  14.743   9.439   9.912 -0.0545 -0.0793 -0.1274
  639ERGO    R3 9824  14.518   9.355   9.785 -0.0028 -0.1307 -0.1846
  639ERGO    R4 9825  14.697   9.443   9.569 -0.0599  0.1329 -0.1252
  639ERGO    R5 9826  14.492   9.509   9.603 -0.1004 -0.0189 -0.0762
  639ERGO    C1 9827  14.458   9.367   9.251 -0.0147  0.2083 -0.1776
  639ERGO    C2 9828  14.485   9.331   8.889 -0.1763  0.1233 -0.0527
  640ERGO   ROH 9829   9.984   5.421   9.933  0.1107 -0.0491 -0.0744
  640ERGO    R1 9830   9.942   5.299   9.681 -0.0599 -0.0829 -0.0318
  640ERGO    R2 9831   9.694   5.211   9.597 -0.1532  0.0703  0.0732
  640ERGO    R3 9832   9.746   5.370   9.383 -0.1117 -0.0171  0.0180
  640ERGO    R4 9833   9.581   5.153   9.276 -0.1296 -0.0347  0.0838
  640ERGO    R5 9834   9.775   5.218   9.201 -0.1146 -0.0888  0.0779
  640ERGO    C1 9835   9.564   5.269   8.888 -0.0770 -0.1779  0.0381
  640ERGO    C2 9836   9.588   5.311   8.571 -0.3545  0.1489  0.3137
  641ERGO   ROH 9837   0.253   2.407   9.290 -0.0238  0.1201 -0.1337
  641ERGO    R1 9838   0.206   2.227   9.077  0.0245  0.0183 -0.0603
  641ERGO    R2 9839   0.013   2.272   8.884  0.0686 -0.0698 -0.1309
  641ERGO    R3 9840   0.222   2.238   8.713  0.1117 -0.1524 -0.0619
  641ERGO    R4 9841   0.007   2.073   8.601  0.0422  0.0467 -0.2124
  641ERGO    R5 9842   0.209   2.008   8.649 -0.0254 -0.1164 -0.1587
  641ERGO    C1 9843   0.200   1.926   8.276  0.0672  0.0370 -0.1952
  641ERGO    C2 9844   0.166   1.811   7.899  0.0207 -0.2627 -0.1858
  642ERGO   ROH 9845  16.069   2.757   9.629  0.0011  0.1238 -0.0160
  642ERGO    R1 9846  15.961   2.840   9.380  0.0274  0.1711 -0.0119
  642ERGO    R2 9847  16.099   3.003   9.205  0.1679 -0.0345 -0.0982
  642ERGO    R3 9848  16.048   2.802   9.029 -0.1052 -0.0342 -0.0243
  642ERGO    R4 9849  16.066   3.043   8.863  0.0160 -0.0894 -0.0907
  642ERGO    R5 9850  15.902   2.900   8.867 -0.1084  0.0550  0.0329
  642ERGO    C1 9851  15.999   2.878   8.499 -0.3286 -0.1210 -0.0169
  642ERGO    C2 9852  16.212   2.823   8.317 -0.0893  0.2050 -0.1271
  643ERGO   ROH 9853  16.067   7.561   9.736 -0.2292  0.1085 -0.1879
  643ERGO    R1 9854  16.252   7.655   9.544 -0.0446  0.1493  0.0057
  643ERGO    R2 9855  16.173   7.755   9.298  0.2053 -0.2091 -0.2312
  643ERGO    R3 9856  16.320   7.971   9.375 -0.1986  0.0691 -0.2102
  643ERGO    R4 9857  16.321   7.981   9.082  0.1989 -0.1976 -0.2234
  643ERGO    R5 9858  16.495   7.984   9.213  0.0167  0.1625  0.0251
  643ERGO    C1 9859  16.544   8.315   9.029 -0.1838  0.0703 -0.1992
  643ERGO    C2 9860  16.540   8.552   8.761 -0.1331 -0.0957  0.1727
  644ERGO   ROH 9861   5.919  10.576   9.954  0.3040  0.0322 -0.0094
  644ERGO    R1 9862   5.817  10.646   9.699  0.1041  0.0632  0.0765
  644ERGO    R2 9863   5.756  10.907   9.630  0.1875  0.0941  0.1065
  644ERGO    R3 9864   5.922  10.856   9.421 -0.0336 -0.0265 -0.0434
  644ERGO    R4 9865   5.775  11.097   9.342 -0.0372 -0.0143  0.0173
  644ERGO    R5 9866   5.793  10.913   9.227 -0.2062 -0.0570  0.0627
  644ERGO    C1 9867   5.943  11.160   8.979 -0.3755 -0.1906 -0.1754
  644ERGO    C2 9868   5.984  11.331   8.762  0.1954  0.0143  0.2145
  645ERGO   ROH 9869   1.499   9.013   9.766  0.1033 -0.1068  0.0645
  645ERGO    R1 9870   1.446   9.161   9.531  0.1502 -0.0727  0.0749
  645ERGO    R2 9871   1.645   9.290   9.389  0.2089 -0.2164  0.0221
  645ERGO    R3 9872   1.545   9.146   9.181  0.0529 -0.1509  0.0504
  645ERGO    R4 9873   1.768   9.298   9.066 -0.1252 -0.0021 -0.1053
  645ERGO    R5 9874   1.563   9.293   8.993 -0.2011 -0.0471  0.1037
  645ERGO    C1 9875   1.747   9.167   8.683 -0.4661  0.1843 -0.1532
  645ERGO    C2 9876   2.055   9.102   8.472 -0.0968 -0.1567  0.0428
  646ERGO   ROH 9877  12.578  17.398   9.914 -0.0490 -0.0821  0.0975
  646ERGO    R1 9878  12.507  17.314   9.652 -0.0066 -0.0450  0.0736
  646ERGO    R2 9879  12.246  17.312   9.562 -0.0022 -0.1144  0.0594
  646ERGO    R3 9880  12.348  17.464   9.361 -0.0435 -0.0306  0.1012
  646ERGO    R4 9881  12.119  17.327   9.241  0.1445 -0.2590 -0.0065
  646ERGO    R5 9882  12.323  17.328   9.165  0.1838 -0.0705  0.0967
  646ERGO    C1 9883  12.141  17.477   8.865  0.1911 -0.2645 -0.0056
  646ERGO    C2 9884  11.998  17.694   8.736  0.3628  0.0002  0.2604
  647ERGO   ROH 9885   7.089  16.404   9.960  0.0550 -0.0613 -0.0197
  647ERGO    R1 9886   7.153  16.346   9.690  0.0380  0.1050 -0.0606
  647ERGO    R2 9887   6.983  16.204   9.524  0.1753 -0.0957 -0.0344
  647ERGO    R3 9888   7.012  16.421   9.363 -0.1976 -0.0039  0.0137
  647ERGO    R4 9889   6.954  16.200   9.180  0.2217 -0.0780 -0.0386
  647ERGO    R5 9890   7.123  16.336   9.168 -0.0190  0.2347  0.0078
  647ERGO    C1 9891   6.963  16.401   8.828 -0.1013  0.0186  0.0042
  647ERGO    C2 9892   6.784  16.391   8.474  0.2932 -0.0885 -0.3678
  648ERGO   ROH 9893   2.024   4.560   9.571 -0.2845  0.1344  0.0237
  648ERGO    R1 9894   2.082   4.435   9.323 -0.1821  0.0617  0.0844
  648ERGO    R2 9895   1.960   4.510   9.087 -0.1478 -0.0667  0.0290
  648ERGO    R3 9896   2.216   4.538   9.001 -0.1357 -0.0152  0.0782
  648ERGO    R4 9897   2.065   4.460   8.762 -0.0583 -0.1472  0.0686
  648ERGO    R5 9898   2.244   4.363   8.840 -0.0436 -0.0645  0.1445
  648ERGO    C1 9899   2.367   4.459   8.491  0.0051 -0.1458  0.1379
  648ERGO    C2 9900   2.495   4.510   8.092 -0.3684 -0.4169  0.0998
  649ERGO   ROH 9901  17.555   5.455   9.601 -0.0482  0.0564 -0.0151
  649ERGO    R1 9902  17.543   5.400   9.324  0.1774 -0.0435 -0.0071
  649ERGO    R2 9903  17.434   5.577   9.141 -0.0439 -0.2765 -0.1057
  649ERGO    R3 9904  17.675   5.549   9.019  0.0706  0.1020  0.0164
  649ERGO    R4 9905  17.507   5.682   8.820 -0.0732 -0.2428 -0.1019
  649ERGO    R5 9906  17.621   5.500   8.791  0.2603 -0.0604  0.0031
  649ERGO    C1 9907  17.775   5.717   8.518  0.0173  0.1321  0.0150
  649ERGO    C2 9908  17.894   5.891   8.296  0.3191  0.0305 -0.0306
  650ERGO   ROH 9909  15.793   5.808   9.690 -0.0488 -0.2642 -0.0520
  650ERGO    R1 9910  15.828   5.975   9.464  0.0539 -0.1055  0.0787
  650ERGO    R2 9911  15.999   5.912   9.258  0.0399 -0.0330  0.0426
  650ERGO    R3 9912  15.777   5.948   9.105  0.0686  0.1965  0.0517
  650ERGO    R4 9913  16.001   5.954   8.915  0.0485 -0.3425  0.0011
  650ERGO    R5 9914  15.845   6.106   8.938  0.3001 -0.0618 -0.1044
  650ERGO    C1 9915  15.793   6.013   8.572  0.0807 -0.3072 -0.0145
  650ERGO    C2 9916  15.583   6.007   8.232 -0.3452  0.3983  0.1477
  651ERGO   ROH 9917  10.924   1.078  10.067 -0.0572  0.2277  0.0827
  651ERGO    R1 9918  11.013   1.073   9.798  0.0039  0.0900  0.1038
  651ERGO    R2 9919  10.900   0.908   9.608 -0.0223  0.0645  0.1368
  651ERGO    R3 9920  10.868   1.141   9.471  0.1071  0.0293  0.0460
  651ERGO    R4 9921  10.836   0.931   9.269  0.0008 -0.0254  0.1264
  651ERGO    R5 9922  10.974   1.101   9.260  0.0901 -0.1044  0.0652
  651ERGO    C1 9923  10.770   1.164   8.943  0.1356 -0.1108  0.0352
  651ERGO    C2 9924  10.449   1.203   8.808  0.3874  0.1363 -0.1889
  652ERGO   ROH 9925   3.396  11.444   9.869 -0.0454  0.1086  0.0147
  652ERGO    R1 9926   3.482  11.669   9.719 -0.0912  0.1081 -0.0118
  652ERGO    R2 9927   3.627  11.644   9.485 -0.0561  0.1112  0.0107
  652ERGO    R3 9928   3.427  11.797   9.383 -0.0869  0.0379 -0.0400
  652ERGO    R4 9929   3.604  11.744   9.155 -0.1220 -0.0776 -0.0427
  652ERGO    R5 9930   3.536  11.939   9.224 -0.1252 -0.0428 -0.1403
  652ERGO    C1 9931   3.402  11.945   8.867 -0.1891 -0.2564 -0.1213
  652ERGO    C2 9932   3.353  11.915   8.523 -0.1340 -0.1603 -0.0769
  653ERGO   ROH 9933  16.356  10.563   9.786 -0.2010 -0.1002  0.1082
  653ERGO    R1 9934  16.232  10.379   9.611 -0.1552 -0.0463  0.0200
  653ERGO    R2 9935  16.018  10.448   9.449 -0.0496  0.0269 -0.0800
  653ERGO    R3 9936  16.179  10.350   9.252  0.0237  0.0090 -0.0136
  653ERGO    R4 9937  15.911  10.351   9.135  0.0068 -0.2857 -0.0080
  653ERGO    R5 9938  16.047  10.182   9.145  0.1457 -0.1775  0.1133
  653ERGO    C1 9939  15.999  10.204   8.767  0.1086 -0.4845  0.0963
  653ERGO    C2 9940  15.929  10.177   8.432 -0.2406 -0.2369  0.3820
  654ERGO   ROH 9941   2.943  14.558   9.821 -0.0449 -0.1150 -0.0268
  654ERGO    R1 9942   2.863  14.682   9.579 -0.0817 -0.0752  0.0047
  654ERGO    R2 9943   3.041  14.747   9.379 -0.0942  0.0606  0.0321
  654ERGO    R3 9944   2.872  14.601   9.224 -0.0241  0.0334 -0.0180
  654ERGO    R4 9945   2.983  14.804   9.043  0.0523 -0.0019 -0.0039
  654ERGO    R5 9946   2.772  14.762   9.078  0.0395  0.0036 -0.0914
  654ERGO    C1 9947   2.790  14.699   8.702  0.2033 -0.0638 -0.0719
  654ERGO    C2 9948   2.803  14.487   8.370  0.0201 -0.2267 -0.2325
  655ERGO   ROH 9949   8.013   9.866   9.863  0.0623 -0.2908  0.0227
  655ERGO    R1 9950   8.183  10.023   9.700  0.0376 -0.1582  0.1238
  655ERGO    R2 9951   8.450   9.962   9.663  0.0258 -0.1379  0.0216
  655ERGO    R3 9952   8.382   9.972   9.400 -0.0209  0.0916  0.0397
  655ERGO    R4 9953   8.669  10.033   9.405  0.0635 -0.2631  0.0184
  655ERGO    R5 9954   8.512  10.152   9.311  0.1861 -0.0147  0.1154
  655ERGO    C1 9955   8.732  10.083   9.007  0.0417 -0.1205  0.0334
  655ERGO    C2 9956   8.811  10.017   8.726  0.0310 -0.2114 -0.0271
  656ERGO   ROH 9957   2.426  15.706   9.576  0.2143  0.2043  0.1226
  656ERGO    R1 9958   2.348  15.617   9.319  0.1784  0.1677  0.1467
  656ERGO    R2 9959   2.354  15.782   9.098  0.2582  0.1021  0.1027
  656ERGO    R3 9960   2.505  15.582   8.993  0.1674  0.0022  0.1577
  656ERGO    R4 9961   2.436  15.752   8.763  0.1736 -0.0731  0.0956
  656ERGO    R5 9962   2.405  15.537   8.780  0.1028 -0.0578  0.1986
  656ERGO    C1 9963   2.627  15.548   8.470  0.0390 -0.2689  0.1429
  656ERGO    C2 9964   2.825  15.425   8.257  0.0826 -0.0491  0.1216
  657ERGO   ROH 9965  16.380   1.163   9.793  0.1901 -0.0563 -0.0849
  657ERGO    R1 9966  16.154   1.133   9.625  0.0802 -0.2885  0.0979
  657ERGO    R2 9967  16.168   1.164   9.351 -0.2159 -0.0400  0.1073
  657ERGO    R3 9968  16.057   0.916   9.350  0.1867 -0.2304  0.0126
  657ERGO    R4 9969  16.077   0.990   9.066 -0.2683  0.0839  0.0471
  657ERGO    R5 9970  15.897   0.923   9.171 -0.0448 -0.3127  0.2076
  657ERGO    C1 9971  15.919   0.656   8.900  0.0793 -0.0226 -0.0770
  657ERGO    C2 9972  15.881   0.469   8.662  0.0105 -0.0107  0.2976
  658ERGO   ROH 9973   2.889  10.124   9.626  0.1787 -0.0010  0.0314
  658ERGO    R1 9974   2.995  10.181   9.370  0.0906 -0.0366 -0.0137
  658ERGO    R2 9975   3.160  10.005   9.235 -0.0206 -0.0917 -0.0826
  658ERGO    R3 9976   2.976  10.034   9.037 -0.0960 -0.0335 -0.0043
  658ERGO    R4 9977   3.227   9.979   8.897 -0.1401  0.0907 -0.1219
  658ERGO    R5 9978   3.094  10.148   8.862 -0.1866  0.0770  0.0084
  658ERGO    C1 9979   3.093   9.991   8.515 -0.2803  0.2516 -0.0714
  658ERGO    C2 9980   3.211  10.125   8.075 -0.1387  0.1365  0.0551
  659ERGO   ROH 9981  16.658   6.457   9.704  0.0116  0.0833 -0.0361
  659ERGO    R1 9982  16.741   6.548   9.449  0.0914 -0.0746 -0.0672
  659ERGO    R2 9983  16.816   6.376   9.247 -0.1702 -0.2143 -0.0454
  659ERGO    R3 9984  16.628   6.512   9.106 -0.0146  0.0101 -0.0428
  659ERGO    R4 9985  16.839   6.455   8.911 -0.0871 -0.2681 -0.0527
  659ERGO    R5 9986  16.754   6.650   8.956  0.1534 -0.1532 -0.0597
  659ERGO    C1 9987  16.676   6.628   8.583  0.1072 -0.0888 -0.0545
  659ERGO    C2 9988  16.664   6.704   8.231 -0.1966  0.1444 -0.0235
  660ERGO   ROH 9989   2.461   8.738   9.856  0.0515 -0.0266 -0.0362
  660ERGO    R1 9990   2.491   8.830   9.590  0.1140 -0.0628 -0.0423
  660ERGO    R2 9991   2.645   8.697   9.403 -0.1461 -0.3012 -0.0954
  660ERGO    R3 9992   2.416   8.704   9.257 -0.1862  0.0601 -0.0245
  660ERGO    R4 9993   2.629   8.754   9.062 -0.1364 -0.4925 -0.1283
  660ERGO    R5 9994   2.452   8.877   9.096  0.1133 -0.1127 -0.1504
  660ERGO    C1 9995   2.404   8.793   8.727 -0.1684 -0.2648 -0.0808
  660ERGO    C2 9996   2.301   8.659   8.441  0.0718 -0.2220 -0.1244
  661ERGO   ROH 9997  18.424   3.584   9.357  0.0249 -0.2753 -0.0468
  661ERGO    R1 9998  18.265   3.610   9.124  0.0214 -0.1433 -0.0297
  661ERGO    R2 9999  18.315   3.802   8.931  0.1231 -0.1469 -0.0030
  661ERGO    R310000  18.317   3.586   8.765 -0.0252 -0.1227 -0.0391
  661ERGO    R410001  18.250   3.812   8.591 -0.2507 -0.0983  0.0650
  661ERGO    R510002  18.138   3.627   8.612 -0.2044 -0.1216  0.1610
  661ERGO    C110003  18.215   3.617   8.238 -0.6075 -0.0472  0.0707
  661ERGO    C210004  18.170   3.744   7.965 -0.3434 -0.2209  0.0525
  662ERGO   ROH10005   1.459  12.000   9.453  0.1228 -0.1100  0.0404
  662ERGO    R110006   1.601  12.125   9.244  0.0030 -0.0657 -0.0152
  662ERGO    R210007   1.827  12.015   9.130  0.1291  0.1133  0.0569
  662ERGO    R310008   1.688  12.048   8.899  0.1060 -0.1527  0.0297
  662ERGO    R410009   1.970  12.067   8.820  0.0936  0.3532  0.0793
  662ERGO    R510010   1.813  12.213   8.778 -0.1669  0.0704  0.0421
  662ERGO    C110011   1.923  12.129   8.422  0.0511  0.2432  0.0669
  662ERGO    C210012   1.958  12.203   8.132 -0.0961 -0.0476 -0.2549
  663ERGO   ROH10013   2.491   0.544   9.599 -0.1217  0.2102  0.1905
  663ERGO    R110014   2.369   0.698   9.395 -0.2922 -0.0953  0.0564
  663ERGO    R210015   2.514   0.835   9.205 -0.4294  0.1149  0.1047
  663ERGO    R310016   2.359   0.695   9.031 -0.0571 -0.2502  0.0476
  663ERGO    R410017   2.497   0.893   8.864 -0.7247  0.3624  0.1571
  663ERGO    R510018   2.282   0.859   8.875 -0.6415 -0.3378  0.2138
  663ERGO    C110019   2.340   0.795   8.503 -0.5473  0.1638  0.1340
  663ERGO    C210020   2.505   0.763   8.235 -0.0587 -0.0540 -0.1423
  664ERGO   ROH10021  15.245  18.411   9.773 -0.1067  0.1539  0.0205
  664ERGO    R110022  15.345  18.333   9.520 -0.0381  0.0865  0.0686
  664ERGO    R210023  15.213  18.389   9.284  0.0032 -0.0188  0.0234
  664ERGO    R310024  15.451  18.500   9.215 -0.0028  0.0008  0.0325
  664ERGO    R410025  15.292  18.504   8.968 -0.0132  0.0164  0.0318
  664ERGO    R510026  15.492  18.419   8.993 -0.0048  0.0225  0.0211
  664ERGO    C110027  15.562  18.675   8.719 -0.0282  0.0555  0.0451
  664ERGO    C210028  15.566  18.683   8.396 -0.0416  0.0949 -0.0983
  665ERGO   ROH10029   1.051   3.017   9.415  0.1469 -0.1488 -0.0189
  665ERGO    R110030   1.048   2.869   9.174 -0.0645  0.0782 -0.1601
  665ERGO    R210031   1.046   2.989   8.925  0.3719  0.3285 -0.0494
  665ERGO    R310032   1.264   2.833   8.883  0.0355 -0.1639 -0.0606
  665ERGO    R410033   1.169   2.900   8.614  0.3152  0.3014 -0.0649
  665ERGO    R510034   1.207   2.700   8.692 -0.1950  0.1257 -0.2069
  665ERGO    C110035   1.446   2.702   8.395 -0.0336 -0.1767 -0.0847
  665ERGO    C210036   1.666   2.748   8.110  0.1424  0.1473  0.4714
  666ERGO   ROH10037  15.453  15.310   9.814  0.1597 -0.2733 -0.1489
  666ERGO    R110038  15.242  15.396   9.647  0.1232 -0.1199 -0.0261
  666ERGO    R210039  15.254  15.379   9.371 -0.0001 -0.0153 -0.0372
  666ERGO    R310040  15.020  15.244   9.401 -0.0444  0.0690  0.0045
  666ERGO    R410041  15.028  15.317   9.117 -0.0283  0.0025 -0.0167
  666ERGO    R510042  14.866  15.358   9.258 -0.0111  0.0896 -0.0180
  666ERGO    C110043  14.677  15.154   8.997 -0.0863  0.0919  0.0342
  666ERGO    C210044  14.575  14.944   8.786 -0.0245 -0.3834  0.2537
  667ERGO   ROH10045   4.480  11.460   9.772  0.0120 -0.1437 -0.0050
  667ERGO    R110046   4.343  11.539   9.538 -0.0073 -0.0670  0.0319
  667ERGO    R210047   4.324  11.376   9.315  0.0424  0.0374 -0.0486
  667ERGO    R310048   4.057  11.419   9.346  0.0290 -0.0545 -0.0308
  667ERGO    R410049   4.083  11.306   9.077  0.0319 -0.1962  0.0277
  667ERGO    R510050   3.983  11.492   9.131 -0.0359 -0.2060 -0.0614
  667ERGO    C110051   3.692  11.306   8.968  0.0133 -0.4185  0.0888
  667ERGO    C210052   3.573  11.440   8.657  0.1245  0.0928  0.0595
  668ERGO   ROH10053   5.900   0.463  10.182  0.0302 -0.4087 -0.0443
  668ERGO    R110054   6.000   0.389   9.927 -0.0535 -0.1089 -0.1694
  668ERGO    R210055   6.028   0.570   9.720  0.0111  0.1706  0.0747
  668ERGO    R310056   6.284   0.478   9.719 -0.0393  0.0287 -0.0920
  668ERGO    R410057   6.257   0.626   9.467 -0.0242  0.3191  0.0754
  668ERGO    R510058   6.326   0.421   9.490 -0.1315  0.2546 -0.1671
  668ERGO    C110059   6.631   0.573   9.319 -0.0921  0.2722 -0.0806
  668ERGO    C210060   6.826   0.764   9.086 -0.0834  0.2712  0.1032
  669ERGO   ROH10061   8.146  11.223   9.860  0.0372  0.1336  0.0452
  669ERGO    R110062   8.132  11.263   9.580 -0.1267 -0.0803  0.0199
  669ERGO    R210063   8.354  11.324   9.428 -0.2926  0.3291 -0.0728
  669ERGO    R310064   8.275  11.107   9.284  0.1589  0.0399  0.0909
  669ERGO    R410065   8.415  11.278   9.091 -0.3839  0.3071 -0.0864
  669ERGO    R510066   8.213  11.197   9.071 -0.2060 -0.2191  0.0780
  669ERGO    C110067   8.375  11.048   8.759 -0.0130  0.0227  0.0596
  669ERGO    C210068   8.341  11.000   8.465  0.1544  0.1958 -0.1947
  670ERGO   ROH10069  11.251   2.685  10.071  0.0634 -0.0619  0.0699
  670ERGO    R110070  11.346   2.775   9.820  0.0484 -0.1404  0.0357
  670ERGO    R210071  11.383   2.606   9.605 -0.0886 -0.1846  0.0486
  670ERGO    R310072  11.222   2.784   9.478 -0.0286 -0.1199  0.0632
  670ERGO    R410073  11.393   2.676   9.266  0.0243 -0.0751  0.0744
  670ERGO    R510074  11.364   2.887   9.314  0.0376 -0.0839  0.1387
  670ERGO    C110075  11.248   2.885   8.951  0.1462  0.0493  0.1030
  670ERGO    C210076  11.059   2.852   8.585  0.1004  0.3186  0.2717
  671ERGO   ROH10077  18.175   6.809   9.679 -0.0329  0.2107  0.1501
  671ERGO    R110078  18.332   6.780   9.446  0.0096  0.1888  0.1814
  671ERGO    R210079  18.226   6.697   9.204  0.0833  0.0109  0.2090
  671ERGO    R310080  18.340   6.926   9.113 -0.0384  0.0338  0.1116
  671ERGO    R410081  18.326   6.752   8.878 -0.0504 -0.0296  0.1603
  671ERGO    R510082  18.503   6.853   8.954 -0.0640  0.0598  0.0740
  671ERGO    C110083  18.491   7.000   8.602 -0.2426 -0.0317  0.0405
  671ERGO    C210084  18.419   7.055   8.328  0.2566 -0.2004  0.0439
  672ERGO   ROH10085   3.332   1.728   9.427 -0.0510  0.0909  0.0768
  672ERGO    R110086   3.295   1.806   9.157 -0.0428 -0.0145  0.0448
  672ERGO    R210087   3.502   1.899   8.999 -0.0491 -0.0212  0.0326
  672ERGO    R310088   3.420   1.701   8.832  0.0153 -0.1014  0.0949
  672ERGO    R410089   3.578   1.881   8.663 -0.0362 -0.1087  0.0397
  672ERGO    R510090   3.374   1.813   8.626 -0.0146 -0.1831  0.0568
  672ERGO    C110091   3.545   1.685   8.309  0.0316 -0.2349  0.1023
  672ERGO    C210092   3.517   1.783   7.967 -0.2137 -0.4010  0.1473
  673ERGO   ROH10093   5.695  17.888   9.789  0.2227 -0.0279 -0.1050
  673ERGO    R110094   5.728  17.763   9.537  0.1384 -0.0779 -0.0924
  673ERGO    R210095   5.523  17.630   9.410  0.0982 -0.1283  0.0118
  673ERGO    R310096   5.586  17.796   9.204  0.0041 -0.1597 -0.0421
  673ERGO    R410097   5.414  17.591   9.084 -0.1239 -0.1125  0.0832
  673ERGO    R510098   5.612  17.650   9.016 -0.1591 -0.1708 -0.0520
  673ERGO    C110099   5.409  17.724   8.701 -0.3415 -0.1330  0.0741
  673ERGO    C210100   5.430  17.685   8.372  0.0474  0.1660 -0.1088
  674loPI    C110101  10.962  15.026   5.508  0.2243 -0.1069  0.1951
  674loPI    C210102  11.189  15.223   5.244  0.0655  0.0421  0.1681
  674loPI    C310103  10.915  14.961   5.117 -0.1723  0.2856  0.1699
  674loPI   PO410104  11.097  14.927   5.684 -0.0009  0.3404  0.0672
  674loPI   GL110105  11.194  14.870   6.072 -0.0932 -0.1007  0.0371
  674loPI   GL210106  10.888  15.024   6.127 -0.0494  0.0456 -0.0780
  674loPI   C1A10107  11.345  14.961   6.555 -0.3701 -0.0768 -0.0636
  674loPI   C2A10108  11.378  14.983   7.025 -0.0304 -0.2359 -0.1624
  674loPI   C3A10109  11.467  14.936   7.428  0.0956  0.0936 -0.2465
  674loPI   C4A10110  11.440  14.624   7.846 -0.1137 -0.1640 -0.0873
  674loPI   C5A10111  11.182  14.354   8.058  0.2147 -0.0299 -0.2145
  674loPI   C6A10112  11.086  14.181   8.459  0.0894 -0.0874 -0.0955
  674loPI   C1B10113  10.850  15.122   6.637  0.0781  0.1482  0.2129
  674loPI   C2B10114  10.910  15.101   7.102 -0.0420  0.0230 -0.0533
  674loPI   C3B10115  10.920  15.052   7.543  0.0659 -0.0134  0.1020
  674loPI   C4B10116  11.163  14.997   7.889 -0.0919 -0.1378  0.0716
  675loPI    C110117  12.131   8.719   5.249  0.0481 -0.0657  0.1461
  675loPI    C210118  12.190   8.650   4.860  0.2086 -0.2319  0.1981
  675loPI    C310119  11.890   8.887   4.978  0.1853 -0.1460 -0.0275
  675loPI   PO410120  12.359   8.856   5.297  0.0496 -0.0937 -0.0453
  675loPI   GL110121  12.680   8.979   5.661 -0.0101  0.0179  0.0573
  675loPI   GL210122  12.780   8.634   5.514  0.2675  0.0059 -0.1351
  675loPI   C1A10123  12.549   9.142   6.009  0.3285  0.0931 -0.3389
  675loPI   C2A10124  12.505   8.821   6.392  0.4026 -0.0318  0.1901
  675loPI   C3A10125  12.456   8.930   6.914  0.0476 -0.0072 -0.2477
  675loPI   C4A10126  12.581   8.821   7.323  0.1485  0.0096 -0.3737
  675loPI   C5A10127  12.939   8.923   7.609 -0.1771  0.0662 -0.1130
  675loPI   C6A10128  13.070   9.351   7.727 -0.1008 -0.1774 -0.0358
  675loPI   C1B10129  12.840   8.602   6.000  0.2505  0.4286  0.1664
  675loPI   C2B10130  12.978   8.802   6.381 -0.0101 -0.0421 -0.2094
  675loPI   C3B10131  12.962   8.793   6.829  0.1296 -0.3312  0.0682
  675loPI   C4B10132  13.102   8.631   7.199 -0.1174 -0.0223  0.0149
  676loPI    C110133  18.365   4.793   5.037 -0.1031 -0.0952  0.2554
  676loPI    C210134  18.413   4.960   4.676  0.1615 -0.3141  0.1864
  676loPI    C310135  18.303   5.186   4.987 -0.2157 -0.1496 -0.0586
  676loPI   PO410136  18.548   4.584   5.056  0.3775 -0.1300 -0.3337
  676loPI   GL110137  18.776   4.647   5.435  0.1451  0.0170  0.1329
  676loPI   GL210138  19.011   4.931   5.473  0.0372  0.0874  0.1009
  676loPI   C1A10139  18.716   4.542   5.873  0.0206 -0.0234 -0.3806
  676loPI   C2A10140  18.850   4.562   6.320  0.3210 -0.0041 -0.1324
  676loPI   C3A10141  18.751   4.796   6.661  0.1035  0.1630 -0.1817
  676loPI   C4A10142  18.662   5.057   7.048  0.2718 -0.2714  0.1143
  676loPI   C5A10143  18.345   5.010   7.474 -0.1092 -0.1474  0.3515
  676loPI   C6A10144  17.914   5.076   7.606  0.0028  0.0595  0.0502
  676loPI   C1B10145  19.135   4.837   5.936 -0.1035  0.3108 -0.1020
  676loPI   C2B10146  19.179   4.933   6.325  0.0340  0.0015 -0.2158
  676loPI   C3B10147  19.200   5.019   6.734 -0.0259  0.1076 -0.0727
  676loPI   C4B10148  19.174   5.284   7.056 -0.1242 -0.0809 -0.0678
  677loPI    C110149  17.977   4.713   4.755  0.2784 -0.1391 -0.3140
  677loPI    C210150  17.674   4.559   4.544  0.1509 -0.0846 -0.1724
  677loPI    C310151  18.012   4.668   4.359 -0.0141  0.0985 -0.3701
  677loPI   PO410152  17.885   4.884   4.905 -0.0640 -0.2328 -0.1269
  677loPI   GL110153  17.946   4.884   5.273  0.0917  0.0609  0.1555
  677loPI   GL210154  17.801   4.983   5.401  0.1300  0.1964 -0.2210
  677loPI   C1A10155  18.150   4.796   5.702 -0.1499 -0.2538 -0.1406
  677loPI   C2A10156  18.306   4.725   6.070  0.0275 -0.0007 -0.2682
  677loPI   C3A10157  18.371   4.587   6.414 -0.2595  0.0574 -0.1988
  677loPI   C4A10158  18.314   4.233   6.769  0.0953 -0.1168  0.2458
  677loPI   C5A10159  18.174   3.918   7.086 -0.0621  0.0852 -0.3496
  677loPI   C6A10160  18.104   3.545   7.366  0.2050 -0.2325  0.1030
  677loPI   C1B10161  17.602   4.994   5.839 -0.1614 -0.0749 -0.0817
  677loPI   C2B10162  17.671   5.145   6.184  0.1225  0.2292  0.0726
  677loPI   C3B10163  17.773   5.462   6.466  0.1488 -0.1729  0.0872
  677loPI   C4B10164  17.790   5.601   6.843  0.0238  0.3479  0.0949
  678loPI    C110165   0.215  14.966   4.749  0.0598 -0.1384  0.1166
  678loPI    C210166   0.470  14.719   4.564  0.2992  0.0967  0.1279
  678loPI    C310167   0.392  15.080   4.408 -0.0238  0.0297  0.1284
  678loPI   PO410168   0.292  15.005   4.961  0.1468 -0.0955 -0.0815
  678loPI   GL110169   0.341  14.646   5.364  0.0028  0.0916 -0.1984
  678loPI   GL210170   0.459  14.357   5.340 -0.2120  0.3564  0.3955
  678loPI   C1A10171   0.321  14.897   5.649 -0.0664  0.1339 -0.1627
  678loPI   C2A10172   0.360  14.937   6.054 -0.3519  0.4989 -0.2158
  678loPI   C3A10173   0.258  14.774   6.495  0.0873  0.0322 -0.1204
  678loPI   C4A10174   0.194  14.719   6.985  0.0435  0.2717 -0.0287
  678loPI   C5A10175   0.022  14.677   7.454 -0.1728  0.0474 -0.1087
  678loPI   C6A10176  -0.283  14.317   7.562 -0.0064 -0.1423 -0.1314
  678loPI   C1B10177   0.699  14.394   5.620 -0.0447  0.0456 -0.2721
  678loPI   C2B10178   0.453  14.433   6.071  0.0428 -0.0092 -0.3061
  678loPI   C3B10179   0.702  14.252   6.436 -0.3007 -0.3521  0.1139
  678loPI   C4B10180   0.696  13.873   6.686 -0.2610 -0.1213  0.0312
  679loPI    C110181   7.695   1.868   5.144 -0.1628  0.1889 -0.3192
  679loPI    C210182   8.086   1.892   5.063 -0.1488  0.2512 -0.2345
  679loPI    C310183   7.818   2.013   4.792 -0.1121  0.1191 -0.3302
  679loPI   PO410184   7.532   1.611   5.252  0.0086 -0.0656  0.0924
  679loPI   GL110185   7.586   1.460   5.677 -0.2774  0.2027 -0.0892
  679loPI   GL210186   7.524   1.133   5.541 -0.1788  0.0874 -0.3051
  679loPI   C1A10187   7.437   1.452   6.138  0.0085 -0.0385  0.2563
  679loPI   C2A10188   7.299   1.310   6.526  0.0241 -0.0997  0.3990
  679loPI   C3A10189   7.415   1.389   6.857 -0.2671 -0.2038  0.3672
  679loPI   C4A10190   7.313   1.390   7.320 -0.1988  0.3009 -0.1131
  679loPI   C5A10191   7.382   1.303   7.710 -0.1902  0.1766 -0.0270
  679loPI   C6A10192   7.413   1.259   8.071 -0.2729 -0.2435  0.1175
  679loPI   C1B10193   7.515   0.974   5.954  0.0845 -0.1172 -0.0128
  679loPI   C2B10194   7.490   0.865   6.477 -0.4699  0.1586  0.1166
  679loPI   C3B10195   7.353   0.943   6.941 -0.0949 -0.1054  0.0946
  679loPI   C4B10196   7.368   0.925   7.399 -0.3306  0.1737  0.1842
  680loPI    C110197  13.232   9.579   5.147  0.0335  0.0158 -0.1376
  680loPI    C210198  12.912   9.537   4.910 -0.0423  0.0442 -0.0413
  680loPI    C310199  13.274   9.598   4.749 -0.0788 -0.0267 -0.1518
  680loPI   PO410200  13.178   9.671   5.337  0.2070 -0.0439  0.0195
  680loPI   GL110201  13.289   9.510   5.823 -0.3710 -0.0601  0.0567
  680loPI   GL210202  12.881   9.474   5.754  0.1024  0.0547  0.2755
  680loPI   C1A10203  13.307   9.648   6.160  0.3163 -0.2325  0.0701
  680loPI   C2A10204  13.243   9.675   6.497 -0.1864  0.1701  0.0176
  680loPI   C3A10205  13.160   9.609   6.898 -0.3565  0.0595  0.3563
  680loPI   C4A10206  13.216   9.641   7.262  0.1518 -0.1479 -0.0407
  680loPI   C5A10207  13.101   9.870   7.678  0.3227  0.0929 -0.1670
  680loPI   C6A10208  12.869   9.987   8.026 -0.0079 -0.1380  0.2722
  680loPI   C1B10209  12.798   9.705   6.103  0.0360 -0.0475  0.0121
  680loPI   C2B10210  12.719   9.802   6.453 -0.2487 -0.1802  0.0208
  680loPI   C3B10211  12.698   9.780   6.854 -0.0373 -0.1403  0.0822
  680loPI   C4B10212  12.782   9.833   7.196  0.3220  0.1818 -0.2796
  681loPI    C110213   3.770  16.500   4.714 -0.0614 -0.0229 -0.0615
  681loPI    C210214   3.695  16.629   4.343 -0.0786  0.1103 -0.0122
  681loPI    C310215   3.392  16.536   4.587 -0.0685  0.0708 -0.0146
  681loPI   PO410216   3.947  16.653   4.958 -0.3030  0.1211  0.2666
  681loPI   GL110217   3.984  16.629   5.377  0.2513  0.0345 -0.0687
  681loPI   GL210218   3.918  16.977   5.476 -0.4650  0.2368 -0.0037
  681loPI   C1A10219   4.014  16.449   5.808  0.1708 -0.1375  0.1343
  681loPI   C2A10220   3.852  16.265   6.194  0.2566 -0.0327 -0.1348
  681loPI   C3A10221   3.764  16.350   6.559  0.0048  0.2000 -0.3542
  681loPI   C4A10222   3.636  16.360   6.900  0.2965  0.3157  0.0579
  681loPI   C5A10223   3.308  16.571   7.206  0.0162 -0.2951 -0.2490
  681loPI   C6A10224   2.965  16.868   7.400  0.1128  0.0327 -0.5718
  681loPI   C1B10225   3.996  16.952   5.857  0.1808  0.0823 -0.0370
  681loPI   C2B10226   3.938  16.830   6.286  0.1536  0.2087 -0.1162
  681loPI   C3B10227   3.822  16.978   6.649 -0.3806 -0.2562 -0.2849
  681loPI   C4B10228   3.743  16.921   7.030 -0.1032 -0.0808  0.0381
  682loPI    C110229   3.865   9.952   4.988  0.1328  0.0311 -0.0072
  682loPI    C210230   3.763  10.127   4.643 -0.0472 -0.0662 -0.0046
  682loPI    C310231   3.963   9.781   4.640  0.1121  0.0245 -0.0098
  682loPI   PO410232   3.712   9.964   5.165  0.0020 -0.0494 -0.0862
  682loPI   GL110233   3.485  10.366   5.341  0.0372  0.3891  0.0659
  682loPI   GL210234   3.447  10.285   5.685 -0.0197  0.1691  0.1780
  682loPI   C1A10235   3.577  10.723   5.590  0.0366  0.2197 -0.1522
  682loPI   C2A10236   3.735  10.811   6.014  0.0433  0.0323  0.0872
  682loPI   C3A10237   3.735  10.849   6.436  0.3559  0.1773 -0.1915
  682loPI   C4A10238   3.628  10.905   6.814  0.0806 -0.2348  0.2259
  682loPI   C5A10239   3.788  10.951   7.250 -0.1495  0.0107 -0.0809
  682loPI   C6A10240   3.614  10.746   7.609  0.0207 -0.2614  0.0343
  682loPI   C1B10241   3.474  10.308   6.102  0.0765  0.2767 -0.1507
  682loPI   C2B10242   3.526  10.345   6.522  0.1985 -0.0843 -0.0394
  682loPI   C3B10243   3.646  10.431   6.931 -0.0595  0.0996  0.2081
  682loPI   C4B10244   3.668  10.307   7.331 -0.0471  0.0266 -0.2425
  683loPI    C110245   9.172   1.330   5.286  0.2014  0.1647 -0.0703
  683loPI    C210246   9.508   1.147   5.173  0.2134  0.1817 -0.0621
  683loPI    C310247   9.215   1.208   4.908  0.0307 -0.2394  0.0354
  683loPI   PO410248   9.265   1.463   5.456  0.0335 -0.2289 -0.3265
  683loPI   GL110249   9.397   1.531   5.877 -0.2548 -0.0870  0.2359
  683loPI   GL210250   9.579   1.340   6.029  0.3293 -0.1173  0.1550
  683loPI   C1A10251   9.317   1.669   6.282  0.0798  0.2815  0.1561
  683loPI   C2A10252   9.150   1.690   6.650  0.0129 -0.0534 -0.0226
  683loPI   C3A10253   9.025   1.804   7.043  0.2968  0.3470 -0.0435
  683loPI   C4A10254   9.074   1.922   7.432  0.1589  0.0324 -0.1441
  683loPI   C5A10255   9.447   1.913   7.575 -0.0982 -0.0998  0.3872
  683loPI   C6A10256   9.677   1.759   7.849  0.2725 -0.0707  0.2686
  683loPI   C1B10257   9.785   1.258   6.341  0.0535  0.0465  0.2127
  683loPI   C2B10258   9.667   1.152   6.769 -0.0160 -0.1887  0.0798
  683loPI   C3B10259   9.572   1.070   7.171 -0.1725 -0.0108 -0.4295
  683loPI   C4B10260   9.631   0.907   7.606  0.1693 -0.1062  0.0553
  684loPI    C110261   4.490   5.509   4.876 -0.0167  0.1945 -0.1752
  684loPI    C210262   4.135   5.456   5.052  0.0435 -0.3248 -0.1968
  684loPI    C310263   4.154   5.526   4.658 -0.0506  0.1014 -0.1304
  684loPI   PO410264   4.630   5.273   4.993 -0.0222 -0.1721 -0.0672
  684loPI   GL110265   4.819   5.205   5.413 -0.0471  0.0691  0.1414
  684loPI   GL210266   5.167   5.271   5.454 -0.1029 -0.0900 -0.4179
  684loPI   C1A10267   4.890   4.967   5.752 -0.0788  0.3087 -0.1126
  684loPI   C2A10268   4.964   5.001   6.152 -0.1576 -0.1057  0.1249
  684loPI   C3A10269   5.177   4.993   6.584 -0.1333  0.1601 -0.0567
  684loPI   C4A10270   5.158   5.105   7.070 -0.3463 -0.1682  0.0084
  684loPI   C5A10271   4.993   5.178   7.454  0.0739  0.3195 -0.0132
  684loPI   C6A10272   5.075   5.129   7.828  0.2102  0.0251  0.1192
  684loPI   C1B10273   5.127   5.443   5.889  0.0940 -0.0670  0.1227
  684loPI   C2B10274   5.083   5.476   6.298  0.0207  0.0660  0.2420
  684loPI   C3B10275   5.035   5.518   6.752  0.1271 -0.0015  0.1269
  684loPI   C4B10276   4.816   5.556   7.139  0.1287  0.1658  0.1054
  685loPI    C110277  13.477  17.001   5.414 -0.1603  0.0317  0.2867
  685loPI    C210278  13.847  17.149   5.382 -0.0613 -0.2623  0.0325
  685loPI    C310279  13.536  17.359   5.245 -0.0041  0.0342  0.3447
  685loPI   PO410280  13.442  16.990   5.630  0.0202 -0.0577 -0.4492
  685loPI   GL110281  13.489  17.290   6.029  0.0837  0.1704 -0.0419
  685loPI   GL210282  13.377  17.635   5.949  0.1782 -0.0750  0.2826
  685loPI   C1A10283  13.671  17.409   6.557 -0.1460  0.1755  0.0094
  685loPI   C2A10284  13.717  17.535   6.970  0.0587 -0.0488 -0.0502
  685loPI   C3A10285  13.628  17.515   7.444 -0.2255 -0.0516  0.1653
  685loPI   C4A10286  13.695  17.349   7.765 -0.1537 -0.0665 -0.2466
  685loPI   C5A10287  13.508  17.236   8.232 -0.0265 -0.1316  0.0556
  685loPI   C6A10288  13.130  17.227   8.453 -0.2647 -0.2249 -0.0350
  685loPI   C1B10289  13.591  17.902   6.231  0.0201 -0.2534  0.0481
  685loPI   C2B10290  13.500  18.096   6.721 -0.1506 -0.0232  0.0922
  685loPI   C3B10291  13.667  17.945   7.251 -0.2885  0.0898 -0.4302
  685loPI   C4B10292  13.886  17.922   7.710 -0.2717 -0.1122 -0.1879
  686loPI    C110293   6.748   7.205   5.073  0.0401 -0.0076 -0.0065
  686loPI    C210294   7.048   7.466   5.117 -0.1396  0.1815  0.1183
  686loPI    C310295   6.837   7.460   4.777  0.0014  0.0505  0.0316
  686loPI   PO410296   6.879   6.999   5.232 -0.0475 -0.1797  0.1311
  686loPI   GL110297   6.951   7.017   5.667 -0.2999  0.1401 -0.0647
  686loPI   GL210298   7.147   7.206   5.611 -0.1665 -0.0369 -0.3671
  686loPI   C1A10299   6.989   7.117   6.153  0.1245  0.0263 -0.2063
  686loPI   C2A10300   6.836   6.987   6.532 -0.0257 -0.2039 -0.0105
  686loPI   C3A10301   6.659   7.158   6.920 -0.1311  0.1669  0.3081
  686loPI   C4A10302   6.439   7.186   7.302  0.2290 -0.0382 -0.1086
  686loPI   C5A10303   6.289   7.166   7.715  0.2487  0.0934 -0.2152
  686loPI   C6A10304   6.377   7.066   8.133  0.0093 -0.1070 -0.1656
  686loPI   C1B10305   7.452   7.086   5.883  0.1548  0.1782  0.0216
  686loPI   C2B10306   7.527   7.089   6.343  0.0006  0.1731 -0.3665
  686loPI   C3B10307   7.356   7.118   6.773  0.3185 -0.0524 -0.0141
  686loPI   C4B10308   7.111   6.998   7.105  0.3134  0.4124 -0.3254
  687loPI    C110309   7.153   0.170   5.071  0.1392  0.0016 -0.0122
  687loPI    C210310   7.047   0.050   4.705  0.0789  0.0068  0.0035
  687loPI    C310311   7.128   0.436   4.773 -0.0566  0.0310  0.0295
  687loPI   PO410312   7.032   0.087   5.268 -0.2336  0.1687 -0.0112
  687loPI   GL110313   6.957  -0.122   5.671  0.2306  0.2556 -0.0691
  687loPI   GL210314   7.294  -0.233   5.561 -0.1505 -0.0833  0.0165
  687loPI   C1A10315   6.952  -0.245   6.106 -0.3123 -0.0701 -0.1252
  687loPI   C2A10316   6.816  -0.242   6.526 -0.0208  0.1985  0.0222
  687loPI   C3A10317   6.714  -0.256   6.948 -0.2267  0.0206  0.0526
  687loPI   C4A10318   6.671  -0.176   7.459 -0.0015  0.0003  0.1648
  687loPI   C5A10319   6.571  -0.267   7.930 -0.3306  0.0765 -0.1699
  687loPI   C6A10320   6.234  -0.481   8.065  0.0948  0.0364 -0.0883
  687loPI   C1B10321   7.449  -0.321   5.980  0.0267  0.1880 -0.4335
  687loPI   C2B10322   7.373  -0.437   6.286  0.1192  0.4407  0.3091
  687loPI   C3B10323   7.298  -0.410   6.646 -0.2855  0.0807 -0.2611
  687loPI   C4B10324   7.188  -0.485   7.054 -0.2516  0.2623 -0.2160
  688loPI    C110325  15.919   4.956   4.827 -0.2004  0.0130 -0.1351
  688loPI    C210326  15.811   4.752   4.501 -0.2552 -0.0521 -0.0765
  688loPI    C310327  16.144   4.973   4.497 -0.0655 -0.3321 -0.0651
  688loPI   PO410328  15.802   4.800   5.009  0.2466 -0.0077 -0.4406
  688loPI   GL110329  15.802   4.746   5.487 -0.0508  0.2406  0.1735
  688loPI   GL210330  15.869   4.986   5.552  0.1319 -0.0131  0.2222
  688loPI   C1A10331  15.828   4.691   5.915  0.1106  0.1467 -0.0192
  688loPI   C2A10332  15.536   4.539   6.193 -0.0381 -0.1734  0.0669
  688loPI   C3A10333  15.593   4.709   6.550 -0.0460 -0.0237 -0.3762
  688loPI   C4A10334  15.618   5.016   6.962 -0.2253 -0.4038  0.1489
  688loPI   C5A10335  15.571   5.211   7.443 -0.1365  0.0525  0.1142
  688loPI   C6A10336  15.364   5.117   7.752  0.1560 -0.0232  0.0490
  688loPI   C1B10337  15.982   5.122   5.924 -0.0158 -0.1651  0.1965
  688loPI   C2B10338  15.921   5.049   6.371 -0.1619  0.3031  0.1968
  688loPI   C3B10339  16.031   5.052   6.737 -0.0971 -0.2462  0.0518
  688loPI   C4B10340  16.048   4.921   7.208 -0.2981 -0.1974 -0.1454
  689loPI    C110341  18.115  14.377   4.840 -0.0159 -0.1472 -0.0395
  689loPI    C210342  17.843  14.225   4.590 -0.0541 -0.0771 -0.0407
  689loPI    C310343  18.232  14.198   4.502 -0.0710  0.0179 -0.1476
  689loPI   PO410344  17.965  14.542   4.995  0.0717  0.1359 -0.0588
  689loPI   GL110345  17.947  14.457   5.416  0.2159  0.1183 -0.0512
  689loPI   GL210346  17.617  14.472   5.620  0.2359 -0.2399  0.3426
  689loPI   C1A10347  18.050  14.521   5.853 -0.3354  0.1738  0.1104
  689loPI   C2A10348  18.006  14.462   6.359  0.1449 -0.0468 -0.3818
  689loPI   C3A10349  17.915  14.390   6.769  0.0476 -0.1174 -0.2316
  689loPI   C4A10350  17.932  14.463   7.135 -0.1174 -0.1067  0.0156
  689loPI   C5A10351  17.781  14.433   7.583  0.0580 -0.1630 -0.1642
  689loPI   C6A10352  17.836  14.532   7.937  0.3422 -0.0269 -0.2946
  689loPI   C1B10353  17.567  14.509   6.004 -0.2035  0.3178  0.1392
  689loPI   C2B10354  17.446  14.518   6.395 -0.0658  0.0367 -0.0870
  689loPI   C3B10355  17.447  14.558   6.747 -0.3350  0.0909  0.2721
  689loPI   C4B10356  17.446  14.442   7.207  0.1700 -0.2805  0.0200
  690loPI    C110357  10.379  11.517   5.374  0.1716 -0.1597 -0.1065
  690loPI    C210358  10.744  11.410   5.250  0.0919 -0.0174 -0.4755
  690loPI    C310359  10.428  11.358   5.010 -0.1230 -0.0748 -0.1854
  690loPI   PO410360  10.428  11.438   5.627  0.2041 -0.4864 -0.0402
  690loPI   GL110361  10.417  11.170   5.954 -0.1235 -0.1064  0.1425
  690loPI   GL210362  10.288  10.848   5.831 -0.2362 -0.2428 -0.2934
  690loPI   C1A10363  10.392  11.211   6.401 -0.0654  0.0723 -0.0216
  690loPI   C2A10364  10.306  11.058   6.809 -0.1321 -0.0150 -0.0942
  690loPI   C3A10365  10.336  11.069   7.175  0.1343 -0.2277  0.3643
  690loPI   C4A10366  10.034  11.022   7.405 -0.0663  0.0305  0.2747
  690loPI   C5A10367   9.885  10.968   7.971  0.1319  0.1450  0.1401
  690loPI   C6A10368   9.926  10.753   8.395  0.0253  0.0241 -0.0861
  690loPI   C1B10369  10.320  10.719   6.257 -0.1527  0.0734  0.1771
  690loPI   C2B10370  10.328  10.583   6.661  0.0250 -0.0753  0.2062
  690loPI   C3B10371  10.564  10.661   6.980  0.2142 -0.0748  0.1799
  690loPI   C4B10372  10.861  10.982   7.124  0.3800 -0.2592 -0.2771
  691loPI    C110373   1.989   6.538   4.700  0.1585  0.0371  0.1527
  691loPI    C210374   2.385   6.578   4.666  0.1423  0.0411 -0.0400
  691loPI    C310375   2.142   6.785   4.425  0.0212  0.0856  0.1188
  691loPI   PO410376   1.898   6.567   4.951 -0.0038 -0.0850 -0.1875
  691loPI   GL110377   1.924   6.456   5.412  0.2831  0.0094  0.0633
  691loPI   GL210378   1.943   6.777   5.516 -0.0392 -0.0843 -0.3878
  691loPI   C1A10379   1.910   6.272   5.809 -0.1363 -0.0577  0.1889
  691loPI   C2A10380   1.937   6.502   6.141 -0.1000  0.3450  0.1882
  691loPI   C3A10381   1.678   6.606   6.457  0.3669  0.1987 -0.0803
  691loPI   C4A10382   1.770   6.667   6.952 -0.0049 -0.2937  0.1693
  691loPI   C5A10383   1.848   6.639   7.414 -0.1286 -0.1717  0.2778
  691loPI   C6A10384   2.016   6.239   7.660 -0.1806  0.2305  0.3187
  691loPI   C1B10385   2.026   6.983   5.932  0.1879 -0.2028 -0.1238
  691loPI   C2B10386   2.019   6.980   6.327  0.0976  0.0594  0.0265
  691loPI   C3B10387   2.054   6.983   6.698 -0.2062 -0.0236  0.1429
  691loPI   C4B10388   2.141   7.075   7.160  0.0518  0.0514  0.2878
  692loPI    C110389  15.823   6.239   5.008 -0.0688  0.1793 -0.0816
  692loPI    C210390  15.991   5.943   4.798 -0.1420  0.0132  0.0918
  692loPI    C310391  15.655   6.114   4.667 -0.0573  0.0731 -0.0487
  692loPI   PO410392  15.875   6.183   5.214  0.3801  0.0606 -0.3102
  692loPI   GL110393  15.950   6.337   5.641 -0.1476 -0.2577  0.3702
  692loPI   GL210394  16.128   6.602   5.768  0.2931  0.0760  0.1317
  692loPI   C1A10395  16.070   6.039   5.939 -0.1994 -0.1143  0.1092
  692loPI   C2A10396  16.016   6.102   6.447 -0.2313  0.2426  0.0199
  692loPI   C3A10397  15.916   6.029   6.872 -0.0106 -0.3395  0.0565
  692loPI   C4A10398  15.648   5.816   7.188  0.0224 -0.2294  0.1170
  692loPI   C5A10399  15.506   5.741   7.497  0.2941  0.0987  0.3658
  692loPI   C6A10400  15.223   5.701   7.712  0.0309 -0.2113  0.0712
  692loPI   C1B10401  16.039   6.698   6.299 -0.2172  0.2642 -0.2493
  692loPI   C2B10402  15.988   7.111   6.630 -0.0697  0.4298  0.1138
  692loPI   C3B10403  15.881   6.962   6.977 -0.1108  0.0893 -0.4586
  692loPI   C4B10404  16.066   6.764   7.292 -0.4494  0.0892  0.0683
  693loPI    C110405  11.778   0.265   5.315 -0.0442  0.1498 -0.0338
  693loPI    C210406  11.745   0.193   4.923  0.1380  0.1879 -0.0573
  693loPI    C310407  11.930   0.524   5.051  0.2498  0.0799  0.0630
  693loPI   PO410408  11.476   0.229   5.397  0.0963 -0.0731 -0.0646
  693loPI   GL110409  11.313   0.355   5.774  0.1690  0.2018  0.2018
  693loPI   GL210410  11.461   0.185   6.012 -0.0745 -0.1645  0.2680
  693loPI   C1A10411  11.446   0.694   6.063 -0.1564  0.4473 -0.6756
  693loPI   C2A10412  11.536   0.802   6.408  0.1186  0.1262  0.0918
  693loPI   C3A10413  11.481   0.800   6.896 -0.2396 -0.2047 -0.1842
  693loPI   C4A10414  11.564   0.946   7.400 -0.1930  0.0349 -0.0921
  693loPI   C5A10415  11.887   1.144   7.618 -0.1179  0.1170 -0.0744
  693loPI   C6A10416  12.206   1.372   7.541  0.3671 -0.2758  0.5738
  693loPI   C1B10417  11.619   0.115   6.552  0.0793  0.1650 -0.1897
  693loPI   C2B10418  11.790  -0.093   6.912  0.2930  0.1363 -0.0043
  693loPI   C3B10419  11.699  -0.008   7.417 -0.0919  0.0779 -0.1626
  693loPI   C4B10420  11.522   0.092   7.768  0.0243  0.0492  0.2294
  694loPI    C110421  12.652   7.207   5.312  0.1472 -0.0642  0.1079
  694loPI    C210422  12.859   7.244   4.971  0.0884 -0.0780  0.0705
  694loPI    C310423  12.459   7.245   4.964  0.0863  0.0698  0.1556
  694loPI   PO410424  12.771   7.275   5.486 -0.2207  0.3776 -0.0616
  694loPI   GL110425  12.896   7.416   5.917 -0.0793 -0.1797  0.0167
  694loPI   GL210426  12.749   7.679   5.893 -0.3133 -0.2231  0.1813
  694loPI   C1A10427  12.740   7.401   6.391  0.0762 -0.0840  0.1373
  694loPI   C2A10428  12.564   7.477   6.698 -0.1959 -0.0364  0.0164
  694loPI   C3A10429  12.466   7.364   7.056 -0.0101 -0.1510  0.0355
  694loPI   C4A10430  12.505   7.135   7.426 -0.0426 -0.1359 -0.0147
  694loPI   C5A10431  12.370   6.964   7.802 -0.1006 -0.0607  0.1643
  694loPI   C6A10432  12.577   7.240   8.213 -0.1188  0.3765  0.0031
  694loPI   C1B10433  12.747   7.886   6.139  0.1734  0.1209  0.0878
  694loPI   C2B10434  12.851   7.985   6.614 -0.1723  0.2117  0.0432
  694loPI   C3B10435  12.749   7.790   7.022  0.0489 -0.1532 -0.1977
  694loPI   C4B10436  12.878   7.423   7.330 -0.0539  0.0901 -0.1509
  695loPI    C110437  14.869  17.302   5.042  0.0153 -0.1684 -0.0222
  695loPI    C210438  14.618  17.349   4.734 -0.0136 -0.3844 -0.0332
  695loPI    C310439  15.013  17.341   4.671 -0.0088 -0.1889 -0.0337
  695loPI   PO410440  14.789  17.422   5.227 -0.0191  0.1728 -0.0718
  695loPI   GL110441  14.779  17.326   5.666 -0.1117  0.0263 -0.0468
  695loPI   GL210442  14.613  17.067   5.780  0.4392  0.1075 -0.0114
  695loPI   C1A10443  14.776  17.368   6.181  0.1322  0.0628  0.0766
  695loPI   C2A10444  14.733  17.183   6.610  0.0269  0.0413  0.1002
  695loPI   C3A10445  14.626  17.094   6.945  0.2579  0.2971  0.0029
  695loPI   C4A10446  14.671  17.181   7.446 -0.0128  0.0164 -0.1741
  695loPI   C5A10447  14.953  17.113   7.791  0.1126 -0.1515 -0.1855
  695loPI   C6A10448  14.805  16.920   8.163  0.0479  0.1078  0.0643
  695loPI   C1B10449  14.338  17.200   6.142  0.1289  0.2499 -0.1819
  695loPI   C2B10450  14.196  17.285   6.564 -0.0372  0.0960  0.2513
  695loPI   C3B10451  14.099  17.221   7.006 -0.1509  0.0513 -0.5075
  695loPI   C4B10452  13.916  17.063   7.389 -0.3181  0.2370 -0.0706
  696loPI    C110453  17.173  10.943   5.383  0.1178  0.3162  0.0505
  696loPI    C210454  17.181  10.850   4.994  0.0841 -0.1780  0.1610
  696loPI    C310455  16.847  10.996   5.158  0.0753 -0.0405  0.0228
  696loPI   PO410456  17.358  11.134   5.410  0.0224 -0.0806 -0.0100
  696loPI   GL110457  17.526  11.234   5.795  0.0491  0.0209  0.1589
  696loPI   GL210458  17.282  11.003   5.901 -0.1193  0.0685  0.4000
  696loPI   C1A10459  17.828  11.161   6.174 -0.1200  0.0751 -0.0061
  696loPI   C2A10460  18.016  11.131   6.564 -0.0783 -0.1486  0.2001
  696loPI   C3A10461  17.798  11.215   7.038 -0.0209  0.0625 -0.0661
  696loPI   C4A10462  17.745  11.495   7.419 -0.0090  0.0754 -0.0019
  696loPI   C5A10463  17.528  11.857   7.673 -0.1356  0.0360 -0.0721
  696loPI   C6A10464  17.362  12.217   7.938 -0.0528  0.1268  0.0539
  696loPI   C1B10465  17.355  11.070   6.295  0.3471 -0.1668 -0.1014
  696loPI   C2B10466  17.459  10.948   6.785 -0.1936 -0.4453 -0.0998
  696loPI   C3B10467  17.650  10.661   7.093 -0.0454 -0.0993 -0.0634
  696loPI   C4B10468  17.577  10.259   7.335 -0.0168 -0.1653  0.3915
  697loPI    C110469   3.177  11.780   4.634  0.1317 -0.1160 -0.1367
  697loPI    C210470   3.160  12.061   4.351 -0.2407 -0.1277 -0.1318
  697loPI    C310471   2.959  11.719   4.304 -0.1028 -0.2336  0.0370
  697loPI   PO410472   3.279  11.863   4.837  0.1688 -0.0783  0.2745
  697loPI   GL110473   3.507  11.865   5.282  0.2230  0.0272 -0.0591
  697loPI   GL210474   3.305  11.701   5.305  0.3269 -0.2444  0.0230
  697loPI   C1A10475   3.627  11.661   5.704  0.0488 -0.1342 -0.3418
  697loPI   C2A10476   3.666  11.683   6.045 -0.1456 -0.1031 -0.1058
  697loPI   C3A10477   3.548  11.729   6.432  0.1639 -0.4248  0.1157
  697loPI   C4A10478   3.662  11.779   6.767  0.0034  0.0712  0.2190
  697loPI   C5A10479   3.592  11.939   7.179 -0.0095  0.0583 -0.0424
  697loPI   C6A10480   3.821  11.874   7.494 -0.1632 -0.2168  0.1187
  697loPI   C1B10481   3.106  11.657   5.679 -0.2522 -0.2746  0.0636
  697loPI   C2B10482   3.053  11.715   6.085  0.2062 -0.1571 -0.3435
  697loPI   C3B10483   3.021  11.635   6.554 -0.4664 -0.0959 -0.3264
  697loPI   C4B10484   3.123  11.756   6.967  0.3244  0.2782 -0.1102
  698loPI    C110485   6.551   2.687   4.680  0.1389 -0.3660  0.0515
  698loPI    C210486   6.768   2.778   4.356 -0.0457  0.1397  0.0616
  698loPI    C310487   6.396   2.637   4.314  0.1194 -0.3066  0.0515
  698loPI   PO410488   6.728   2.630   4.837  0.0769  0.2043  0.0214
  698loPI   GL110489   6.742   2.558   5.345  0.2113 -0.1210  0.1011
  698loPI   GL210490   6.958   2.608   5.470  0.0624  0.2789 -0.0677
  698loPI   C1A10491   6.393   2.819   5.499 -0.2892  0.0438 -0.1308
  698loPI   C2A10492   6.229   2.665   5.884 -0.2046  0.2369  0.1447
  698loPI   C3A10493   6.214   2.700   6.398  0.1956 -0.0794  0.3127
  698loPI   C4A10494   6.235   2.799   6.845  0.1439  0.0236 -0.1109
  698loPI   C5A10495   6.069   2.908   7.281  0.0195 -0.0103 -0.2703
  698loPI   C6A10496   5.685   3.025   7.448  0.0117 -0.0720  0.1988
  698loPI   C1B10497   6.734   2.520   5.832  0.1110 -0.0312 -0.0467
  698loPI   C2B10498   6.677   2.525   6.221  0.1370 -0.1687  0.1175
  698loPI   C3B10499   6.641   2.542   6.687 -0.0771 -0.0095  0.2062
  698loPI   C4B10500   6.659   2.663   7.151 -0.1133  0.2310  0.0389
  699loPI    C110501  18.080  13.445   5.089  0.0174 -0.1022 -0.0838
  699loPI    C210502  17.733  13.638   5.138  0.1897  0.2296 -0.1454
  699loPI    C310503  17.736  13.267   4.988 -0.1603  0.0994  0.1551
  699loPI   PO410504  18.246  13.589   5.249  0.1301 -0.0149  0.3854
  699loPI   GL110505  18.401  13.709   5.588 -0.0566  0.0986  0.2029
  699loPI   GL210506  18.697  13.519   5.476  0.0671 -0.0180  0.2557
  699loPI   C1A10507  18.302  14.057   5.935 -0.2189  0.2106 -0.1283
  699loPI   C2A10508  18.273  14.026   6.351 -0.0190  0.0997  0.3074
  699loPI   C3A10509  18.268  14.054   6.747  0.0036  0.0539 -0.3317
  699loPI   C4A10510  18.179  13.971   7.199  0.1310 -0.0184 -0.0908
  699loPI   C5A10511  17.811  13.954   7.477  0.1103  0.1507  0.0834
  699loPI   C6A10512  17.641  13.670   7.496  0.0522  0.0574 -0.0133
  699loPI   C1B10513  18.950  13.542   5.911 -0.0156 -0.1578  0.3268
  699loPI   C2B10514  19.002  13.527   6.361  0.1840  0.0215  0.4165
  699loPI   C3B10515  19.064  13.388   6.801  0.1215  0.0787 -0.3221
  699loPI   C4B10516  19.405  13.507   7.029  0.0403  0.0883 -0.0133
  700loPI    C110517   9.964   9.656   5.032 -0.1109  0.1730  0.2704
  700loPI    C210518   9.915   9.263   5.085  0.1810  0.0114 -0.5115
  700loPI    C310519   9.607   9.489   4.968 -0.0121  0.0456  0.0353
  700loPI   PO410520  10.135   9.707   5.170 -0.1699  0.0340 -0.1297
  700loPI   GL110521  10.228   9.406   5.490  0.1045  0.3903  0.1504
  700loPI   GL210522  10.008   9.677   5.664 -0.1773  0.2209  0.0974
  700loPI   C1A10523  10.130   9.248   5.942  0.1453 -0.2760 -0.0031
  700loPI   C2A10524  10.065   9.252   6.379 -0.4009  0.2072  0.2525
  700loPI   C3A10525   9.880   9.251   6.793  0.2190 -0.0433  0.2252
  700loPI   C4A10526   9.809   9.268   7.212 -0.0986 -0.0722 -0.2750
  700loPI   C5A10527   9.580   9.358   7.696 -0.0006 -0.0598 -0.0536
  700loPI   C6A10528   9.815   9.345   8.075 -0.1115 -0.0024 -0.1965
  700loPI   C1B10529   9.848   9.626   6.021  0.1896  0.1326 -0.0576
  700loPI   C2B10530   9.864   9.762   6.453 -0.1522  0.1174  0.3114
  700loPI   C3B10531   9.847   9.740   6.957  0.3437  0.2511  0.1346
  700loPI   C4B10532   9.740   9.712   7.372 -0.0643  0.2395 -0.0344
  701loPI    C110533  12.137  18.477   5.378  0.0402 -0.0852  0.1683
  701loPI    C210534  12.251  18.651   5.036 -0.0702 -0.0602  0.1440
  701loPI    C310535  12.329  18.264   5.099 -0.0099 -0.0537  0.1096
  701loPI   PO410536  12.172  18.696   5.505  0.0024  0.0921 -0.1435
  701loPI   GL110537  11.937  18.873   5.798  0.1381 -0.2349 -0.0365
  701loPI   GL210538  12.014  18.569   5.960 -0.1214 -0.1791 -0.0273
  701loPI   C1A10539  11.862  19.000   6.163 -0.3115 -0.0392  0.0277
  701loPI   C2A10540  12.006  19.077   6.532  0.1357  0.0884 -0.0482
  701loPI   C3A10541  11.885  18.980   6.875 -0.0908 -0.4205  0.0975
  701loPI   C4A10542  11.651  19.049   7.273 -0.0531  0.1992 -0.2235
  701loPI   C5A10543  11.800  19.180   7.668 -0.1306 -0.1118  0.2806
  701loPI   C6A10544  11.870  19.367   8.067  0.1517  0.2653 -0.0829
  701loPI   C1B10545  12.284  18.711   6.300  0.0557 -0.1704 -0.2329
  701loPI   C2B10546  12.195  18.652   6.683  0.1790  0.3251 -0.0061
  701loPI   C3B10547  12.199  18.546   7.159 -0.0033  0.1242  0.2184
  701loPI   C4B10548  12.220  18.493   7.577 -0.2248  0.0408 -0.0537
  702loPI    C110549  10.369   1.690   5.438  0.2071 -0.0525  0.1230
  702loPI    C210550  10.353   2.076   5.337  0.0371 -0.1037 -0.0517
  702loPI    C310551  10.101   1.815   5.169  0.1510 -0.2911  0.0654
  702loPI   PO410552  10.517   1.640   5.647 -0.0605 -0.3112  0.1406
  702loPI   GL110553  10.692   1.743   5.998  0.0581 -0.2374  0.2596
  702loPI   GL210554  10.921   1.567   5.981  0.2253 -0.1428 -0.0082
  702loPI   C1A10555  10.902   1.954   6.290 -0.0241 -0.0468 -0.0430
  702loPI   C2A10556  11.204   2.069   6.639 -0.1865 -0.0861  0.3119
  702loPI   C3A10557  11.120   2.089   7.081  0.5364 -0.2499 -0.0738
  702loPI   C4A10558  11.072   2.385   7.498 -0.1307 -0.0098 -0.1743
  702loPI   C5A10559  11.229   2.687   7.846  0.1516  0.0506 -0.0866
  702loPI   C6A10560  10.935   2.778   8.110 -0.5636  0.1973 -0.0933
  702loPI   C1B10561  10.718   1.402   6.369  0.0310 -0.3977 -0.3128
  702loPI   C2B10562  10.587   1.763   6.605  0.0506 -0.2410 -0.0939
  702loPI   C3B10563  10.680   1.830   7.013 -0.0921 -0.0346 -0.0872
  702loPI   C4B10564  10.677   1.829   7.446 -0.3944 -0.0125  0.2806
  703loPI    C110565  14.208  14.188   5.071  0.0509  0.1251 -0.0757
  703loPI    C210566  14.069  14.406   4.766 -0.1525  0.0735 -0.0215
  703loPI    C310567  14.132  14.014   4.719 -0.1521  0.0719 -0.0073
  703loPI   PO410568  14.135  14.285   5.334 -0.1680 -0.1272 -0.2683
  703loPI   GL110569  14.094  14.435   5.742  0.1582  0.0464 -0.4306
  703loPI   GL210570  13.881  14.267   5.852  0.2395 -0.0281  0.3203
  703loPI   C1A10571  14.318  14.527   6.122 -0.0121  0.0623 -0.0352
  703loPI   C2A10572  14.459  14.457   6.547 -0.1514 -0.0013 -0.1086
  703loPI   C3A10573  14.394  14.228   6.860  0.0851 -0.0219  0.0208
  703loPI   C4A10574  14.111  14.180   7.131 -0.2294 -0.2610 -0.0282
  703loPI   C5A10575  13.976  14.191   7.554 -0.1986  0.0830  0.0717
  703loPI   C6A10576  13.961  14.248   7.990 -0.0180  0.2421  0.0224
  703loPI   C1B10577  14.172  14.026   6.061  0.0624  0.1454 -0.0952
  703loPI   C2B10578  14.538  14.023   6.321 -0.1054  0.0975  0.0495
  703loPI   C3B10579  14.833  13.825   6.536 -0.0487 -0.2163  0.3105
  703loPI   C4B10580  14.943  13.745   6.914 -0.2638  0.0443 -0.0402
  704loPI    C110581  10.437  12.957   5.615 -0.1391 -0.0598  0.0935
  704loPI    C210582  10.514  12.828   5.244  0.0544 -0.0060  0.1138
  704loPI    C310583  10.446  12.565   5.538  0.1916 -0.0559  0.1012
  704loPI   PO410584  10.582  13.118   5.687 -0.0364 -0.1570  0.3385
  704loPI   GL110585  10.504  13.368   6.042 -0.0564 -0.1259 -0.0863
  704loPI   GL210586  10.503  13.071   6.148  0.0172 -0.1926 -0.2212
  704loPI   C1A10587  10.309  13.445   6.415  0.1595  0.2392 -0.4218
  704loPI   C2A10588  10.214  13.377   6.835  0.1776  0.2107 -0.2819
  704loPI   C3A10589  10.287  13.209   7.195 -0.0773  0.0655 -0.2628
  704loPI   C4A10590  10.419  12.995   7.559  0.2678  0.0369  0.0369
  704loPI   C5A10591  10.259  12.569   7.778  0.0082  0.0695 -0.3077
  704loPI   C6A10592   9.827  12.373   8.068  0.3640 -0.0070 -0.0059
  704loPI   C1B10593  10.723  13.226   6.506 -0.1514  0.3056  0.1377
  704loPI   C2B10594  10.763  13.186   6.932 -0.0764 -0.1562  0.0457
  704loPI   C3B10595  11.130  13.009   7.123 -0.2642  0.0025 -0.4525
  704loPI   C4B10596  11.388  13.023   7.451 -0.3367 -0.2245 -0.0242
  705loPI    C110597   2.209  10.117   4.766 -0.2134  0.0205  0.0179
  705loPI    C210598   2.148  10.207   4.381 -0.1082 -0.0974 -0.0269
  705loPI    C310599   2.235   9.831   4.487  0.2205  0.0023  0.0701
  705loPI   PO410600   2.036  10.170   4.932  0.0857  0.2165  0.4654
  705loPI   GL110601   2.043  10.176   5.296  0.0664 -0.3664 -0.2757
  705loPI   GL210602   2.205   9.961   5.360  0.1497  0.3486 -0.0073
  705loPI   C1A10603   2.005  10.241   5.770 -0.1279  0.1197  0.3703
  705loPI   C2A10604   1.975  10.181   6.275 -0.2946  0.1670  0.4060
  705loPI   C3A10605   2.032  10.155   6.682 -0.2546  0.1076 -0.2965
  705loPI   C4A10606   1.989  10.122   7.098  0.1077 -0.1491 -0.0171
  705loPI   C5A10607   1.868  10.346   7.413 -0.2462 -0.2533 -0.0297
  705loPI   C6A10608   1.645  10.474   7.814 -0.0364  0.0149 -0.2055
  705loPI   C1B10609   2.430   9.693   5.740  0.2300  0.2018  0.0928
  705loPI   C2B10610   2.250   9.780   6.072  0.0444 -0.0420  0.0471
  705loPI   C3B10611   2.342   9.806   6.539  0.0480  0.1025 -0.0964
  705loPI   C4B10612   2.324   9.783   6.997 -0.1741 -0.0331 -0.1674
  706loPI    C110613  10.313   7.852   5.413 -0.1146 -0.3246 -0.0115
  706loPI    C210614  10.262   8.106   5.109  0.0116 -0.1609  0.1016
  706loPI    C310615  10.617   8.081   5.291 -0.0480 -0.2965  0.2016
  706loPI   PO410616  10.156   7.964   5.575 -0.3018  0.0541  0.0731
  706loPI   GL110617  10.043   7.964   5.942 -0.0667  0.2627 -0.0244
  706loPI   GL210618  10.004   8.254   6.005  0.2909  0.2466 -0.0833
  706loPI   C1A10619   9.726   7.856   6.220 -0.2135 -0.2195 -0.1216
  706loPI   C2A10620   9.564   7.827   6.684  0.2198  0.0203 -0.3682
  706loPI   C3A10621   9.459   7.660   7.129  0.0975 -0.1814 -0.1797
  706loPI   C4A10622   9.547   7.438   7.600 -0.1312  0.2229  0.0819
  706loPI   C5A10623   9.824   7.250   7.945 -0.0558  0.2620 -0.2540
  706loPI   C6A10624   9.953   6.823   7.959 -0.0348 -0.0558  0.2763
  706loPI   C1B10625  10.114   8.144   6.397 -0.1189  0.1162 -0.0154
  706loPI   C2B10626  10.185   8.066   6.797 -0.2086 -0.0019  0.0460
  706loPI   C3B10627  10.170   8.347   7.095  0.0537  0.0637 -0.2280
  706loPI   C4B10628  10.044   8.433   7.554  0.4863  0.1503  0.0627
  707loPI    C110629   0.109   0.032   4.748  0.0986  0.2148 -0.1429
  707loPI    C210630  -0.227   0.054   4.532  0.0509  0.0183 -0.0904
  707loPI    C310631   0.041  -0.235   4.458  0.2468  0.2213 -0.1845
  707loPI   PO410632   0.095   0.060   5.029 -0.1206  0.1615 -0.0402
  707loPI   GL110633   0.008   0.043   5.427 -0.0583  0.0589  0.0961
  707loPI   GL210634   0.277   0.041   5.522  0.0262 -0.1691 -0.0439
  707loPI   C1A10635  -0.143   0.302   5.769  0.1200 -0.1345 -0.0069
  707loPI   C2A10636   0.003   0.309   6.175  0.1593 -0.1460  0.1590
  707loPI   C3A10637   0.172   0.427   6.513  0.2346 -0.0337  0.2464
  707loPI   C4A10638   0.298   0.294   6.905  0.0073 -0.0526 -0.2295
  707loPI   C5A10639   0.396   0.246   7.302  0.0029 -0.0935 -0.2183
  707loPI   C6A10640   0.555   0.519   7.639 -0.3004  0.0791 -0.2979
  707loPI   C1B10641   0.349  -0.007   5.915  0.1138 -0.5757  0.2043
  707loPI   C2B10642   0.278  -0.030   6.408  0.1106  0.2233  0.0967
  707loPI   C3B10643   0.488  -0.269   6.765 -0.0471  0.0958  0.0658
  707loPI   C4B10644   0.403  -0.203   7.161 -0.0833  0.2656 -0.1312
  708loPI    C110645   3.711   6.919   4.844 -0.0773 -0.0995 -0.1208
  708loPI    C210646   4.107   6.909   4.896 -0.1178 -0.1610  0.1915
  708loPI    C310647   3.945   6.749   4.568  0.1188 -0.0908  0.0380
  708loPI   PO410648   3.668   6.926   5.176  0.2192 -0.3166 -0.1500
  708loPI   GL110649   3.261   6.947   5.388  0.2329  0.0340  0.1177
  708loPI   GL210650   3.168   7.206   5.571 -0.0861  0.0350  0.1523
  708loPI   C1A10651   3.318   6.792   5.858  0.0312  0.4434  0.0869
  708loPI   C2A10652   3.357   6.626   6.277 -0.2714  0.1085  0.1155
  708loPI   C3A10653   3.346   6.644   6.740 -0.1402  0.0780 -0.3657
  708loPI   C4A10654   3.452   6.558   7.153 -0.0242 -0.0425  0.3356
  708loPI   C5A10655   3.490   6.533   7.586 -0.0274 -0.0681  0.0013
  708loPI   C6A10656   3.764   6.260   7.834 -0.2786 -0.0357  0.0217
  708loPI   C1B10657   2.960   7.124   5.866  0.0176 -0.2257 -0.1488
  708loPI   C2B10658   2.995   7.065   6.262 -0.0855  0.0563  0.1137
  708loPI   C3B10659   3.064   7.031   6.671  0.0806  0.0950 -0.1217
  708loPI   C4B10660   3.047   7.024   7.121 -0.1710  0.3771 -0.2208
  709loPI    C110661  16.470  12.784   5.280  0.2308 -0.0217 -0.0825
  709loPI    C210662  16.387  12.451   5.485  0.1328  0.2052  0.2533
  709loPI    C310663  16.447  12.433   5.090 -0.0289 -0.1853  0.2427
  709loPI   PO410664  16.532  12.906   5.577 -0.0675 -0.0677  0.3397
  709loPI   GL110665  16.561  13.162   5.878  0.0604 -0.2431  0.0629
  709loPI   GL210666  16.761  13.455   5.943 -0.0094  0.0527 -0.4766
  709loPI   C1A10667  16.554  12.925   6.228  0.1171  0.1013 -0.0988
  709loPI   C2A10668  16.631  13.058   6.681 -0.3306  0.3506 -0.2682
  709loPI   C3A10669  16.749  12.939   6.996  0.1571  0.1605  0.1075
  709loPI   C4A10670  16.750  12.980   7.441 -0.0770 -0.0535 -0.0811
  709loPI   C5A10671  16.841  13.277   7.647  0.1299  0.2118 -0.1693
  709loPI   C6A10672  16.969  13.621   7.612 -0.1548 -0.1669  0.1986
  709loPI   C1B10673  16.764  13.406   6.371  0.0114  0.1397 -0.1360
  709loPI   C2B10674  16.942  13.528   6.728  0.2069 -0.2024 -0.0443
  709loPI   C3B10675  17.029  13.339   7.137  0.0814  0.1643  0.2199
  709loPI   C4B10676  17.325  13.317   7.542  0.1755  0.1582  0.2241
  710loPI    C110677  15.876  17.766   5.209 -0.0872 -0.0425  0.0843
  710loPI    C210678  15.798  17.895   4.838 -0.1904  0.1018  0.1553
  710loPI    C310679  16.155  17.738   4.924 -0.2621 -0.1969 -0.0751
  710loPI   PO410680  15.672  17.622   5.224  0.2950  0.2280 -0.1370
  710loPI   GL110681  15.501  17.609   5.602 -0.0769 -0.1207 -0.0661
  710loPI   GL210682  15.198  17.643   5.542 -0.1317 -0.0214 -0.1175
  710loPI   C1A10683  15.718  17.735   6.126 -0.0890  0.1876  0.1877
  710loPI   C2A10684  15.740  17.550   6.515 -0.1157  0.0229 -0.0475
  710loPI   C3A10685  15.814  17.701   6.946  0.0743  0.1218 -0.0250
  710loPI   C4A10686  15.826  17.818   7.315  0.0384  0.3116 -0.0015
  710loPI   C5A10687  15.573  17.795   7.784 -0.1352 -0.1070 -0.2406
  710loPI   C6A10688  15.550  17.691   8.168 -0.2341 -0.0835 -0.1206
  710loPI   C1B10689  15.224  17.449   5.932  0.0387  0.2175 -0.1157
  710loPI   C2B10690  15.297  17.449   6.336 -0.1164  0.0523  0.2792
  710loPI   C3B10691  15.086  17.497   6.753  0.0232 -0.1044  0.1198
  710loPI   C4B10692  15.308  17.607   7.165 -0.0306 -0.1086 -0.3651
  711loPI    C110693  18.385   7.409   4.826  0.0769 -0.0965  0.1810
  711loPI    C210694  18.528   7.660   4.549  0.0923 -0.1542  0.1363
  711loPI    C310695  18.166   7.722   4.708  0.1029 -0.0948  0.1373
  711loPI   PO410696  18.622   7.403   5.055 -0.1645  0.2429  0.1961
  711loPI   GL110697  18.529   7.335   5.520 -0.2782 -0.2744 -0.0066
  711loPI   GL210698  18.747   7.638   5.527  0.3992  0.1003 -0.1684
  711loPI   C1A10699  18.439   7.147   5.913  0.0513 -0.0029  0.4215
  711loPI   C2A10700  18.249   7.286   6.327 -0.0279  0.1930 -0.1722
  711loPI   C3A10701  18.390   7.445   6.702  0.1180 -0.1139 -0.0372
  711loPI   C4A10702  18.410   7.398   7.075  0.0997 -0.0592 -0.3339
  711loPI   C5A10703  18.574   7.278   7.487  0.4390  0.2684  0.0809
  711loPI   C6A10704  18.582   7.035   7.893 -0.0138  0.3094 -0.1310
  711loPI   C1B10705  18.808   7.456   5.921 -0.2813  0.0511  0.2831
  711loPI   C2B10706  18.751   7.304   6.311  0.0553 -0.0846  0.1655
  711loPI   C3B10707  18.860   7.262   6.706  0.0784 -0.0370 -0.2735
  711loPI   C4B10708  18.874   7.072   7.105 -0.2480 -0.1488 -0.3875
  712loPI    C110709  16.327   9.434   4.697  0.0487 -0.2543  0.2424
  712loPI    C210710  15.999   9.258   4.552  0.0368  0.0153 -0.0706
  712loPI    C310711  16.334   9.268   4.333  0.1319  0.0990  0.0775
  712loPI   PO410712  16.312   9.351   4.994  0.0556  0.1471 -0.1299
  712loPI   GL110713  16.033   9.401   5.355  0.3115  0.2193  0.0328
  712loPI   GL210714  16.214   9.659   5.391  0.3477  0.0760 -0.2032
  712loPI   C1A10715  16.076   9.459   5.797  0.0109 -0.0147 -0.2545
  712loPI   C2A10716  16.017   9.607   6.107  0.2793 -0.2457  0.2686
  712loPI   C3A10717  16.105   9.609   6.506  0.1100 -0.0470 -0.0577
  712loPI   C4A10718  16.057   9.742   6.982 -0.3662  0.2396 -0.2378
  712loPI   C5A10719  16.003   9.965   7.409  0.1361 -0.2803 -0.1622
  712loPI   C6A10720  15.923   9.991   7.938  0.2237  0.1470 -0.1303
  712loPI   C1B10721  16.019   9.989   5.629  0.2466 -0.1154 -0.3019
  712loPI   C2B10722  15.927  10.125   6.027 -0.0254 -0.0394  0.0079
  712loPI   C3B10723  15.884  10.091   6.430  0.3230 -0.2097  0.1055
  712loPI   C4B10724  15.810  10.094   6.751 -0.0788 -0.0614  0.1666
  713loPI    C110725  12.108   3.774   5.278  0.1741 -0.1352 -0.1361
  713loPI    C210726  11.783   3.692   5.061 -0.0273  0.1683  0.0440
  713loPI    C310727  12.030   3.985   4.948  0.1140  0.0258 -0.0201
  713loPI   PO410728  12.005   3.807   5.559  0.0099  0.0006  0.1088
  713loPI   GL110729  12.237   3.996   5.817 -0.0755  0.0490  0.0961
  713loPI   GL210730  12.349   3.895   6.078  0.1696 -0.1505 -0.0615
  713loPI   C1A10731  12.108   4.324   6.136  0.0273 -0.3087 -0.0523
  713loPI   C2A10732  11.955   4.508   6.458 -0.2603 -0.0843  0.0373
  713loPI   C3A10733  11.906   4.618   6.897 -0.3463 -0.4909 -0.1001
  713loPI   C4A10734  11.963   4.973   7.242 -0.0463 -0.0957  0.0555
  713loPI   C5A10735  11.795   5.281   7.509  0.0655  0.1744 -0.0702
  713loPI   C6A10736  11.869   5.333   8.019 -0.0178  0.0507  0.2179
  713loPI   C1B10737  12.291   3.997   6.486 -0.3611 -0.1324  0.0733
  713loPI   C2B10738  12.384   3.794   6.883 -0.4491  0.4271  0.1462
  713loPI   C3B10739  12.171   3.595   7.149  0.1830  0.0241  0.2074
  713loPI   C4B10740  12.304   3.290   7.486 -0.1843 -0.0684 -0.1211
  714loPI    C110741   3.793   5.147   4.562  0.0305 -0.0905 -0.1682
  714loPI    C210742   3.578   4.831   4.445 -0.0585 -0.0481 -0.1198
  714loPI    C310743   3.563   5.172   4.236  0.1921 -0.1366 -0.2873
  714loPI   PO410744   3.797   5.123   4.868  0.2134  0.2478  0.1621
  714loPI   GL110745   3.550   5.134   5.215  0.1167 -0.0073  0.1449
  714loPI   GL210746   3.297   5.357   5.262  0.1992 -0.1408  0.0822
  714loPI   C1A10747   3.444   4.882   5.477 -0.2975  0.0979  0.1773
  714loPI   C2A10748   3.410   4.705   5.970 -0.1123 -0.0584  0.1072
  714loPI   C3A10749   3.524   4.776   6.354  0.2017  0.0553 -0.0681
  714loPI   C4A10750   3.261   4.812   6.867  0.0059 -0.0729 -0.0003
  714loPI   C5A10751   3.195   5.224   7.024 -0.1006  0.1933 -0.1243
  714loPI   C6A10752   3.399   5.514   7.340 -0.1161  0.0113  0.1499
  714loPI   C1B10753   3.500   5.400   5.725  0.1115 -0.1496  0.0090
  714loPI   C2B10754   3.587   5.235   6.081 -0.2557  0.1443 -0.2762
  714loPI   C3B10755   3.873   5.332   6.292 -0.1079  0.0053 -0.0969
  714loPI   C4B10756   4.039   5.163   6.665  0.2239  0.1631 -0.1374
  715loPI    C110757  15.203   7.032   4.971 -0.0123  0.1049 -0.0826
  715loPI    C210758  15.254   7.406   5.102  0.1891  0.1293 -0.2267
  715loPI    C310759  15.093   7.340   4.741 -0.2626  0.0645 -0.0202
  715loPI   PO410760  15.279   6.826   5.273 -0.0895  0.3035  0.0207
  715loPI   GL110761  15.137   6.895   5.675  0.2028 -0.1831 -0.1447
  715loPI   GL210762  15.055   7.198   5.594  0.0149 -0.2355  0.2975
  715loPI   C1A10763  15.093   6.832   6.094  0.1400  0.1596 -0.2463
  715loPI   C2A10764  14.945   7.132   6.457 -0.2729  0.1349  0.3815
  715loPI   C3A10765  15.027   7.310   6.822 -0.2383  0.1244 -0.0984
  715loPI   C4A10766  15.022   7.439   7.251 -0.0398  0.4029 -0.1569
  715loPI   C5A10767  14.837   7.527   7.616 -0.1879 -0.0333  0.2453
  715loPI   C6A10768  14.856   7.629   8.029 -0.0554 -0.2639  0.0155
  715loPI   C1B10769  15.318   7.329   5.923  0.1647  0.2112 -0.0600
  715loPI   C2B10770  15.495   7.418   6.324 -0.0652 -0.0210 -0.1581
  715loPI   C3B10771  15.555   7.314   6.777 -0.2401 -0.4193  0.3498
  715loPI   C4B10772  15.488   7.519   7.194 -0.0501 -0.0644  0.0866
  716loPI    C110773  14.981   9.123   4.886  0.1548 -0.1289  0.0516
  716loPI    C210774  14.998   9.224   4.499 -0.1391 -0.0121  0.0669
  716loPI    C310775  15.054   8.844   4.609 -0.1477 -0.0624 -0.0999
  716loPI   PO410776  15.084   9.230   5.041  0.3570  0.0061 -0.2698
  716loPI   GL110777  15.147   9.381   5.354 -0.0745 -0.0211  0.0258
  716loPI   GL210778  14.950   9.231   5.509 -0.2953 -0.2108  0.3417
  716loPI   C1A10779  15.136   9.654   5.723  0.0245 -0.0677 -0.0993
  716loPI   C2A10780  15.162   9.796   6.087  0.1751  0.1258 -0.1802
  716loPI   C3A10781  14.969   9.934   6.528  0.1246 -0.1269  0.1552
  716loPI   C4A10782  14.983   9.823   6.947 -0.1006 -0.1849  0.1498
  716loPI   C5A10783  14.754   9.948   7.263 -0.1220  0.2497 -0.1857
  716loPI   C6A10784  14.534   9.829   7.452 -0.0877  0.1206 -0.5619
  716loPI   C1B10785  14.775   9.249   5.934 -0.3555 -0.4787  0.2868
  716loPI   C2B10786  14.804   9.431   6.376 -0.1143 -0.0545 -0.0726
  716loPI   C3B10787  14.522   9.596   6.669 -0.0099 -0.1654 -0.0315
  716loPI   C4B10788  14.133   9.408   6.772 -0.1343 -0.2255  0.2392
  717loPI    C110789   2.722  15.346   4.790 -0.0702  0.0656 -0.0831
  717loPI    C210790   2.787  15.145   4.450  0.1678  0.0263 -0.0162
  717loPI    C310791   2.975  15.492   4.517  0.2179 -0.0282  0.1291
  717loPI   PO410792   2.579  15.072   4.961  0.0047 -0.1023 -0.0284
  717loPI   GL110793   2.614  14.768   5.318  0.1482  0.0310  0.3385
  717loPI   GL210794   2.223  14.629   5.375 -0.1119  0.0626 -0.3404
  717loPI   C1A10795   2.499  14.962   5.717 -0.1150  0.2205 -0.0998
  717loPI   C2A10796   2.686  14.870   6.065 -0.0434 -0.1216 -0.0681
  717loPI   C3A10797   2.625  14.882   6.512  0.1468  0.0646 -0.0234
  717loPI   C4A10798   2.799  15.163   6.815  0.2149  0.1841 -0.0696
  717loPI   C5A10799   2.716  15.276   7.209  0.1819  0.0061 -0.0843
  717loPI   C6A10800   2.763  15.222   7.761 -0.0511 -0.3054 -0.2107
  717loPI   C1B10801   1.938  14.798   5.635 -0.0375  0.2204 -0.0438
  717loPI   C2B10802   1.738  14.616   6.044  0.0584 -0.1102 -0.2477
  717loPI   C3B10803   1.909  14.508   6.512 -0.0118  0.0844  0.1957
  717loPI   C4B10804   2.136  14.878   6.726 -0.0762  0.0490 -0.1600
  718loPI    C110805   5.911   8.027   5.015  0.1965  0.1262  0.0777
  718loPI    C210806   5.947   7.744   4.735 -0.1118  0.1343  0.0263
  718loPI    C310807   6.009   8.128   4.641 -0.1020  0.1256 -0.0029
  718loPI   PO410808   5.816   7.894   5.195 -0.1136 -0.1971  0.0573
  718loPI   GL110809   5.642   8.146   5.609  0.0705  0.2741  0.2016
  718loPI   GL210810   5.552   8.423   5.625 -0.2616 -0.0232  0.2876
  718loPI   C1A10811   5.684   8.028   6.026  0.2716  0.3800  0.5433
  718loPI   C2A10812   5.589   7.894   6.420  0.1075  0.2101  0.1566
  718loPI   C3A10813   5.454   7.791   6.932 -0.0708 -0.0952  0.0629
  718loPI   C4A10814   5.482   7.792   7.388 -0.1924  0.0300 -0.3069
  718loPI   C5A10815   5.588   7.352   7.605  0.0627 -0.4150 -0.0626
  718loPI   C6A10816   5.834   7.249   7.895 -0.3559 -0.1762  0.0793
  718loPI   C1B10817   5.320   8.315   6.028 -0.0553  0.1598 -0.3694
  718loPI   C2B10818   5.212   8.354   6.343  0.3453  0.0345 -0.2064
  718loPI   C3B10819   5.224   8.142   6.639 -0.2629 -0.1048  0.2503
  718loPI   C4B10820   5.307   8.208   7.120 -0.0019 -0.4083  0.1802
  719loPI    C110821   5.073  10.660   4.866 -0.0427 -0.0825 -0.1011
  719loPI    C210822   4.751  10.865   4.747  0.0490  0.1027 -0.0334
  719loPI    C310823   4.763  10.468   4.702 -0.0854  0.1233 -0.2651
  719loPI   PO410824   5.050  10.678   5.100 -0.0807 -0.0120 -0.0195
  719loPI   GL110825   5.028  10.609   5.489  0.1078  0.0077 -0.1903
  719loPI   GL210826   5.226  10.808   5.607  0.3958 -0.2514  0.1643
  719loPI   C1A10827   4.994  10.574   5.994 -0.2303 -0.2316 -0.1672
  719loPI   C2A10828   5.124  10.527   6.358 -0.0198 -0.3295  0.0415
  719loPI   C3A10829   5.113  10.537   6.831 -0.0201 -0.1647 -0.2163
  719loPI   C4A10830   5.144  10.673   7.229 -0.1343 -0.2536  0.0897
  719loPI   C5A10831   5.100  10.531   7.574  0.3609 -0.0686 -0.0356
  719loPI   C6A10832   5.403  10.271   7.793 -0.2559 -0.0391  0.0316
  719loPI   C1B10833   5.344  10.899   6.064  0.0624 -0.2639 -0.1983
  719loPI   C2B10834   5.329  11.053   6.526 -0.0350  0.1246  0.2401
  719loPI   C3B10835   5.098  11.069   6.895  0.1796  0.2190 -0.0019
  719loPI   C4B10836   4.863  11.095   7.278 -0.0085 -0.2504  0.0448
  720loPI    C110837   7.499  18.404   4.948 -0.1012 -0.0010 -0.0071
  720loPI    C210838   7.832  18.416   4.726 -0.1517 -0.0874 -0.0885
  720loPI    C310839   7.544  18.688   4.670 -0.1196 -0.0468 -0.0572
  720loPI   PO410840   7.627  18.464   5.204  0.0975  0.0087 -0.4046
  720loPI   GL110841   7.411  18.818   5.561  0.0104  0.0364  0.3221
  720loPI   GL210842   7.643  18.660   5.684  0.2236  0.2839  0.0696
  720loPI   C1A10843   7.283  18.699   5.989  0.1344  0.4785  0.0723
  720loPI   C2A10844   7.224  18.675   6.390 -0.1572  0.0860 -0.3224
  720loPI   C3A10845   7.068  18.669   6.774 -0.2137  0.0910  0.1988
  720loPI   C4A10846   7.029  18.707   7.172 -0.1142  0.0938  0.0845
  720loPI   C5A10847   7.213  18.610   7.674  0.1305  0.1856  0.0399
  720loPI   C6A10848   7.130  18.148   7.679 -0.2504 -0.0663 -0.1879
  720loPI   C1B10849   7.906  18.537   6.003  0.0192  0.0184 -0.1628
  720loPI   C2B10850   7.733  18.443   6.358 -0.1294  0.1023  0.0805
  720loPI   C3B10851   7.631  18.496   6.738 -0.1735  0.0449 -0.0693
  720loPI   C4B10852   7.504  18.561   7.097  0.1859  0.0554  0.2118
  721loPI    C110853  11.009  10.110   5.304  0.1856 -0.3732 -0.0140
  721loPI    C210854  10.946   9.884   4.980  0.1882 -0.1048 -0.2054
  721loPI    C310855  11.247  10.148   4.985  0.0536  0.0485 -0.0695
  721loPI   PO410856  10.932   9.955   5.537 -0.2010 -0.1055 -0.2426
  721loPI   GL110857  11.026   9.698   5.835 -0.0061  0.0832  0.0594
  721loPI   GL210858  11.367   9.728   5.798 -0.0736  0.0666 -0.2922
  721loPI   C1A10859  10.992   9.346   6.110  0.2011 -0.1309  0.2601
  721loPI   C2A10860  10.966   9.332   6.529 -0.1675 -0.2462 -0.1006
  721loPI   C3A10861  10.890   9.450   6.937 -0.3018  0.0123  0.2558
  721loPI   C4A10862  10.779   9.836   7.217  0.1372  0.0499  0.1271
  721loPI   C5A10863  10.527  10.185   7.123 -0.0654 -0.1011 -0.1497
  721loPI   C6A10864  10.132  10.174   6.863 -0.0195 -0.0061  0.0281
  721loPI   C1B10865  11.422   9.683   6.173 -0.0746 -0.2318 -0.0847
  721loPI   C2B10866  11.382   9.572   6.700  0.0282  0.1456  0.2116
  721loPI   C3B10867  11.309   9.637   7.193 -0.0020  0.0614 -0.0508
  721loPI   C4B10868  11.231  10.083   7.340  0.0717  0.2831  0.0453
  722loPI    C110869  11.531   9.081   5.331 -0.1196 -0.2008 -0.0060
  722loPI    C210870  11.257   9.214   5.590 -0.0002 -0.0256  0.0320
  722loPI    C310871  11.155   9.147   5.209 -0.0824  0.0954  0.0320
  722loPI   PO410872  11.695   8.800   5.486  0.0193  0.1487 -0.2806
  722loPI   GL110873  11.765   8.641   5.892 -0.0244 -0.2404  0.2771
  722loPI   GL210874  11.711   8.369   5.720  0.0689  0.2345  0.2929
  722loPI   C1A10875  11.701   8.684   6.367  0.0071 -0.0790  0.2571
  722loPI   C2A10876  11.618   8.654   6.830  0.0155  0.1538 -0.1800
  722loPI   C3A10877  11.681   8.687   7.262 -0.1088  0.1004 -0.4306
  722loPI   C4A10878  11.931   8.584   7.602  0.2679 -0.2827 -0.0797
  722loPI   C5A10879  12.030   8.313   7.889  0.0529 -0.0135  0.0344
  722loPI   C6A10880  12.124   8.043   8.184  0.2395 -0.2328 -0.0603
  722loPI   C1B10881  11.473   8.314   6.104 -0.0162  0.2597 -0.1452
  722loPI   C2B10882  11.375   8.357   6.479 -0.1119 -0.1697 -0.0264
  722loPI   C3B10883  11.374   8.164   6.854 -0.0610  0.0459 -0.1186
  722loPI   C4B10884  11.265   8.185   7.335 -0.0717 -0.1199 -0.0076
  723loPI    C110885   3.208   4.159   5.083 -0.0698  0.0218  0.1046
  723loPI    C210886   3.053   4.139   4.715 -0.0952  0.2350  0.1025
  723loPI    C310887   3.398   3.955   4.797 -0.1138  0.1466 -0.0151
  723loPI   PO410888   2.903   4.119   5.213 -0.1396 -0.0421 -0.1634
  723loPI   GL110889   2.755   4.035   5.575  0.0906  0.1680 -0.3583
  723loPI   GL210890   2.734   3.793   5.655 -0.0808  0.1589  0.2932
  723loPI   C1A10891   2.777   4.243   5.925 -0.0682  0.2340 -0.0111
  723loPI   C2A10892   2.759   4.196   6.350  0.2057 -0.2358  0.2835
  723loPI   C3A10893   2.716   4.151   6.771 -0.2533 -0.0977  0.2164
  723loPI   C4A10894   2.858   4.077   7.162 -0.3316 -0.0477  0.1139
  723loPI   C5A10895   2.925   3.751   7.463  0.1791 -0.1748 -0.1602
  723loPI   C6A10896   2.722   3.267   7.565 -0.3502 -0.0091  0.0462
  723loPI   C1B10897   2.865   3.758   6.054 -0.1808  0.0839 -0.1433
  723loPI   C2B10898   2.911   3.719   6.516 -0.1621  0.1139  0.3091
  723loPI   C3B10899   3.261   3.687   6.865 -0.0762  0.0451 -0.0854
  723loPI   C4B10900   3.379   3.824   7.296 -0.1145  0.0994  0.2565
  724loPI    C110901   0.844  14.485   4.919 -0.0375  0.0702 -0.0071
  724loPI    C210902   0.580  14.191   4.859  0.0805 -0.0491  0.0526
  724loPI    C310903   0.961  14.145   4.743  0.0789  0.1166 -0.0210
  724loPI   PO410904   0.722  14.635   4.994  0.0247 -0.0929  0.2504
  724loPI   GL110905   0.761  14.898   5.314  0.0504 -0.0785  0.0390
  724loPI   GL210906   0.972  14.938   5.500 -0.2617 -0.2049  0.1296
  724loPI   C1A10907   0.667  15.252   5.740 -0.0059 -0.1304 -0.0547
  724loPI   C2A10908   0.647  15.346   6.107  0.0116 -0.1375 -0.2060
  724loPI   C3A10909   0.554  15.184   6.447  0.1237  0.1378  0.0646
  724loPI   C4A10910   0.570  15.110   6.866  0.2057 -0.2886  0.0056
  724loPI   C5A10911   0.692  15.056   7.312  0.1874 -0.3642 -0.1989
  724loPI   C6A10912   0.419  14.878   7.492  0.3351  0.1690  0.3630
  724loPI   C1B10913   0.811  14.818   5.948 -0.0789  0.1392 -0.3084
  724loPI   C2B10914   0.845  14.707   6.364 -0.2670  0.2421  0.4779
  724loPI   C3B10915   0.750  14.636   6.760 -0.1391  0.1389 -0.1578
  724loPI   C4B10916   0.649  14.572   7.199  0.1991 -0.1004 -0.0082
  725loPI    C110917  10.688   3.145   5.192  0.0834  0.0116 -0.2065
  725loPI    C210918  10.384   2.930   5.045 -0.0876  0.0901  0.0266
  725loPI    C310919  10.731   2.948   4.846 -0.1260 -0.2634 -0.0791
  725loPI   PO410920  10.610   3.195   5.537  0.0487 -0.0847 -0.0068
  725loPI   GL110921  10.546   3.186   5.947 -0.0783  0.1694 -0.1545
  725loPI   GL210922  10.723   3.429   6.077 -0.0330  0.1361  0.1257
  725loPI   C1A10923  10.828   3.028   6.370  0.2040 -0.0152  0.1433
  725loPI   C2A10924  10.730   3.252   6.795  0.0463 -0.0359 -0.2939
  725loPI   C3A10925  10.643   3.491   7.216 -0.0555 -0.1569 -0.0809
  725loPI   C4A10926  10.322   3.656   7.409 -0.1412 -0.1139 -0.1181
  725loPI   C5A10927   9.947   3.479   7.654 -0.1843 -0.4388 -0.0338
  725loPI   C6A10928   9.853   3.652   8.132  0.0238 -0.2891 -0.0804
  725loPI   C1B10929  10.473   3.555   6.459  0.3281  0.0287  0.4163
  725loPI   C2B10930  10.186   3.606   6.911  0.2005  0.1353  0.0170
  725loPI   C3B10931   9.883   3.704   7.148 -0.2711  0.1517  0.1085
  725loPI   C4B10932   9.580   3.533   7.321  0.0693  0.1966  0.2482
  726loPI    C110933  14.963  15.982   5.358  0.1399 -0.1266  0.1205
  726loPI    C210934  15.292  15.831   5.190  0.1254 -0.0906  0.0593
  726loPI    C310935  14.953  15.855   4.979  0.0914 -0.0999  0.1126
  726loPI   PO410936  15.040  16.207   5.433  0.3753  0.0209  0.0926
  726loPI   GL110937  15.143  16.287   5.864  0.0372  0.0327  0.1378
  726loPI   GL210938  15.439  16.544   5.835  0.1553  0.0808 -0.1418
  726loPI   C1A10939  15.053  16.389   6.182 -0.0311 -0.3369 -0.1266
  726loPI   C2A10940  15.140  16.368   6.648  0.1741  0.1644 -0.0437
  726loPI   C3A10941  14.982  16.133   6.963 -0.1310 -0.3015 -0.2621
  726loPI   C4A10942  14.911  16.164   7.344  0.2422 -0.1353 -0.3429
  726loPI   C5A10943  15.173  16.354   7.647  0.2169  0.4805  0.1684
  726loPI   C6A10944  15.227  16.716   7.944  0.1157  0.2074 -0.1728
  726loPI   C1B10945  15.563  16.517   6.201 -0.1521 -0.2887  0.0376
  726loPI   C2B10946  15.650  16.558   6.618  0.1003 -0.2443 -0.1856
  726loPI   C3B10947  15.555  16.706   6.999  0.0667  0.0182 -0.0171
  726loPI   C4B10948  15.281  16.527   7.161  0.3227  0.0087 -0.0850
  727loPI    C110949   4.265  17.643   4.869 -0.2111  0.3357 -0.0890
  727loPI    C210950   4.286  17.367   4.580  0.1422  0.1185  0.1359
  727loPI    C310951   4.335  17.754   4.491 -0.2424  0.1048 -0.1637
  727loPI   PO410952   4.338  17.575   5.054  0.1075 -0.3232  0.2375
  727loPI   GL110953   4.717  17.551   5.295 -0.0769  0.1150  0.2256
  727loPI   GL210954   4.783  17.900   5.430 -0.3354 -0.0971 -0.0719
  727loPI   C1A10955   4.630  17.589   5.782  0.0339 -0.0726 -0.1735
  727loPI   C2A10956   4.464  17.220   6.014 -0.0774 -0.0818  0.0162
  727loPI   C3A10957   4.447  17.000   6.312 -0.2563 -0.0612  0.0757
  727loPI   C4A10958   4.295  16.999   6.613  0.1793 -0.0825  0.0965
  727loPI   C5A10959   4.159  17.135   6.940 -0.2370 -0.0176  0.1541
  727loPI   C6A10960   4.359  17.467   7.182 -0.0344  0.1976  0.1085
  727loPI   C1B10961   4.617  18.048   5.792 -0.1962 -0.2051 -0.2207
  727loPI   C2B10962   4.582  18.362   6.065 -0.2609  0.2222 -0.2145
  727loPI   C3B10963   4.371  18.636   6.263 -0.0860 -0.0332 -0.0915
  727loPI   C4B10964   3.964  18.822   6.468 -0.2089  0.4192  0.0665
  728loPI    C110965   9.025  16.354   5.567 -0.0826  0.2351  0.2301
  728loPI    C210966   9.358  16.574   5.540 -0.0669  0.1896  0.0415
  728loPI    C310967   9.114  16.541   5.225 -0.0486 -0.0946  0.0549
  728loPI   PO410968   8.947  16.387   5.765 -0.1841  0.0693 -0.1373
  728loPI   GL110969   8.648  16.315   6.042 -0.0936 -0.0736  0.2144
  728loPI   GL210970   8.357  16.450   6.073 -0.0524 -0.0145 -0.1203
  728loPI   C1A10971   8.840  16.288   6.493  0.0562 -0.1187  0.0704
  728loPI   C2A10972   8.899  16.553   6.797  0.1634  0.1854  0.1422
  728loPI   C3A10973   9.145  16.589   7.240 -0.1878  0.0886 -0.0136
  728loPI   C4A10974   9.180  16.468   7.642  0.0809  0.0705 -0.4186
  728loPI   C5A10975   9.305  16.186   7.887  0.0615 -0.0739  0.5353
  728loPI   C6A10976   9.323  15.720   8.029  0.3129 -0.0025 -0.0594
  728loPI   C1B10977   8.191  16.527   6.531  0.0100 -0.0186 -0.0666
  728loPI   C2B10978   8.009  16.550   6.933  0.2071  0.2410 -0.1802
  728loPI   C3B10979   8.079  16.679   7.442  0.4377 -0.0039  0.0150
  728loPI   C4B10980   8.299  16.834   7.775  0.0226  0.1936 -0.2027
  729loPI    C110981   0.066  17.159   5.051  0.2603 -0.2031 -0.0238
  729loPI    C210982   0.153  17.367   4.721 -0.1439  0.0850  0.0443
  729loPI    C310983  -0.216  17.222   4.775  0.0564 -0.4106  0.1330
  729loPI   PO410984   0.125  17.365   5.264 -0.2781 -0.0398 -0.2605
  729loPI   GL110985   0.110  17.426   5.739  0.0368  0.2291  0.0708
  729loPI   GL210986   0.421  17.548   5.822  0.1302  0.0984 -0.0753
  729loPI   C1A10987  -0.111  17.118   6.037  0.2082 -0.3934  0.0794
  729loPI   C2A10988  -0.152  17.122   6.420  0.0169 -0.1909 -0.0166
  729loPI   C3A10989  -0.110  17.070   6.984 -0.1087 -0.0247 -0.1868
  729loPI   C4A10990  -0.237  17.235   7.345 -0.2249  0.0695  0.0738
  729loPI   C5A10991  -0.272  17.659   7.625  0.1651  0.2790 -0.0003
  729loPI   C6A10992  -0.336  18.031   7.851  0.4252  0.0922  0.1754
  729loPI   C1B10993   0.534  17.680   6.215 -0.1352  0.0693  0.0168
  729loPI   C2B10994   0.512  17.789   6.704  0.0547  0.0108  0.0761
  729loPI   C3B10995   0.622  17.899   7.093 -0.3127  0.3724  0.2414
  729loPI   C4B10996   0.587  18.009   7.466 -0.0178 -0.1077  0.0517
  730loPI    C110997   2.302   2.458   5.029 -0.0054 -0.0262 -0.0941
  730loPI    C210998   2.663   2.613   5.104  0.0095 -0.0862 -0.0400
  730loPI    C310999   2.564   2.506   4.731  0.0896 -0.1759 -0.0359
  730loPI   PO411000   2.208   2.341   5.266  0.0246 -0.0851 -0.0136
  730loPI   GL111001   2.201   2.122   5.648 -0.5217  0.1370  0.1363
  730loPI   GL211002   2.574   1.949   5.730  0.0442 -0.1589  0.3488
  730loPI   C1A11003   2.099   1.734   5.864 -0.1124  0.1739  0.0846
  730loPI   C2A11004   2.055   1.615   6.322 -0.2292  0.1722 -0.0350
  730loPI   C3A11005   2.055   1.622   6.718  0.2122 -0.0816 -0.0283
  730loPI   C4A11006   2.124   2.017   6.984 -0.2819  0.0542 -0.0377
  730loPI   C5A11007   2.285   2.350   6.798 -0.0990  0.2422  0.0881
  730loPI   C6A11008   2.345   2.751   6.703  0.0488 -0.0046 -0.0947
  730loPI   C1B11009   2.483   1.872   6.124  0.1173 -0.2955  0.1505
  730loPI   C2B11010   2.482   2.001   6.536 -0.1755  0.1591  0.1824
  730loPI   C3B11011   2.640   2.033   7.019 -0.0421  0.0855 -0.0961
  730loPI   C4B11012   2.741   2.087   7.414  0.1894 -0.1297 -0.5413
  731loPI    C111013   4.387  16.571   4.838 -0.1849 -0.0464  0.0371
  731loPI    C211014   4.286  16.892   4.621  0.0731 -0.0196 -0.0471
  731loPI    C311015   4.586  16.656   4.501 -0.0211 -0.2120  0.0905
  731loPI   PO411016   4.426  16.647   5.116  0.0298 -0.3626  0.0915
  731loPI   GL111017   4.453  16.928   5.484 -0.1215 -0.0830 -0.1712
  731loPI   GL211018   4.332  17.278   5.438 -0.0822 -0.1944 -0.1852
  731loPI   C1A11019   4.463  16.728   5.845 -0.3490 -0.1049  0.1307
  731loPI   C2A11020   4.392  16.436   6.168 -0.0496 -0.2296  0.2876
  731loPI   C3A11021   4.261  16.438   6.570 -0.1424 -0.1560  0.1665
  731loPI   C4A11022   4.152  16.544   6.985 -0.1648 -0.2677  0.2547
  731loPI   C5A11023   4.353  16.849   7.314  0.1854 -0.1551  0.1973
  731loPI   C6A11024   4.295  17.114   7.663  0.0620  0.1034 -0.3912
  731loPI   C1B11025   4.063  17.462   5.868 -0.1152 -0.0625 -0.1338
  731loPI   C2B11026   4.095  17.359   6.342  0.0461 -0.1576  0.1601
  731loPI   C3B11027   4.104  17.643   6.714  0.0640  0.0441  0.3068
  731loPI   C4B11028   4.127  17.912   7.112 -0.0663  0.0132 -0.1303
  732loPI    C111029   0.489   4.007   4.752  0.1648  0.1513 -0.2421
  732loPI    C211030   0.380   4.195   5.088 -0.0258 -0.1514 -0.1299
  732loPI    C311031   0.302   4.360   4.732 -0.0158  0.0707 -0.0309
  732loPI   PO411032   0.666   3.780   4.883 -0.1462  0.0464 -0.3940
  732loPI   GL111033   0.957   3.724   5.325  0.1134  0.2969 -0.3192
  732loPI   GL211034   1.138   3.426   5.525  0.1022 -0.1577 -0.2010
  732loPI   C1A11035   0.770   4.075   5.464  0.1375  0.0148 -0.2848
  732loPI   C2A11036   0.648   4.304   5.824  0.2793  0.0057 -0.0013
  732loPI   C3A11037   0.670   4.250   6.328  0.0714  0.0375 -0.0722
  732loPI   C4A11038   0.831   4.052   6.816 -0.0543  0.0999 -0.0895
  732loPI   C5A11039   0.989   3.888   7.097  0.0924  0.0792 -0.0587
  732loPI   C6A11040   0.737   3.502   7.347 -0.1761 -0.2541 -0.1744
  732loPI   C1B11041   1.031   3.154   5.913  0.2840  0.3993  0.1242
  732loPI   C2B11042   0.713   2.940   6.000 -0.1336 -0.0244 -0.0952
  732loPI   C3B11043   0.502   2.788   6.306  0.2461 -0.0009  0.0030
  732loPI   C4B11044   0.479   2.404   6.553  0.1266 -0.1262  0.1842
  733loPI    C111045   0.223   9.530   5.006  0.3139 -0.0581  0.0275
  733loPI    C211046   0.048   9.582   4.650  0.1139  0.2201  0.1622
  733loPI    C311047   0.280   9.870   4.803  0.1709  0.1160  0.2736
  733loPI   PO411048   0.072   9.479   5.190 -0.3298 -0.2810  0.0100
  733loPI   GL111049   0.067   9.582   5.662 -0.0516 -0.0987  0.0574
  733loPI   GL211050   0.103   9.262   5.670  0.1536 -0.1064  0.0106
  733loPI   C1A11051   0.230   9.750   6.011  0.0532  0.0188 -0.1462
  733loPI   C2A11052   0.289   9.803   6.432 -0.0361 -0.1550  0.0216
  733loPI   C3A11053   0.589   9.820   6.844 -0.1990  0.1330 -0.1182
  733loPI   C4A11054   0.405   9.676   7.286 -0.0087 -0.1074  0.1976
  733loPI   C5A11055   0.355   9.838   7.709  0.2021  0.4245  0.0964
  733loPI   C6A11056   0.359  10.197   7.974  0.0160 -0.2293  0.0028
  733loPI   C1B11057  -0.128   9.338   6.049 -0.2499 -0.0637  0.0032
  733loPI   C2B11058  -0.266   9.244   6.458  0.0357 -0.2007  0.2720
  733loPI   C3B11059  -0.512   9.043   6.704  0.2975  0.2494  0.0271
  733loPI   C4B11060  -0.728   8.619   6.834 -0.0793 -0.2468  0.0140
  734loPI    C111061  14.956   8.416   5.166 -0.2368  0.0779  0.1044
  734loPI    C211062  14.735   8.558   4.864  0.2240  0.2658 -0.1566
  734loPI    C311063  15.054   8.329   4.788  0.1250 -0.0063  0.2133
  734loPI   PO411064  14.996   8.607   5.352  0.4171 -0.0196 -0.0334
  734loPI   GL111065  14.885   8.644   5.707 -0.1699  0.1106 -0.3828
  734loPI   GL211066  14.609   8.865   5.634  0.0277  0.0874 -0.2209
  734loPI   C1A11067  15.113   8.941   5.985  0.0821  0.1442  0.0241
  734loPI   C2A11068  14.962   8.988   6.437 -0.0274  0.0286 -0.2024
  734loPI   C3A11069  14.830   9.237   6.814  0.0040  0.0226 -0.0662
  734loPI   C4A11070  14.743   9.444   7.181  0.3227  0.0439 -0.3190
  734loPI   C5A11071  14.278   9.445   7.268 -0.1641  0.0850  0.0341
  734loPI   C6A11072  14.057   9.855   7.432  0.0259  0.0567  0.0729
  734loPI   C1B11073  14.334   8.925   6.041  0.0593  0.0755  0.2932
  734loPI   C2B11074  13.886   8.989   6.223  0.2201  0.0535 -0.1352
  734loPI   C3B11075  13.841   9.040   6.637 -0.2527  0.0690  0.0060
  734loPI   C4B11076  13.934   9.041   7.110  0.0669  0.0639 -0.0810
  735loPI    C111077   6.956  14.089   5.167 -0.1390  0.0709 -0.0355
  735loPI    C211078   7.351  14.096   5.102 -0.0930  0.1125  0.2339
  735loPI    C311079   7.118  13.840   4.899  0.0932 -0.0229  0.1884
  735loPI   PO411080   6.963  14.130   5.419 -0.0914  0.0983  0.2157
  735loPI   GL111081   7.123  14.203   5.834  0.1612 -0.3927 -0.1579
  735loPI   GL211082   6.981  14.604   5.732  0.0970  0.1463 -0.0559
  735loPI   C1A11083   7.056  13.918   6.167  0.3968  0.1020  0.2003
  735loPI   C2A11084   7.150  13.953   6.554 -0.1163  0.1181 -0.0311
  735loPI   C3A11085   7.400  13.818   6.814  0.3296  0.0559 -0.1888
  735loPI   C4A11086   7.654  13.725   7.126  0.0082 -0.1722 -0.0969
  735loPI   C5A11087   7.706  13.532   7.492  0.1130  0.2405  0.1104
  735loPI   C6A11088   8.073  13.636   7.743 -0.4772  0.3493 -0.1753
  735loPI   C1B11089   6.705  14.577   6.101 -0.0829 -0.2416  0.0999
  735loPI   C2B11090   6.475  14.576   6.538 -0.1631  0.0661 -0.1029
  735loPI   C3B11091   6.414  14.660   6.904 -0.3096  0.2767 -0.0031
  735loPI   C4B11092   6.427  14.424   7.219  0.1264 -0.1419  0.0421
  736loPI    C111093  11.691   6.947   5.558 -0.0269 -0.2211  0.1517
  736loPI    C211094  11.748   6.597   5.374  0.2018 -0.0159 -0.1785
  736loPI    C311095  11.675   6.927   5.159  0.0327  0.1502  0.1266
  736loPI   PO411096  11.858   6.990   5.723 -0.0393  0.0149  0.0652
  736loPI   GL111097  12.130   7.017   5.986  0.0605  0.0228 -0.1192
  736loPI   GL211098  12.337   7.191   5.789  0.4475  0.0458 -0.4163
  736loPI   C1A11099  12.316   7.114   6.410 -0.1115 -0.1915  0.1098
  736loPI   C2A11100  12.477   6.900   6.734  0.0242  0.1222 -0.1161
  736loPI   C3A11101  12.749   6.728   7.113  0.1879 -0.3380 -0.0757
  736loPI   C4A11102  12.832   6.733   7.511 -0.0006 -0.0381 -0.0651
  736loPI   C5A11103  13.033   6.893   7.850  0.3664  0.2796 -0.2719
  736loPI   C6A11104  13.088   7.167   8.160  0.3060  0.2012 -0.1261
  736loPI   C1B11105  12.282   7.579   6.081  0.0050 -0.1414 -0.4688
  736loPI   C2B11106  12.273   7.832   6.362  0.0401  0.1173  0.0148
  736loPI   C3B11107  12.334   7.975   6.794  0.0237 -0.1267 -0.1566
  736loPI   C4B11108  12.221   7.815   7.149  0.0681  0.1172 -0.4084
  737loPI    C111109   7.386   9.625   5.024  0.0877  0.0431 -0.0956
  737loPI    C211110   7.515   9.359   4.755 -0.2233 -0.0740 -0.1324
  737loPI    C311111   7.139   9.340   4.891 -0.2394  0.3262 -0.1094
  737loPI   PO411112   7.557   9.653   5.210 -0.2262 -0.0409  0.2064
  737loPI   GL111113   7.596   9.790   5.592 -0.2706  0.1927  0.1515
  737loPI   GL211114   7.293   9.682   5.670  0.1882  0.4866  0.0355
  737loPI   C1A11115   7.796   9.654   6.081  0.1976 -0.2141  0.1093
  737loPI   C2A11116   7.988   9.518   6.447  0.2260  0.0976  0.3609
  737loPI   C3A11117   7.972   9.520   6.867 -0.0404  0.0121  0.0179
  737loPI   C4A11118   8.093   9.451   7.335  0.1274  0.1098 -0.1865
  737loPI   C5A11119   8.163   9.603   7.804 -0.1444 -0.1011  0.1712
  737loPI   C6A11120   7.961   9.981   7.908  0.0622 -0.0406 -0.1297
  737loPI   C1B11121   7.202   9.811   6.166  0.1041  0.3331  0.1155
  737loPI   C2B11122   7.374   9.725   6.653  0.0214 -0.2549 -0.4046
  737loPI   C3B11123   7.537   9.734   7.012  0.0807 -0.3481 -0.0917
  737loPI   C4B11124   7.834   9.830   7.313  0.0126 -0.0923 -0.0675
  738loPI    C111125   5.964   3.331   4.746  0.2703  0.0005  0.1578
  738loPI    C211126   5.922   3.728   4.714 -0.0065 -0.0466 -0.1129
  738loPI    C311127   6.191   3.536   4.487  0.0288 -0.0319 -0.0837
  738loPI   PO411128   5.886   3.270   5.049  0.3146 -0.1144 -0.0694
  738loPI   GL111129   6.174   3.258   5.469  0.2159  0.0422 -0.1105
  738loPI   GL211130   5.956   3.458   5.591  0.1294 -0.0195 -0.0472
  738loPI   C1A11131   6.220   3.188   5.884  0.1872 -0.0660  0.0055
  738loPI   C2A11132   6.195   3.212   6.360  0.0362 -0.1107 -0.0959
  738loPI   C3A11133   6.109   3.347   6.729  0.0612 -0.1123  0.0168
  738loPI   C4A11134   6.093   3.436   7.195 -0.0105  0.0100 -0.0384
  738loPI   C5A11135   6.185   3.369   7.621  0.0206  0.3370  0.4283
  738loPI   C6A11136   6.652   3.531   7.758  0.1424 -0.2241 -0.2399
  738loPI   C1B11137   5.916   3.615   5.993 -0.0400  0.2998 -0.0995
  738loPI   C2B11138   5.905   3.685   6.448 -0.2158 -0.0888  0.0022
  738loPI   C3B11139   6.030   3.852   6.874  0.1714  0.1882 -0.0572
  738loPI   C4B11140   6.158   4.020   7.124 -0.0847 -0.1311 -0.0205
  739loPI    C111141  14.483  15.639   5.012  0.0675  0.1436  0.0824
  739loPI    C211142  14.350  16.015   4.977 -0.0088  0.1138  0.0518
  739loPI    C311143  14.199  15.726   4.744  0.0638  0.0678  0.0615
  739loPI   PO411144  14.519  15.691   5.329  0.1771 -0.1487 -0.0794
  739loPI   GL111145  14.401  15.556   5.736  0.2970 -0.4208 -0.2043
  739loPI   GL211146  14.240  15.381   5.960  0.1511  0.2362 -0.1821
  739loPI   C1A11147  14.579  15.763   6.161 -0.2873  0.0118 -0.0189
  739loPI   C2A11148  14.511  15.755   6.652  0.0566 -0.0642 -0.0448
  739loPI   C3A11149  14.499  15.788   7.036  0.0021  0.3391  0.0013
  739loPI   C4A11150  14.557  15.778   7.511  0.2806  0.3615  0.3682
  739loPI   C5A11151  14.387  15.596   7.861 -0.0714  0.0822  0.0946
  739loPI   C6A11152  14.176  15.210   7.994 -0.1452 -0.1684 -0.2706
  739loPI   C1B11153  14.068  15.475   6.378 -0.0409  0.1057  0.1379
  739loPI   C2B11154  13.877  15.627   6.763 -0.0743  0.0706 -0.1959
  739loPI   C3B11155  13.677  15.621   7.167 -0.1627 -0.1194 -0.0685
  739loPI   C4B11156  13.511  15.688   7.570 -0.2862  0.0962 -0.2842
  740loPI    C111157   3.407  16.110   4.801 -0.1834 -0.1898  0.1892
  740loPI    C211158   3.355  15.775   4.588 -0.2836 -0.1299  0.1186
  740loPI    C311159   3.109  16.086   4.536 -0.1611 -0.0270  0.1482
  740loPI   PO411160   3.674  16.064   4.921 -0.1168 -0.0800  0.0111
  740loPI   GL111161   3.821  16.010   5.304  0.0459  0.0593  0.0074
  740loPI   GL211162   3.419  16.007   5.357 -0.2975 -0.1902  0.0107
  740loPI   C1A11163   4.089  15.931   5.629 -0.2360 -0.2315  0.0680
  740loPI   C2A11164   4.224  15.933   6.112 -0.3066 -0.0425 -0.1184
  740loPI   C3A11165   4.074  15.864   6.544  0.1587 -0.0612  0.1965
  740loPI   C4A11166   3.957  15.988   6.937 -0.0111 -0.0889  0.1135
  740loPI   C5A11167   3.702  16.059   7.303 -0.0465  0.1752  0.1135
  740loPI   C6A11168   3.346  15.786   7.437  0.1508  0.1663  0.1639
  740loPI   C1B11169   3.585  15.966   5.834  0.0872 -0.0731 -0.1053
  740loPI   C2B11170   3.535  15.825   6.233  0.0057 -0.5416 -0.1037
  740loPI   C3B11171   3.561  15.813   6.617  0.1628 -0.0525  0.3869
  740loPI   C4B11172   3.633  15.631   7.021 -0.3165 -0.0444 -0.1721
  741loPI    C111173   0.761  16.230   4.949  0.2139  0.3093 -0.2994
  741loPI    C211174   1.053  16.022   5.125  0.1181  0.3560 -0.0818
  741loPI    C311175   1.074  16.104   4.734  0.1954  0.0077 -0.1544
  741loPI   PO411176   0.792  16.466   5.164  0.0683  0.0576  0.0495
  741loPI   GL111177   0.790  16.763   5.590 -0.3884  0.0017 -0.2846
  741loPI   GL211178   0.672  17.134   5.601  0.1201  0.2067 -0.1988
  741loPI   C1A11179   0.604  16.692   5.952 -0.1545  0.2529  0.1192
  741loPI   C2A11180   0.658  16.678   6.340  0.0605  0.0877 -0.1505
  741loPI   C3A11181   0.558  16.500   6.778 -0.1814 -0.1848  0.2680
  741loPI   C4A11182   0.732  16.430   7.219 -0.3762 -0.2146 -0.3059
  741loPI   C5A11183   0.718  16.317   7.651 -0.1066  0.3575  0.0982
  741loPI   C6A11184   0.833  16.240   8.139  0.4630 -0.0104  0.2731
  741loPI   C1B11185   0.580  17.199   6.028 -0.0929  0.0439 -0.1039
  741loPI   C2B11186   0.347  17.101   6.379 -0.1794  0.1421 -0.0034
  741loPI   C3B11187   0.390  16.971   6.797  0.0141  0.0430  0.0496
  741loPI   C4B11188   0.696  16.890   7.135  0.1733 -0.1102  0.3652
  742loPI    C111189  17.902   7.404   5.140 -0.1649  0.1600 -0.1225
  742loPI    C211190  17.942   7.179   4.811  0.0664  0.1112 -0.0634
  742loPI    C311191  17.722   7.513   4.800 -0.0179  0.0509 -0.2371
  742loPI   PO411192  17.995   7.369   5.387  0.2801 -0.1050  0.0455
  742loPI   GL111193  18.115   7.487   5.720  0.1732  0.1389  0.0356
  742loPI   GL211194  18.250   7.735   5.741  0.0774  0.0304 -0.0543
  742loPI   C1A11195  17.929   7.526   6.082  0.0023 -0.0122  0.0064
  742loPI   C2A11196  17.945   7.590   6.552 -0.1701  0.1403 -0.3256
  742loPI   C3A11197  17.665   7.561   6.846 -0.2632 -0.1052  0.2314
  742loPI   C4A11198  17.462   7.817   7.220  0.0792 -0.1178 -0.1643
  742loPI   C5A11199  17.381   7.961   7.560 -0.1493 -0.0636  0.0433
  742loPI   C6A11200  17.398   7.915   7.944  0.1412 -0.0524 -0.1446
  742loPI   C1B11201  18.422   7.714   6.144 -0.0640  0.2528 -0.3463
  742loPI   C2B11202  18.387   7.968   6.552 -0.2138  0.1514  0.0630
  742loPI   C3B11203  18.452   7.981   7.121 -0.0378  0.4029  0.1415
  742loPI   C4B11204  18.442   7.769   7.457  0.0096  0.0712  0.0798
  743loPI    C111205  16.132  12.023   5.216 -0.0691  0.1255 -0.1231
  743loPI    C211206  15.899  11.728   5.080  0.0015 -0.0449  0.1190
  743loPI    C311207  16.296  11.681   5.091  0.0190  0.0900  0.0848
  743loPI   PO411208  16.074  12.107   5.542 -0.0391 -0.0215 -0.0934
  743loPI   GL111209  15.721  11.971   5.861  0.1319 -0.3579 -0.1499
  743loPI   GL211210  15.380  12.066   6.019  0.2837  0.4847  0.0411
  743loPI   C1A11211  15.716  11.834   6.242 -0.3536 -0.2275 -0.1770
  743loPI   C2A11212  15.524  11.435   6.428  0.0775  0.1317 -0.2520
  743loPI   C3A11213  15.276  11.179   6.721  0.2645 -0.1542 -0.0767
  743loPI   C4A11214  15.272  11.019   7.162  0.2288  0.3277 -0.1463
  743loPI   C5A11215  15.344  10.577   7.370 -0.1665 -0.2277 -0.1078
  743loPI   C6A11216  15.507  10.243   7.351 -0.1632  0.0174 -0.1084
  743loPI   C1B11217  15.227  11.967   6.437  0.2741 -0.4606  0.1496
  743loPI   C2B11218  15.188  11.757   6.820  0.0031 -0.3002  0.2157
  743loPI   C3B11219  15.290  11.491   7.269 -0.1773 -0.0003  0.0384
  743loPI   C4B11220  15.424  11.724   7.698  0.4152  0.0635 -0.1849
  744loPI    C111221  17.683   0.773   4.708 -0.1986 -0.0681  0.0780
  744loPI    C211222  17.872   1.125   4.684 -0.2553 -0.0222  0.2845
  744loPI    C311223  17.677   0.980   4.366 -0.1127  0.0648  0.1562
  744loPI   PO411224  17.780   0.666   5.059  0.3667 -0.0831  0.1666
  744loPI   GL111225  18.006   0.409   5.261  0.0326  0.1180  0.1219
  744loPI   GL211226  17.911   0.134   5.527 -0.0102  0.0346  0.1139
  744loPI   C1A11227  18.203   0.750   5.601 -0.1895 -0.1233 -0.1903
  744loPI   C2A11228  18.098   0.896   5.971 -0.2524  0.0731 -0.0896
  744loPI   C3A11229  17.972   1.146   6.490 -0.1655 -0.3329 -0.1890
  744loPI   C4A11230  17.793   1.544   6.753  0.0429  0.0790  0.0254
  744loPI   C5A11231  17.610   1.785   7.118  0.0644 -0.2557 -0.1842
  744loPI   C6A11232  17.706   1.847   7.601  0.0337 -0.1935 -0.1313
  744loPI   C1B11233  17.746  -0.002   5.905 -0.2651  0.0289 -0.2323
  744loPI   C2B11234  17.670   0.015   6.393 -0.0658  0.1405  0.2804
  744loPI   C3B11235  17.649  -0.030   6.868  0.0940  0.1553  0.1786
  744loPI   C4B11236  17.605  -0.412   7.095  0.0334 -0.0323 -0.0922
  745loPI    C111237   4.489   4.572   4.803  0.2707 -0.1634  0.3807
  745loPI    C211238   4.563   4.184   4.741  0.0547 -0.1480 -0.0037
  745loPI    C311239   4.557   4.438   4.432 -0.0331  0.1225  0.2166
  745loPI   PO411240   4.599   4.623   5.002 -0.0116 -0.0273 -0.1955
  745loPI   GL111241   4.690   4.710   5.414 -0.1697  0.0968  0.2328
  745loPI   GL211242   4.925   4.496   5.560  0.2303  0.0354 -0.0442
  745loPI   C1A11243   4.474   4.726   5.781  0.3106  0.1185  0.3261
  745loPI   C2A11244   4.619   4.677   6.110 -0.2110 -0.1295  0.2049
  745loPI   C3A11245   4.755   4.665   6.533 -0.3780  0.3570  0.1135
  745loPI   C4A11246   4.937   4.674   6.929 -0.1951 -0.0731 -0.0540
  745loPI   C5A11247   4.933   4.721   7.326  0.2333  0.2315  0.0228
  745loPI   C6A11248   5.314   4.817   7.505 -0.3239  0.1011 -0.3369
  745loPI   C1B11249   5.062   4.503   5.898  0.1639  0.2608 -0.1653
  745loPI   C2B11250   5.230   4.561   6.227 -0.0212  0.0548 -0.1643
  745loPI   C3B11251   5.218   4.385   6.647 -0.0164  0.0810  0.1810
  745loPI   C4B11252   5.125   4.205   6.989  0.2879 -0.0893 -0.1859
  746loPI    C111253  11.790   8.364   5.235  0.0741  0.0614 -0.0178
  746loPI    C211254  11.751   8.374   4.837 -0.1023  0.0407 -0.0016
  746loPI    C311255  11.493   8.163   5.058 -0.0374  0.0964  0.1281
  746loPI   PO411256  12.044   8.233   5.319  0.3035 -0.0317 -0.2198
  746loPI   GL111257  12.216   8.430   5.663  0.2616  0.0984 -0.3361
  746loPI   GL211258  12.333   8.596   5.774  0.0112 -0.1123  0.3634
  746loPI   C1A11259  12.351   8.113   5.983 -0.0515 -0.2225  0.1476
  746loPI   C2A11260  12.578   8.285   6.358  0.1683 -0.1063 -0.2356
  746loPI   C3A11261  12.612   8.409   6.728 -0.1914 -0.0392  0.1756
  746loPI   C4A11262  12.731   8.287   7.084  0.1086  0.4612 -0.1409
  746loPI   C5A11263  12.846   8.420   7.544 -0.0736  0.2493  0.1142
  746loPI   C6A11264  12.522   8.239   7.933  0.0211 -0.0203  0.3487
  746loPI   C1B11265  12.170   8.528   6.197  0.2126 -0.2718 -0.1604
  746loPI   C2B11266  12.165   8.584   6.637 -0.1745 -0.2430  0.0015
  746loPI   C3B11267  12.209   8.510   7.103 -0.0618 -0.5648  0.1978
  746loPI   C4B11268  12.346   8.314   7.479 -0.0123  0.0073 -0.1425
  747loPI    C111269  13.889   1.211   5.448 -0.0774  0.0972  0.0872
  747loPI    C211270  14.051   1.290   5.091 -0.0263 -0.0172  0.0848
  747loPI    C311271  13.838   0.955   5.144 -0.0660  0.0185  0.1512
  747loPI   PO411272  14.094   1.107   5.583 -0.1008 -0.1110 -0.2218
  747loPI   GL111273  14.090   0.884   5.909 -0.2160 -0.2104 -0.0771
  747loPI   GL211274  14.237   0.638   6.157  0.0704 -0.0834  0.2298
  747loPI   C1A11275  13.792   0.891   6.294 -0.4287  0.1914  0.2782
  747loPI   C2A11276  13.613   0.818   6.683 -0.2170 -0.0972 -0.2318
  747loPI   C3A11277  13.596   0.785   7.165  0.2648  0.2930 -0.1153
  747loPI   C4A11278  13.702   0.794   7.551  0.1313 -0.1431 -0.2454
  747loPI   C5A11279  13.743   0.844   8.063  0.2448  0.2193 -0.0447
  747loPI   C6A11280  13.811   0.977   8.525 -0.0767  0.1316  0.1285
  747loPI   C1B11281  14.218   0.982   6.479  0.1855  0.0095  0.0708
  747loPI   C2B11282  14.576   1.190   6.633  0.0809 -0.2470  0.4086
  747loPI   C3B11283  14.788   1.497   6.790  0.1039 -0.2413 -0.4324
  747loPI   C4B11284  14.820   1.675   7.157  0.2233  0.0381 -0.1098
  748loPI    C111285  14.649   0.221   5.228 -0.2855  0.0445 -0.0417
  748loPI    C211286  14.392   0.149   4.930 -0.0504 -0.1022 -0.2127
  748loPI    C311287  14.690  -0.107   5.004  0.1378  0.1405 -0.1136
  748loPI   PO411288  14.634   0.423   5.300 -0.1603 -0.2153  0.2503
  748loPI   GL111289  14.644   0.580   5.653  0.0308  0.2064  0.0105
  748loPI   GL211290  14.611   0.893   5.794 -0.2061  0.0324 -0.0873
  748loPI   C1A11291  14.760   0.355   6.084  0.0740 -0.1244  0.0442
  748loPI   C2A11292  14.983   0.413   6.450  0.1534  0.2497 -0.2694
  748loPI   C3A11293  14.917   0.239   6.754 -0.0741 -0.0368 -0.1968
  748loPI   C4A11294  15.029  -0.076   7.105 -0.1255 -0.2049  0.0900
  748loPI   C5A11295  15.196  -0.220   7.414 -0.1193 -0.0717  0.1019
  748loPI   C6A11296  15.603  -0.393   7.483 -0.0123  0.0615 -0.2484
  748loPI   C1B11297  14.629   0.857   6.281  0.0987  0.1840 -0.0218
  748loPI   C2B11298  14.581   0.602   6.751 -0.0804  0.0151  0.3870
  748loPI   C3B11299  14.626   0.377   7.126 -0.0677 -0.1348 -0.1978
  748loPI   C4B11300  14.861   0.209   7.499 -0.1173  0.0767  0.0454
  749loPI    C111301   7.897  11.640   5.427 -0.0804  0.1705 -0.2132
  749loPI    C211302   8.143  11.906   5.258  0.1466  0.0177 -0.1285
  749loPI    C311303   7.922  11.665   5.029  0.0928  0.1385 -0.2050
  749loPI   PO411304   7.990  11.709   5.722 -0.0652 -0.0959  0.1001
  749loPI   GL111305   7.847  11.916   6.086  0.1961 -0.1243 -0.0279
  749loPI   GL211306   7.751  12.255   6.028  0.1851 -0.2937 -0.1114
  749loPI   C1A11307   8.063  11.701   6.339  0.0015  0.0537 -0.1653
  749loPI   C2A11308   8.259  11.733   6.767 -0.0446  0.3020  0.0683
  749loPI   C3A11309   8.265  11.796   7.119 -0.0462  0.1632  0.0953
  749loPI   C4A11310   8.527  11.868   7.398 -0.0796  0.1732  0.0890
  749loPI   C5A11311   8.788  12.304   7.511  0.0376  0.2674  0.2449
  749loPI   C6A11312   9.053  12.791   7.535  0.0652 -0.0335  0.1505
  749loPI   C1B11313   7.404  12.185   6.424  0.1920 -0.1250  0.4658
  749loPI   C2B11314   7.357  12.062   6.840 -0.1098  0.0094  0.0486
  749loPI   C3B11315   7.503  12.047   7.320  0.0160  0.0719 -0.2404
  749loPI   C4B11316   7.359  11.795   7.633  0.3080  0.1002  0.2791
  750loPI    C111317  15.580   5.275   5.067 -0.1702  0.0380 -0.1424
  750loPI    C211318  15.226   5.386   4.919 -0.1399 -0.0305 -0.2670
  750loPI    C311319  15.462   5.139   4.710 -0.0667 -0.0731 -0.1349
  750loPI   PO411320  15.559   5.309   5.330 -0.0464  0.1347 -0.2012
  750loPI   GL111321  15.313   5.569   5.621  0.0583 -0.2484 -0.3028
  750loPI   GL211322  15.482   5.458   5.865 -0.1717  0.2181  0.2640
  750loPI   C1A11323  15.292   5.844   5.992  0.1942 -0.1800 -0.1124
  750loPI   C2A11324  15.550   5.973   6.367  0.0979 -0.1378  0.0041
  750loPI   C3A11325  15.487   5.839   6.676  0.0156  0.0432 -0.0192
  750loPI   C4A11326  15.332   5.493   7.051  0.0694  0.1061 -0.1147
  750loPI   C5A11327  15.076   5.386   7.401 -0.0458  0.3730 -0.1830
  750loPI   C6A11328  14.799   5.471   7.609 -0.0834  0.1756  0.1067
  750loPI   C1B11329  15.717   5.551   6.116  0.0631  0.1451  0.1338
  750loPI   C2B11330  16.056   5.555   6.258 -0.1644 -0.0026  0.0896
  750loPI   C3B11331  16.313   5.308   6.316 -0.0207  0.0202 -0.2095
  750loPI   C4B11332  16.622   4.990   6.544 -0.1007  0.1443 -0.0551
  751loPI    C111333   1.342   1.028   4.930  0.0417 -0.1416  0.0899
  751loPI    C211334   1.078   1.110   4.641 -0.0461  0.0686  0.2273
  751loPI    C311335   1.321   0.794   4.606 -0.0509  0.0956 -0.0782
  751loPI   PO411336   1.220   1.129   5.201 -0.1309  0.1326  0.0312
  751loPI   GL111337   1.269   1.393   5.538  0.0858  0.0572 -0.0540
  751loPI   GL211338   1.239   1.658   5.768  0.1528  0.3217  0.0780
  751loPI   C1A11339   1.336   1.046   5.829 -0.1649 -0.2885 -0.1502
  751loPI   C2A11340   1.354   0.948   6.250 -0.3957  0.0166 -0.2243
  751loPI   C3A11341   1.348   1.047   6.712  0.0693 -0.2122 -0.0421
  751loPI   C4A11342   1.294   1.165   7.172  0.1649  0.0700  0.0139
  751loPI   C5A11343   1.583   0.843   7.420 -0.2213 -0.1566 -0.1031
  751loPI   C6A11344   1.597   0.553   7.743  0.2928  0.1424  0.2345
  751loPI   C1B11345   1.333   1.461   6.148 -0.3455 -0.1292  0.1742
  751loPI   C2B11346   1.619   1.417   6.498 -0.1392  0.0130 -0.2054
  751loPI   C3B11347   1.713   1.359   6.969 -0.1592 -0.1673  0.3082
  751loPI   C4B11348   1.667   1.343   7.457  0.0667 -0.0348 -0.0605
  752loPI    C111349   8.794   6.688   5.232  0.0614  0.0429  0.0952
  752loPI    C211350   8.424   6.548   5.170 -0.0139  0.1022  0.3948
  752loPI    C311351   8.556   6.865   4.964 -0.0804 -0.0014  0.1908
  752loPI   PO411352   8.758   6.722   5.502  0.0559 -0.2026  0.1508
  752loPI   GL111353   8.603   6.630   5.876  0.0390  0.1188 -0.1405
  752loPI   GL211354   8.319   6.585   5.652  0.2060 -0.0120  0.0507
  752loPI   C1A11355   8.553   6.279   6.134  0.0819 -0.1210 -0.1658
  752loPI   C2A11356   8.681   6.108   6.483  0.4179 -0.0746 -0.2027
  752loPI   C3A11357   8.589   5.955   6.882  0.0528 -0.1499  0.2026
  752loPI   C4A11358   8.505   5.944   7.294 -0.1023 -0.0198 -0.2686
  752loPI   C5A11359   8.259   6.086   7.548  0.1260 -0.2381 -0.0137
  752loPI   C6A11360   8.239   6.297   8.022  0.1095  0.4739  0.1523
  752loPI   C1B11361   8.119   6.486   6.019 -0.1947  0.0023 -0.2328
  752loPI   C2B11362   8.085   6.450   6.458 -0.1560  0.2390 -0.0141
  752loPI   C3B11363   8.406   6.427   6.791  0.1555 -0.1585  0.1948
  752loPI   C4B11364   8.542   6.478   7.179 -0.0859 -0.0482 -0.3089
  753loPI    C111365  17.212  17.329   4.871  0.0141 -0.4535 -0.0850
  753loPI    C211366  16.939  17.490   4.626  0.0137 -0.0100  0.1943
  753loPI    C311367  17.316  17.441   4.501 -0.0575 -0.0815  0.0029
  753loPI   PO411368  17.165  17.507   5.085 -0.4869 -0.0678  0.1548
  753loPI   GL111369  16.996  17.473   5.473 -0.1253 -0.3000  0.2423
  753loPI   GL211370  16.668  17.458   5.561 -0.0692  0.1794  0.5602
  753loPI   C1A11371  17.284  17.504   5.804 -0.1562  0.3051  0.0424
  753loPI   C2A11372  17.687  17.618   5.976 -0.0061 -0.0715  0.0972
  753loPI   C3A11373  17.890  17.756   6.360 -0.1004  0.1896 -0.0019
  753loPI   C4A11374  18.283  17.681   6.713 -0.1421 -0.4268  0.1571
  753loPI   C5A11375  18.213  17.740   7.139  0.0786 -0.2179 -0.3173
  753loPI   C6A11376  17.867  17.858   7.403  0.0287 -0.1348 -0.2070
  753loPI   C1B11377  16.852  17.206   5.860 -0.0027 -0.0009  0.1887
  753loPI   C2B11378  17.125  17.254   6.246 -0.1077  0.2221  0.0536
  753loPI   C3B11379  17.113  17.044   6.670  0.0135  0.1509  0.0267
  753loPI   C4B11380  17.005  17.022   7.077 -0.1863  0.1281 -0.1154
  754loPI    C111381  10.376   5.587   4.845 -0.1644 -0.0568 -0.1861
  754loPI    C211382  10.279   5.276   4.613  0.1207 -0.2216 -0.0887
  754loPI    C311383  10.640   5.445   4.579  0.0037  0.0349 -0.0702
  754loPI   PO411384  10.210   5.467   5.139 -0.2773  0.0097 -0.0190
  754loPI   GL111385  10.209   5.492   5.587  0.5066  0.1038  0.1403
  754loPI   GL211386   9.971   5.319   5.888  0.0026 -0.1297  0.0178
  754loPI   C1A11387  10.424   5.461   6.055  0.2510  0.1451  0.0589
  754loPI   C2A11388  10.383   5.395   6.529  0.1366 -0.0613 -0.1127
  754loPI   C3A11389  10.440   5.153   6.936 -0.0865 -0.0714  0.1746
  754loPI   C4A11390  10.593   4.955   7.324  0.0445  0.1488 -0.2857
  754loPI   C5A11391  10.761   4.909   7.664 -0.0239 -0.2619 -0.0441
  754loPI   C6A11392  10.667   4.862   8.112 -0.0209  0.0172  0.0510
  754loPI   C1B11393   9.566   5.397   5.901 -0.0596 -0.0793 -0.1011
  754loPI   C2B11394   9.252   5.297   6.178  0.0142 -0.5011 -0.1069
  754loPI   C3B11395   9.210   4.965   6.467  0.1520 -0.1806  0.1295
  754loPI   C4B11396   9.221   4.833   6.839 -0.0360 -0.0223 -0.0449
  755loPI    C111397   5.005  11.710   4.802 -0.2262  0.0058  0.1557
  755loPI    C211398   4.717  11.444   4.719 -0.1900 -0.0142  0.0933
  755loPI    C311399   4.837  11.703   4.439 -0.1613  0.0077  0.1257
  755loPI   PO411400   4.977  11.691   5.087 -0.1072 -0.2332 -0.0439
  755loPI   GL111401   4.667  11.381   5.206  0.2649  0.1288  0.3220
  755loPI   GL211402   4.749  11.031   5.240 -0.1196 -0.2365 -0.0209
  755loPI   C1A11403   4.431  11.357   5.586  0.1199  0.0168  0.1020
  755loPI   C2A11404   4.404  11.394   6.017  0.1661 -0.0466 -0.1490
  755loPI   C3A11405   4.466  11.379   6.440 -0.2176 -0.2543  0.0822
  755loPI   C4A11406   4.383  11.585   6.875 -0.0507 -0.0253 -0.2388
  755loPI   C5A11407   4.596  11.523   7.251  0.1436  0.2603  0.0285
  755loPI   C6A11408   4.962  11.511   7.612  0.4213  0.2009 -0.1143
  755loPI   C1B11409   4.684  10.971   5.720 -0.3624 -0.4927  0.0330
  755loPI   C2B11410   4.688  10.961   6.126  0.3384  0.1065 -0.2207
  755loPI   C3B11411   4.834  10.949   6.486 -0.1837 -0.0270 -0.0386
  755loPI   C4B11412   4.607  11.132   6.810 -0.2203  0.2243  0.0092
  756loPI    C111413   2.633  10.024   5.021 -0.2129  0.1098 -0.0980
  756loPI    C211414   2.839  10.025   4.678 -0.3615 -0.2239 -0.1929
  756loPI    C311415   2.885   9.725   4.938 -0.2264  0.0425  0.0984
  756loPI   PO411416   2.578  10.251   5.122 -0.1004  0.2287 -0.0673
  756loPI   GL111417   2.512  10.308   5.555 -0.3255  0.2565  0.0492
  756loPI   GL211418   2.506  10.200   5.803  0.0184  0.2633  0.2865
  756loPI   C1A11419   2.568  10.677   5.817  0.0742 -0.2331  0.3604
  756loPI   C2A11420   2.652  10.738   6.253  0.0879 -0.2196 -0.0332
  756loPI   C3A11421   2.705  10.729   6.666  0.0545  0.0529  0.0616
  756loPI   C4A11422   2.747  10.694   7.120 -0.0806  0.2618  0.0419
  756loPI   C5A11423   2.695  10.631   7.629  0.0162  0.1138  0.0087
  756loPI   C6A11424   2.569  10.836   7.945 -0.1249 -0.0504  0.3892
  756loPI   C1B11425   2.512  10.237   6.255  0.0198  0.4470  0.1699
  756loPI   C2B11426   2.523  10.231   6.781 -0.1925 -0.2196  0.2807
  756loPI   C3B11427   2.517  10.241   7.244 -0.1548  0.0764 -0.0595
  756loPI   C4B11428   2.297   9.978   7.505  0.4240 -0.1442 -0.1573
  757loPI    C111429   3.806  17.541   4.504 -0.2595  0.1116 -0.1612
  757loPI    C211430   3.836  17.168   4.361  0.2775  0.0275  0.1460
  757loPI    C311431   3.979  17.476   4.149  0.1830  0.0164  0.0653
  757loPI   PO411432   3.824  17.474   4.819  0.2423 -0.2186  0.0323
  757loPI   GL111433   3.781  17.462   5.286  0.0138  0.0983 -0.0481
  757loPI   GL211434   3.914  17.783   5.207  0.1202  0.0329  0.2521
  757loPI   C1A11435   3.748  17.757   5.689 -0.1081  0.0258  0.0313
  757loPI   C2A11436   3.781  17.771   6.140 -0.2225  0.3214  0.3434
  757loPI   C3A11437   3.787  17.916   6.489  0.1907  0.0755  0.0590
  757loPI   C4A11438   3.649  17.904   6.924  0.2684  0.1601  0.1752
  757loPI   C5A11439   3.718  17.791   7.388  0.0584 -0.0849  0.3370
  757loPI   C6A11440   3.471  17.640   7.728  0.1369  0.1148 -0.0416
  757loPI   C1B11441   4.209  17.849   5.613  0.1262 -0.1216  0.1932
  757loPI   C2B11442   4.277  17.823   6.099 -0.0074  0.2634 -0.2864
  757loPI   C3B11443   4.556  17.986   6.403  0.2338 -0.0275  0.0171
  757loPI   C4B11444   4.514  17.947   6.749  0.0372  0.0692 -0.1722
  758loPI    C111445  16.612   4.454   4.877 -0.0800  0.1707  0.0089
  758loPI    C211446  16.247   4.582   4.775  0.0099  0.2070 -0.2772
  758loPI    C311447  16.570   4.787   4.658  0.1202  0.2340  0.0644
  758loPI   PO411448  16.627   4.438   5.148  0.1449  0.0691  0.1403
  758loPI   GL111449  16.610   4.562   5.590 -0.0267  0.2181 -0.2394
  758loPI   GL211450  16.256   4.476   5.642 -0.2994  0.1525 -0.1148
  758loPI   C1A11451  16.729   4.374   5.910  0.1100 -0.0980 -0.0754
  758loPI   C2A11452  16.728   4.136   6.251 -0.1736 -0.0435 -0.1050
  758loPI   C3A11453  16.930   3.895   6.547  0.4034 -0.2214 -0.1363
  758loPI   C4A11454  16.936   4.226   6.975 -0.0274 -0.0068 -0.0766
  758loPI   C5A11455  17.152   4.203   7.341 -0.0660  0.1033 -0.0900
  758loPI   C6A11456  16.960   4.173   7.783 -0.0040  0.1345 -0.0650
  758loPI   C1B11457  16.200   4.234   6.050  0.0854  0.0559  0.0680
  758loPI   C2B11458  16.250   4.075   6.425 -0.1344  0.0477  0.0853
  758loPI   C3B11459  16.126   4.080   6.821 -0.0896 -0.0814 -0.2068
  758loPI   C4B11460  16.039   4.262   7.239  0.1751 -0.0998  0.0041
  759loPI    C111461   6.953   0.961   4.721  0.1826  0.1035 -0.0182
  759loPI    C211462   6.714   0.828   4.429 -0.1574  0.1939  0.2127
  759loPI    C311463   7.111   0.786   4.398 -0.2136 -0.1825 -0.0639
  759loPI   PO411464   6.833   0.979   4.927  0.0301 -0.1874  0.1665
  759loPI   GL111465   6.844   0.908   5.446 -0.2024  0.1023 -0.3420
  759loPI   GL211466   6.722   1.177   5.564 -0.2959  0.1673  0.0265
  759loPI   C1A11467   6.654   0.733   5.848 -0.0220 -0.2511 -0.2917
  759loPI   C2A11468   6.612   0.753   6.285  0.1409  0.2724 -0.0303
  759loPI   C3A11469   6.595   0.654   6.728  0.1809 -0.1754  0.0860
  759loPI   C4A11470   6.461   0.729   7.054 -0.2327 -0.4649  0.1508
  759loPI   C5A11471   6.416   0.808   7.466  0.1649 -0.0011 -0.0472
  759loPI   C6A11472   6.469   0.890   7.913 -0.1376 -0.0550  0.1503
  759loPI   C1B11473   6.535   1.228   5.969  0.0288  0.1158  0.0279
  759loPI   C2B11474   6.516   1.288   6.334 -0.0651 -0.0801 -0.1511
  759loPI   C3B11475   6.481   1.221   6.774  0.0466 -0.2452 -0.0896
  759loPI   C4B11476   6.403   1.250   7.128  0.1804  0.0178 -0.2318
  760loPI    C111477   6.124  12.334   5.240  0.1534 -0.2506  0.0434
  760loPI    C211478   6.508  12.264   5.152  0.1117 -0.3259 -0.0808
  760loPI    C311479   6.223  12.176   4.886  0.0598  0.3737 -0.2768
  760loPI   PO411480   6.007  12.137   5.431  0.0921 -0.0290 -0.1452
  760loPI   GL111481   5.653  11.922   5.559 -0.1571  0.0348 -0.1783
  760loPI   GL211482   5.313  11.958   5.485 -0.2059 -0.1109  0.1803
  760loPI   C1A11483   5.589  11.854   5.974 -0.1963  0.2701  0.1156
  760loPI   C2A11484   5.668  11.982   6.364 -0.2870 -0.0712 -0.0349
  760loPI   C3A11485   5.758  11.968   6.852  0.0683 -0.1719  0.1633
  760loPI   C4A11486   5.809  12.117   7.372  0.0709  0.1627 -0.1887
  760loPI   C5A11487   5.899  11.839   7.736 -0.2024 -0.1163  0.1205
  760loPI   C6A11488   5.819  11.610   8.135  0.4883 -0.1612  0.1236
  760loPI   C1B11489   5.151  11.988   5.804 -0.3308  0.0244 -0.0201
  760loPI   C2B11490   5.229  11.843   6.268 -0.2782  0.1328 -0.2271
  760loPI   C3B11491   5.251  11.947   6.787  0.1323  0.2670 -0.1892
  760loPI   C4B11492   5.305  12.075   7.265  0.0238 -0.0005  0.0093
  761loPI    C111493  12.100  14.902   5.659  0.2176 -0.0349  0.1211
  761loPI    C211494  12.493  14.874   5.590  0.2043  0.1136 -0.0197
  761loPI    C311495  12.259  14.553   5.543  0.2826  0.0689 -0.1074
  761loPI   PO411496  12.079  14.997   5.910  0.0547  0.0843  0.1863
  761loPI   GL111497  12.081  15.331   6.190 -0.2031 -0.0988  0.3906
  761loPI   GL211498  12.096  15.686   6.126  0.0401 -0.0075  0.2652
  761loPI   C1A11499  12.126  15.110   6.598  0.0008 -0.1638 -0.0710
  761loPI   C2A11500  12.306  15.151   6.924  0.2619 -0.0030 -0.0318
  761loPI   C3A11501  12.293  15.100   7.402 -0.0648 -0.1474  0.3591
  761loPI   C4A11502  12.176  14.867   7.771 -0.1032 -0.2061 -0.5731
  761loPI   C5A11503  11.933  14.707   8.126  0.0172  0.0861  0.0468
  761loPI   C6A11504  11.651  14.535   8.357  0.0012  0.0086 -0.1433
  761loPI   C1B11505  12.051  15.644   6.624 -0.0756  0.0260 -0.0113
  761loPI   C2B11506  12.170  15.628   7.007  0.1776  0.0341 -0.0331
  761loPI   C3B11507  12.222  15.631   7.441  0.0036  0.1992 -0.0289
  761loPI   C4B11508  12.190  15.390   7.804 -0.2757 -0.2431 -0.1237
  762loPI    C111509   3.134   0.511   4.647 -0.1315  0.0511 -0.1119
  762loPI    C211510   3.326   0.831   4.505 -0.2333  0.1095 -0.1191
  762loPI    C311511   3.297   0.501   4.282  0.1769 -0.0306  0.0248
  762loPI   PO411512   3.210   0.491   4.906 -0.3907  0.2001 -0.1705
  762loPI   GL111513   3.133   0.732   5.420 -0.1233 -0.1220  0.2415
  762loPI   GL211514   3.251   0.425   5.423 -0.2190  0.2293  0.0500
  762loPI   C1A11515   2.888   0.560   5.747 -0.0843 -0.2947  0.0464
  762loPI   C2A11516   2.705   0.374   6.131  0.0502  0.1838  0.0264
  762loPI   C3A11517   2.684   0.316   6.521  0.1381 -0.1862  0.0342
  762loPI   C4A11518   2.775   0.505   6.958 -0.3523  0.1665  0.1957
  762loPI   C5A11519   3.055   0.790   7.242  0.0281 -0.4269  0.2491
  762loPI   C6A11520   3.142   1.048   7.627  0.0026 -0.3549 -0.2695
  762loPI   C1B11521   3.176   0.139   5.733 -0.2459  0.3151  0.0260
  762loPI   C2B11522   3.046  -0.053   5.994 -0.1225 -0.1964 -0.0067
  762loPI   C3B11523   3.038  -0.099   6.403  0.0125  0.1297 -0.4031
  762loPI   C4B11524   3.014   0.073   6.821 -0.1844 -0.0529 -0.1352
  763loPI    C111525   5.793  14.164   4.881 -0.0872 -0.0628 -0.0122
  763loPI    C211526   5.942  14.424   4.616 -0.0648 -0.0874 -0.0238
  763loPI    C311527   5.577  14.481   4.769 -0.0204  0.0043  0.0482
  763loPI   PO411528   6.010  14.157   5.065  0.2884  0.0815  0.1037
  763loPI   GL111529   5.964  13.971   5.559 -0.0194  0.1641  0.0604
  763loPI   GL211530   5.765  14.083   5.525 -0.0811  0.0045  0.0774
  763loPI   C1A11531   6.114  13.922   5.927  0.2083  0.3196  0.0724
  763loPI   C2A11532   6.100  13.801   6.309 -0.1263  0.3083  0.2277
  763loPI   C3A11533   5.999  13.742   6.646  0.1067 -0.1923  0.1398
  763loPI   C4A11534   5.935  13.722   7.137 -0.4422  0.1655  0.0014
  763loPI   C5A11535   6.010  14.068   7.366  0.0515 -0.0753  0.4778
  763loPI   C6A11536   6.201  14.273   7.642  0.0504  0.1946  0.0602
  763loPI   C1B11537   5.555  14.033   5.993  0.1001  0.0783 -0.0584
  763loPI   C2B11538   5.615  14.036   6.447  0.1621 -0.1094  0.0465
  763loPI   C3B11539   5.552  14.026   6.968  0.0427 -0.1181  0.0674
  763loPI   C4B11540   5.468  13.787   7.226  0.1108  0.2520  0.2209
  764loPI    C111541  10.470  14.306   5.535 -0.2041  0.1705 -0.1172
  764loPI    C211542  10.470  14.631   5.301 -0.0507  0.0406 -0.3009
  764loPI    C311543  10.815  14.484   5.440 -0.1439  0.1493  0.0581
  764loPI   PO411544  10.321  14.367   5.745 -0.5053 -0.0522  0.1474
  764loPI   GL111545  10.279  14.641   6.134  0.1333 -0.0359  0.1486
  764loPI   GL211546  10.432  14.905   6.267 -0.1037  0.0115 -0.0599
  764loPI   C1A11547  10.112  14.593   6.527 -0.0198  0.1156 -0.1492
  764loPI   C2A11548  10.117  14.386   6.899  0.0163 -0.2519 -0.1448
  764loPI   C3A11549  10.113  14.272   7.289 -0.2624 -0.1915  0.1184
  764loPI   C4A11550  10.116  14.037   7.678  0.0085 -0.2670  0.1567
  764loPI   C5A11551   9.979  14.125   7.991  0.2669 -0.2974 -0.0503
  764loPI   C6A11552  10.159  14.500   8.144 -0.0221 -0.2962  0.0099
  764loPI   C1B11553  10.518  14.735   6.731 -0.2399  0.2144 -0.0683
  764loPI   C2B11554  10.609  14.635   7.162  0.0987 -0.1581  0.1538
  764loPI   C3B11555  10.491  14.868   7.469 -0.1577 -0.1140 -0.2094
  764loPI   C4B11556  10.269  15.018   7.788  0.0466 -0.0048  0.0748
  765loPI    C111557   8.071   7.722   5.016 -0.2847 -0.0008 -0.2290
  765loPI    C211558   8.116   8.024   4.757  0.1534  0.0248 -0.1300
  765loPI    C311559   8.132   7.645   4.628 -0.3648  0.0368 -0.2492
  765loPI   PO411560   7.876   7.862   5.282 -0.0960  0.0263  0.1214
  765loPI   GL111561   7.885   7.788   5.745 -0.1721  0.0990 -0.0459
  765loPI   GL211562   7.754   7.511   5.749  0.0647  0.1550 -0.2561
  765loPI   C1A11563   8.231   7.652   6.034  0.0533  0.0376 -0.0569
  765loPI   C2A11564   8.358   7.510   6.470  0.1088  0.0090 -0.1476
  765loPI   C3A11565   8.322   7.085   6.639  0.2206  0.0409  0.1592
  765loPI   C4A11566   8.357   6.886   7.008  0.0604 -0.1911 -0.0754
  765loPI   C5A11567   8.218   7.032   7.502 -0.0896 -0.2098  0.3311
  765loPI   C6A11568   7.864   7.224   7.766 -0.0861 -0.1034  0.1556
  765loPI   C1B11569   7.904   7.412   6.262 -0.1412 -0.2369  0.0570
  765loPI   C2B11570   7.893   7.333   6.751  0.1131 -0.1794  0.2983
  765loPI   C3B11571   7.736   7.297   7.191  0.2449  0.3083 -0.2537
  765loPI   C4B11572   7.418   7.273   7.448 -0.1276  0.0280  0.2748
  766loPI    C111573  12.401   1.441   5.426  0.0336 -0.0005 -0.0357
  766loPI    C211574  12.725   1.387   5.654 -0.0270  0.3014  0.1269
  766loPI    C311575  12.763   1.533   5.284  0.0160  0.4348  0.1832
  766loPI   PO411576  12.197   1.560   5.584 -0.0950 -0.0809 -0.0921
  766loPI   GL111577  12.276   1.515   6.024  0.3026 -0.0077  0.1525
  766loPI   GL211578  12.539   1.694   6.062  0.0509 -0.0081 -0.0913
  766loPI   C1A11579  12.153   1.630   6.439  0.1997 -0.0651 -0.1918
  766loPI   C2A11580  12.038   1.594   6.905  0.0957  0.0569 -0.1263
  766loPI   C3A11581  11.991   1.249   7.103 -0.2103 -0.0255  0.2701
  766loPI   C4A11582  12.004   0.829   7.154  0.1751 -0.0472 -0.1252
  766loPI   C5A11583  12.239   0.427   7.333  0.1672 -0.1841 -0.0773
  766loPI   C6A11584  12.570   0.264   7.448  0.1007 -0.1282 -0.0757
  766loPI   C1B11585  12.644   1.791   6.420  0.2140 -0.0140 -0.3732
  766loPI   C2B11586  12.520   1.928   6.858 -0.0817  0.1544  0.1392
  766loPI   C3B11587  12.440   1.710   7.242 -0.3185 -0.0751  0.1464
  766loPI   C4B11588  12.499   1.747   7.707 -0.0260 -0.0583  0.1052
  767loPI    C111589   9.748   8.131   5.157  0.1536 -0.1763 -0.1144
  767loPI    C211590   9.497   7.823   5.201 -0.2132  0.1487  0.1305
  767loPI    C311591   9.416   8.111   4.935  0.0742  0.0913 -0.0232
  767loPI   PO411592   9.812   8.222   5.427  0.0862  0.0539 -0.3648
  767loPI   GL111593   9.564   8.207   5.876 -0.0853  0.2520  0.2034
  767loPI   GL211594   9.243   7.994   5.857 -0.0793 -0.0879  0.2510
  767loPI   C1A11595   9.585   8.367   6.307 -0.2757  0.2034  0.0217
  767loPI   C2A11596   9.733   8.306   6.775  0.1370  0.1317 -0.1360
  767loPI   C3A11597   9.814   7.952   7.104 -0.1500 -0.2886  0.1228
  767loPI   C4A11598   9.836   7.905   7.505 -0.0308 -0.1325  0.1591
  767loPI   C5A11599  10.084   7.823   7.854  0.0893 -0.0912 -0.1398
  767loPI   C6A11600   9.832   7.752   8.162 -0.0338  0.1608  0.1767
  767loPI   C1B11601   9.204   8.038   6.254  0.0047  0.2934 -0.0286
  767loPI   C2B11602   9.119   8.105   6.658 -0.0717 -0.1200  0.1486
  767loPI   C3B11603   9.317   8.282   7.078  0.0632  0.0640  0.2975
  767loPI   C4B11604   9.643   8.456   7.264  0.2386  0.0002 -0.0324
  768loPI    C111605  11.133   3.432   5.417  0.0191  0.0736  0.2008
  768loPI    C211606  10.877   3.630   5.182  0.0767 -0.2051 -0.1036
  768loPI    C311607  11.271   3.663   5.122  0.0966 -0.1743  0.0400
  768loPI   PO411608  11.085   3.497   5.647 -0.1559  0.0369  0.0850
  768loPI   GL111609  11.215   3.401   6.060  0.0216  0.1862 -0.2481
  768loPI   GL211610  11.510   3.453   6.139 -0.0330  0.0343  0.3693
  768loPI   C1A11611  11.000   3.510   6.454 -0.2665  0.1781  0.1324
  768loPI   C2A11612  10.816   3.740   6.752  0.0313  0.0148 -0.1033
  768loPI   C3A11613  10.552   3.995   7.008  0.4802  0.0420 -0.0792
  768loPI   C4A11614  10.401   4.159   7.401 -0.1029  0.1255  0.2238
  768loPI   C5A11615  10.240   4.526   7.516  0.1832 -0.3276 -0.0017
  768loPI   C6A11616  10.278   4.957   7.757  0.2202  0.0755  0.1287
  768loPI   C1B11617  11.603   3.383   6.497 -0.1578  0.0710  0.0212
  768loPI   C2B11618  11.746   3.537   6.839 -0.0319  0.2019  0.2360
  768loPI   C3B11619  11.637   3.452   7.305 -0.0111  0.0017  0.1838
  768loPI   C4B11620  11.896   3.526   7.620 -0.0336 -0.1893  0.1486
  769loPI    C111621   4.843   7.091   5.295  0.1109 -0.1227 -0.1127
  769loPI    C211622   4.557   7.299   5.107  0.2669  0.2702  0.0736
  769loPI    C311623   4.469   6.950   5.282 -0.1034  0.3957  0.1465
  769loPI   PO411624   4.964   7.220   5.417  0.0597  0.2828  0.1050
  769loPI   GL111625   4.931   7.350   5.823  0.2107  0.1443 -0.1514
  769loPI   GL211626   5.261   7.155   5.838  0.0997  0.0286 -0.1492
  769loPI   C1A11627   4.939   7.182   6.307 -0.1297 -0.0642 -0.0401
  769loPI   C2A11628   5.101   7.155   6.740 -0.1459  0.1623  0.2297
  769loPI   C3A11629   5.122   7.097   7.199  0.0842 -0.1556  0.1095
  769loPI   C4A11630   5.197   6.963   7.600 -0.2016  0.0479  0.1195
  769loPI   C5A11631   5.337   7.166   8.030 -0.3486  0.1463 -0.0697
  769loPI   C6A11632   5.074   7.509   8.251 -0.0906  0.1376  0.0130
  769loPI   C1B11633   5.445   7.486   6.093  0.0219 -0.0943  0.1525
  769loPI   C2B11634   5.502   7.426   6.563 -0.2716 -0.0774  0.4071
  769loPI   C3B11635   5.668   7.304   7.001 -0.2635 -0.2436  0.1218
  769loPI   C4B11636   5.939   7.137   7.248 -0.0466 -0.0134 -0.0944
  770loPI    C111637   5.897  10.525   5.010 -0.0157  0.0551 -0.1180
  770loPI    C211638   6.174  10.413   4.743 -0.0795 -0.0891 -0.1248
  770loPI    C311639   5.799  10.279   4.710 -0.1595  0.1324 -0.1351
  770loPI   PO411640   5.968  10.408   5.294  0.1134  0.2687  0.0875
  770loPI   GL111641   5.683  10.355   5.554 -0.0152 -0.3814 -0.2857
  770loPI   GL211642   5.689  10.655   5.727 -0.1494 -0.0666 -0.1031
  770loPI   C1A11643   5.350  10.282   5.751  0.0000  0.2178 -0.1961
  770loPI   C2A11644   5.358  10.178   6.119  0.2648  0.1886 -0.1142
  770loPI   C3A11645   5.386  10.143   6.534 -0.5168 -0.1305  0.0468
  770loPI   C4A11646   5.539  10.027   6.971 -0.2922 -0.0379  0.0268
  770loPI   C5A11647   5.542   9.737   7.167  0.0816 -0.0430 -0.2098
  770loPI   C6A11648   5.746   9.386   7.428 -0.0011  0.0332  0.1088
  770loPI   C1B11649   5.641  10.539   6.222 -0.4503  0.0249  0.0625
  770loPI   C2B11650   5.584  10.603   6.686  0.0252 -0.0101 -0.2239
  770loPI   C3B11651   5.560  10.493   7.021 -0.1881  0.2617 -0.2449
  770loPI   C4B11652   5.644  10.577   7.424  0.2315  0.0325  0.2057
  771loPI    C111653   3.704   0.541   4.782 -0.1430 -0.0931  0.0308
  771loPI    C211654   3.572   0.213   4.596 -0.1745 -0.0759  0.0228
  771loPI    C311655   3.837   0.452   4.415  0.0211 -0.2171  0.1188
  771loPI   PO411656   3.664   0.448   5.099  0.0750  0.1235 -0.0391
  771loPI   GL111657   3.765   0.723   5.514 -0.1423  0.1797  0.2779
  771loPI   GL211658   4.102   0.500   5.504 -0.2584  0.0576  0.0057
  771loPI   C1A11659   3.556   0.462   5.844  0.1810  0.0262  0.2436
  771loPI   C2A11660   3.247   0.417   6.177  0.0291  0.2572 -0.0002
  771loPI   C3A11661   3.161   0.515   6.642 -0.0559 -0.4643 -0.1027
  771loPI   C4A11662   3.104   0.839   6.737 -0.1352 -0.4092  0.0130
  771loPI   C5A11663   2.788   1.180   6.714 -0.0189  0.2262  0.0346
  771loPI   C6A11664   2.581   1.412   6.269  0.1150 -0.2943  0.0413
  771loPI   C1B11665   3.981   0.129   5.877 -0.2904  0.0079 -0.1120
  771loPI   C2B11666   3.567  -0.003   6.101  0.2325  0.0743 -0.0104
  771loPI   C3B11667   3.495   0.021   6.578  0.2051 -0.2590  0.0591
  771loPI   C4B11668   3.533   0.314   6.858 -0.3103  0.0972 -0.0897
  772loPI    C111669   8.977   5.926   5.097 -0.0990  0.0327  0.1593
  772loPI    C211670   9.319   5.744   5.000  0.0071  0.1649  0.2820
  772loPI    C311671   9.075   5.876   4.713 -0.1387 -0.2905  0.1883
  772loPI   PO411672   8.855   5.746   5.241  0.0708  0.0509 -0.1677
  772loPI   GL111673   8.991   5.828   5.610 -0.0321  0.1094  0.0072
  772loPI   GL211674   9.030   5.557   5.812 -0.2366 -0.0459 -0.0785
  772loPI   C1A11675   9.012   6.078   6.040  0.4240 -0.1741 -0.1543
  772loPI   C2A11676   9.156   6.341   6.352 -0.1988 -0.2150 -0.2482
  772loPI   C3A11677   9.426   6.327   6.692  0.0711 -0.2298  0.0614
  772loPI   C4A11678   9.563   6.198   7.089 -0.0937  0.0571  0.3659
  772loPI   C5A11679   9.515   6.237   7.487 -0.1632  0.2653 -0.3636
  772loPI   C6A11680   9.471   6.126   7.936  0.0302 -0.0375  0.0841
  772loPI   C1B11681   8.799   5.202   5.893 -0.3368  0.2492  0.1214
  772loPI   C2B11682   8.697   5.077   6.326 -0.1257  0.1671 -0.0826
  772loPI   C3B11683   8.541   5.048   6.747  0.0503  0.3057  0.0088
  772loPI   C4B11684   8.252   5.101   7.132  0.1871 -0.0631  0.4890
  773loPI    C111685   8.471   5.972   4.986  0.0424  0.2592  0.0248
  773loPI    C211686   8.137   5.854   4.800  0.1227 -0.0531  0.0719
  773loPI    C311687   8.481   5.876   4.598  0.1419 -0.0632  0.1034
  773loPI   PO411688   8.322   6.055   5.249 -0.2394  0.4319  0.0162
  773loPI   GL111689   8.274   6.022   5.671 -0.2744  0.0804  0.2677
  773loPI   GL211690   8.068   5.802   5.764  0.0791 -0.0360  0.0908
  773loPI   C1A11691   8.619   5.794   5.932  0.1129 -0.0786 -0.0234
  773loPI   C2A11692   8.813   5.570   6.256 -0.0781  0.1588  0.3290
  773loPI   C3A11693   8.931   5.441   6.598 -0.0724  0.0081  0.0519
  773loPI   C4A11694   8.968   5.244   6.872  0.1967 -0.0126 -0.0524
  773loPI   C5A11695   9.261   5.236   7.285  0.1670 -0.0147  0.1140
  773loPI   C6A11696   9.256   5.041   7.713  0.0076 -0.0946  0.1768
  773loPI   C1B11697   8.172   5.923   6.135  0.0670 -0.3061 -0.0746
  773loPI   C2B11698   8.158   5.976   6.552  0.2196 -0.3008  0.1700
  773loPI   C3B11699   8.122   6.009   6.998  0.0397 -0.1961  0.0739
  773loPI   C4B11700   7.790   6.077   7.301 -0.0379 -0.0683 -0.0294
  774loPI    C111701  14.743  10.869   4.928 -0.2950 -0.0640 -0.1113
  774loPI    C211702  14.994  10.863   4.616  0.1237 -0.1050  0.2170
  774loPI    C311703  14.779  11.191   4.694  0.0871 -0.0617 -0.0563
  774loPI   PO411704  14.878  10.776   5.089  0.0350 -0.1345 -0.0667
  774loPI   GL111705  14.865  10.718   5.557  0.0684 -0.2139 -0.0781
  774loPI   GL211706  15.119  10.724   5.778  0.2388 -0.2691 -0.2205
  774loPI   C1A11707  14.682  10.758   6.052 -0.1348 -0.2884  0.0275
  774loPI   C2A11708  14.486  10.850   6.406  0.2198  0.0602 -0.1297
  774loPI   C3A11709  14.382  10.838   6.756  0.3214 -0.3202  0.1834
  774loPI   C4A11710  14.362  10.884   7.171 -0.0481 -0.1361  0.0248
  774loPI   C5A11711  14.156  10.937   7.602 -0.0560  0.0130  0.0400
  774loPI   C6A11712  14.002  11.227   7.884  0.2358 -0.4736 -0.2960
  774loPI   C1B11713  15.336  10.702   6.176 -0.2915 -0.2136  0.1929
  774loPI   C2B11714  15.428  10.742   6.584  0.1865  0.0234  0.1433
  774loPI   C3B11715  15.582  10.712   6.956  0.0249 -0.1598 -0.0216
  774loPI   C4B11716  15.867  10.628   7.332 -0.3086 -0.1951 -0.1574
  775loPI    C111717  13.088   3.276   5.289 -0.1370 -0.1664  0.0111
  775loPI    C211718  13.485   3.310   5.332 -0.1785  0.1790  0.1626
  775loPI    C311719  13.329   2.983   5.161  0.1705  0.0487  0.0837
  775loPI   PO411720  12.964   3.327   5.521  0.0463  0.2038 -0.2444
  775loPI   GL111721  12.782   3.265   5.751 -0.0502  0.1828  0.0527
  775loPI   GL211722  12.795   3.598   5.907  0.1206  0.2477 -0.1359
  775loPI   C1A11723  12.475   3.294   6.104  0.1987 -0.0247 -0.3179
  775loPI   C2A11724  12.567   2.995   6.477  0.0403  0.0949 -0.2114
  775loPI   C3A11725  12.521   2.900   6.938 -0.0870  0.3660  0.1117
  775loPI   C4A11726  12.426   2.834   7.381 -0.1851 -0.0685  0.0807
  775loPI   C5A11727  12.481   2.855   7.853 -0.0844  0.2008 -0.1024
  775loPI   C6A11728  12.325   2.994   8.200  0.0513  0.1427  0.0150
  775loPI   C1B11729  12.692   3.608   6.406  0.0446 -0.1479 -0.0082
  775loPI   C2B11730  12.610   3.373   6.813  0.5014  0.2837 -0.0171
  775loPI   C3B11731  12.657   3.332   7.204 -0.0812 -0.0158  0.1603
  775loPI   C4B11732  12.847   3.161   7.558  0.0266  0.3091  0.1859
  776loPI    C111733   0.942  17.410   5.059 -0.0018 -0.0403  0.1450
  776loPI    C211734   0.575  17.265   4.992  0.0637 -0.1781  0.0803
  776loPI    C311735   0.863  17.213   4.720  0.0944  0.0561  0.0660
  776loPI   PO411736   0.953  17.420   5.274 -0.0179  0.0842 -0.2464
  776loPI   GL111737   1.228  17.314   5.560  0.1307 -0.3048  0.1226
  776loPI   GL211738   0.944  17.573   5.744  0.2924 -0.2920  0.0065
  776loPI   C1A11739   1.113  17.141   5.911  0.2835 -0.0138 -0.2754
  776loPI   C2A11740   1.065  16.994   6.290 -0.0689 -0.2140  0.1781
  776loPI   C3A11741   0.937  16.883   6.694  0.1244  0.2114  0.1298
  776loPI   C4A11742   1.112  17.137   7.075  0.3114 -0.1213 -0.0527
  776loPI   C5A11743   1.292  17.144   7.481 -0.1487 -0.0330 -0.2262
  776loPI   C6A11744   1.193  17.043   7.899 -0.0202 -0.2349  0.0363
  776loPI   C1B11745   0.962  17.471   6.231  0.1059 -0.1659  0.1554
  776loPI   C2B11746   0.876  17.429   6.705 -0.2228 -0.0005  0.0155
  776loPI   C3B11747   0.554  17.382   7.094  0.2841  0.2837  0.0546
  776loPI   C4B11748   0.265  17.071   7.306  0.1565  0.1759  0.0089
  777loPI    C111749   2.717   2.053   4.983  0.0353  0.1068  0.0937
  777loPI    C211750   2.908   1.713   4.898  0.0671  0.1111  0.1474
  777loPI    C311751   2.542   1.778   4.752  0.0169  0.0066  0.2257
  777loPI   PO411752   2.745   2.156   5.262  0.2530  0.1390  0.1993
  777loPI   GL111753   3.041   2.267   5.485  0.2148 -0.2719  0.2803
  777loPI   GL211754   3.185   2.501   5.807 -0.0689 -0.1054  0.3451
  777loPI   C1A11755   3.140   2.042   5.851 -0.2024  0.0499 -0.0502
  777loPI   C2A11756   2.986   1.859   6.230  0.1273  0.0008 -0.1306
  777loPI   C3A11757   2.881   1.669   6.627  0.1653 -0.0215  0.0852
  777loPI   C4A11758   2.944   1.624   7.010 -0.3542  0.1833  0.0676
  777loPI   C5A11759   2.758   1.288   7.254  0.1484  0.0908  0.3352
  777loPI   C6A11760   2.521   0.931   7.196 -0.0916  0.1209 -0.1326
  777loPI   C1B11761   3.388   2.728   6.120 -0.2195  0.0851  0.1116
  777loPI   C2B11762   3.306   3.031   6.426 -0.0232 -0.0462 -0.0165
  777loPI   C3B11763   3.044   3.262   6.740 -0.1329 -0.0788  0.2778
  777loPI   C4B11764   2.806   3.540   7.011 -0.2700  0.0318  0.2714
  778loPI    C111765  15.183   7.884   4.934 -0.1603 -0.2499  0.2153
  778loPI    C211766  15.524   8.093   4.921 -0.2138 -0.1757 -0.0671
  778loPI    C311767  15.515   7.715   4.788 -0.2236 -0.2045  0.0148
  778loPI   PO411768  15.111   7.869   5.207  0.0919 -0.0499  0.3938
  778loPI   GL111769  15.296   7.778   5.609  0.3265  0.2421  0.2520
  778loPI   GL211770  14.875   7.665   5.682  0.0198  0.2746 -0.1394
  778loPI   C1A11771  15.141   7.777   6.131 -0.2549 -0.1033 -0.1185
  778loPI   C2A11772  15.182   7.715   6.550 -0.1529  0.0535  0.1178
  778loPI   C3A11773  15.316   7.855   6.891  0.1855 -0.0163 -0.1234
  778loPI   C4A11774  15.196   7.963   7.365  0.0327 -0.0241 -0.1295
  778loPI   C5A11775  15.053   8.023   7.759 -0.1295  0.0814  0.0502
  778loPI   C6A11776  14.595   7.966   7.795  0.0836 -0.2345 -0.1227
  778loPI   C1B11777  14.777   7.409   6.067 -0.1620  0.0556  0.0092
  778loPI   C2B11778  14.447   7.186   6.352 -0.3853 -0.2358 -0.4405
  778loPI   C3B11779  14.535   7.181   6.763  0.2828 -0.0281 -0.3198
  778loPI   C4B11780  14.660   7.060   7.243 -0.1198  0.0816  0.2626
  779loPI    C111781   3.908  18.557   5.007 -0.2864  0.1811  0.1067
  779loPI    C211782   4.286  18.659   5.089 -0.1895  0.0531 -0.1680
  779loPI    C311783   4.091  18.838   4.790 -0.2939  0.0082 -0.1274
  779loPI   PO411784   3.909  18.330   5.060  0.2374  0.2474  0.3290
  779loPI   GL111785   3.704  18.175   5.408  0.0296  0.0737 -0.3116
  779loPI   GL211786   3.476  18.105   5.348  0.2140  0.0838  0.2184
  779loPI   C1A11787   3.941  18.176   5.889  0.1458 -0.0485 -0.0085
  779loPI   C2A11788   4.101  18.251   6.365  0.0939 -0.3019 -0.1703
  779loPI   C3A11789   4.066  18.303   6.788 -0.1756  0.2501 -0.0554
  779loPI   C4A11790   3.951  18.667   7.001  0.4129  0.2344  0.2762
  779loPI   C5A11791   4.093  19.040   7.141 -0.1382 -0.1488 -0.0513
  779loPI   C6A11792   4.573  19.142   7.261 -0.2060 -0.1125 -0.0641
  779loPI   C1B11793   3.359  18.176   5.799 -0.0644  0.1977  0.3707
  779loPI   C2B11794   3.417  18.109   6.242 -0.1831 -0.0417 -0.0865
  779loPI   C3B11795   3.298  18.146   6.698  0.0986 -0.3780 -0.0333
  779loPI   C4B11796   3.521  18.426   7.027 -0.1253  0.3865 -0.1883
  780loPI    C111797   7.610   4.207   5.184  0.1409 -0.0609 -0.0035
  780loPI    C211798   7.645   4.056   4.815  0.0000 -0.1551  0.0209
  780loPI    C311799   7.370   4.336   4.891 -0.0879 -0.2601  0.0925
  780loPI   PO411800   7.605   4.021   5.368 -0.1876  0.0718 -0.1176
  780loPI   GL111801   7.476   4.116   5.700 -0.4166  0.2447  0.0864
  780loPI   GL211802   7.853   4.214   5.783 -0.1997  0.1737  0.2093
  780loPI   C1A11803   7.460   4.498   5.984  0.0338 -0.2878 -0.1132
  780loPI   C2A11804   7.230   4.405   6.380 -0.1924  0.0028  0.2286
  780loPI   C3A11805   7.099   4.411   6.747 -0.1517  0.0230 -0.0215
  780loPI   C4A11806   6.852   4.695   7.095  0.1276  0.4440  0.0549
  780loPI   C5A11807   6.576   4.814   7.425 -0.2641  0.0639 -0.1681
  780loPI   C6A11808   6.224   4.786   7.518 -0.0934 -0.1067  0.0815
  780loPI   C1B11809   7.758   4.134   6.229 -0.0607  0.0552  0.3644
  780loPI   C2B11810   7.738   4.275   6.562  0.1433 -0.2680 -0.2376
  780loPI   C3B11811   7.545   4.349   6.988  0.1212 -0.0012 -0.1074
  780loPI   C4B11812   7.149   4.303   7.265  0.0522 -0.2351  0.1802
  781loPI    C111813  11.013   7.761   5.421 -0.1692 -0.0796 -0.0390
  781loPI    C211814  11.021   7.481   5.137  0.2555 -0.0401 -0.0712
  781loPI    C311815  11.015   7.868   5.036  0.0102 -0.0307 -0.0254
  781loPI   PO411816  10.866   7.586   5.593  0.2780 -0.0845  0.3151
  781loPI   GL111817  10.924   7.545   5.976  0.3307  0.0447 -0.1243
  781loPI   GL211818  11.251   7.749   5.883 -0.2340  0.2185  0.0421
  781loPI   C1A11819  10.991   7.591   6.440 -0.0242  0.0052 -0.0038
  781loPI   C2A11820  10.925   7.566   6.914 -0.1438 -0.4761  0.1857
  781loPI   C3A11821  10.906   7.697   7.327  0.1437  0.1288 -0.1211
  781loPI   C4A11822  10.695   7.587   7.639  0.0567  0.1098  0.3728
  781loPI   C5A11823  10.631   7.587   7.993 -0.2544  0.0783 -0.0185
  781loPI   C6A11824  10.314   7.610   8.310 -0.1412 -0.1154  0.0117
  781loPI   C1B11825  11.354   7.848   6.268 -0.3043 -0.0095  0.2338
  781loPI   C2B11826  11.455   7.695   6.696  0.0262  0.1891  0.0702
  781loPI   C3B11827  11.428   7.740   7.244  0.0815  0.0001  0.2473
  781loPI   C4B11828  11.530   7.667   7.613 -0.0115 -0.2490  0.0445
  782loPI    C111829   1.156   3.042   4.820  0.0154  0.3190  0.0567
  782loPI    C211830   1.054   2.940   4.447  0.0170 -0.1346  0.1737
  782loPI    C311831   0.815   3.178   4.662  0.0050  0.1103 -0.1044
  782loPI   PO411832   1.160   2.803   4.960 -0.1953  0.1436 -0.0978
  782loPI   GL111833   1.102   2.638   5.355  0.0401 -0.2966  0.2729
  782loPI   GL211834   1.451   2.671   5.321  0.0936 -0.0688  0.0181
  782loPI   C1A11835   0.925   2.460   5.721 -0.0030 -0.1178 -0.1341
  782loPI   C2A11836   0.773   2.421   6.028  0.2721 -0.1386 -0.0947
  782loPI   C3A11837   0.928   2.343   6.489 -0.0766  0.1243  0.2969
  782loPI   C4A11838   1.035   2.050   6.904  0.0430  0.2025 -0.1061
  782loPI   C5A11839   0.976   2.119   7.317 -0.0234 -0.4131 -0.1214
  782loPI   C6A11840   0.841   2.314   7.679  0.0325 -0.0928  0.2137
  782loPI   C1B11841   1.636   2.470   5.686 -0.0338 -0.1283 -0.0248
  782loPI   C2B11842   1.700   1.997   5.826 -0.2201 -0.2147 -0.1221
  782loPI   C3B11843   1.646   1.851   6.134 -0.1245 -0.0761 -0.0491
  782loPI   C4B11844   1.386   1.996   6.464  0.0551 -0.0207 -0.1108
  783loPI    C111845  16.282   4.104   5.337 -0.1987 -0.3599  0.1082
  783loPI    C211846  16.213   4.118   4.944 -0.2262 -0.1424  0.1191
  783loPI    C311847  16.020   4.368   5.189  0.0237 -0.0612  0.2360
  783loPI   PO411848  16.264   3.904   5.397  0.0800 -0.2357 -0.0862
  783loPI   GL111849  16.273   3.691   5.774 -0.2150  0.1891 -0.1495
  783loPI   GL211850  15.972   3.743   5.743 -0.2072 -0.1180  0.0355
  783loPI   C1A11851  16.544   3.666   6.207 -0.4051  0.2264  0.1508
  783loPI   C2A11852  16.480   3.733   6.667  0.1452 -0.0174  0.1579
  783loPI   C3A11853  16.575   3.870   7.135  0.0962 -0.0408  0.2091
  783loPI   C4A11854  16.623   4.251   7.448 -0.1673  0.0193  0.1274
  783loPI   C5A11855  16.501   4.325   7.874 -0.2977  0.2929  0.2892
  783loPI   C6A11856  16.432   4.325   8.352 -0.0083  0.0167  0.2785
  783loPI   C1B11857  16.020   3.662   6.246 -0.2109 -0.0296  0.0118
  783loPI   C2B11858  15.677   3.691   6.572 -0.1774 -0.3012  0.1461
  783loPI   C3B11859  15.671   3.924   7.002  0.2285 -0.3020  0.2945
  783loPI   C4B11860  15.604   3.908   7.412 -0.1340 -0.1248  0.2683
  784loPI    C111861   9.324   0.370   5.247 -0.2566 -0.2026  0.0768
  784loPI    C211862   9.011   0.372   4.997 -0.0870  0.1191 -0.1399
  784loPI    C311863   9.220   0.036   5.052 -0.4077 -0.0729 -0.0686
  784loPI   PO411864   9.217   0.390   5.486  0.0656  0.2282  0.2801
  784loPI   GL111865   8.885   0.673   5.768  0.0635  0.2619 -0.0434
  784loPI   GL211866   9.125   0.560   6.018  0.0648  0.0532 -0.1490
  784loPI   C1A11867   8.532   0.657   6.045 -0.0848 -0.0940 -0.4149
  784loPI   C2A11868   8.452   0.626   6.438  0.1750  0.4223 -0.1567
  784loPI   C3A11869   8.349   0.450   6.810 -0.2849  0.1111 -0.0170
  784loPI   C4A11870   8.380   0.570   7.263  0.1306 -0.0252 -0.2048
  784loPI   C5A11871   8.044   0.335   7.524  0.0702  0.2541 -0.2830
  784loPI   C6A11872   7.778  -0.039   7.490 -0.3438 -0.0506 -0.1976
  784loPI   C1B11873   8.918   0.418   6.354 -0.0321  0.2653 -0.0161
  784loPI   C2B11874   8.866   0.398   6.860  0.0622 -0.0149 -0.1018
  784loPI   C3B11875   8.840   0.282   7.286 -0.0763 -0.1178  0.4017
  784loPI   C4B11876   8.437   0.100   7.497  0.0641  0.2194 -0.2542
  785loPI    C111877  12.214  11.479   5.250  0.2056 -0.0031 -0.0531
  785loPI    C211878  12.214  11.430   4.852  0.0114  0.0090 -0.0554
  785loPI    C311879  12.557  11.504   5.045  0.0862  0.1454 -0.2379
  785loPI   PO411880  12.054  11.261   5.309 -0.0717  0.0533 -0.3629
  785loPI   GL111881  12.130  11.157   5.729 -0.0275 -0.1830 -0.1424
  785loPI   GL211882  12.190  10.920   5.927 -0.0166  0.0830  0.2968
  785loPI   C1A11883  12.141  11.407   6.099  0.1702 -0.0234  0.1148
  785loPI   C2A11884  12.274  11.680   6.501 -0.1169  0.0948 -0.1171
  785loPI   C3A11885  12.085  11.729   6.890 -0.0854 -0.2725 -0.0179
  785loPI   C4A11886  11.939  11.678   7.339  0.2813  0.1255  0.0519
  785loPI   C5A11887  12.242  11.723   7.766  0.0323  0.0539 -0.1755
  785loPI   C6A11888  12.108  11.990   8.125  0.1064  0.0227 -0.0022
  785loPI   C1B11889  12.069  10.980   6.333 -0.1962 -0.2791  0.1470
  785loPI   C2B11890  11.952  10.876   6.779 -0.0592  0.0307  0.0627
  785loPI   C3B11891  11.853  10.825   7.197  0.0573 -0.2616  0.0905
  785loPI   C4B11892  11.739  10.823   7.724 -0.1331  0.2364 -0.3785
  786loPI    C111893  11.573  14.810   5.780 -0.0406  0.0957  0.0683
  786loPI    C211894  11.542  15.161   5.969 -0.1295  0.0719  0.0986
  786loPI    C311895  11.543  15.148   5.569  0.2434  0.1394  0.0937
  786loPI   PO411896  11.690  14.681   5.919 -0.3461  0.0746 -0.2043
  786loPI   GL111897  11.487  14.457   6.261 -0.1649 -0.0606 -0.0114
  786loPI   GL211898  11.278  14.168   6.131  0.0626 -0.2047 -0.2783
  786loPI   C1A11899  11.431  14.477   6.679  0.0368 -0.1581  0.0506
  786loPI   C2A11900  11.542  14.499   7.073  0.1141 -0.1877  0.0066
  786loPI   C3A11901  11.533  14.300   7.418 -0.0441 -0.0615  0.3418
  786loPI   C4A11902  11.452  13.895   7.656  0.1151  0.0696  0.0766
  786loPI   C5A11903  11.206  13.863   7.953 -0.0123 -0.0923  0.0171
  786loPI   C6A11904  10.767  13.747   8.279  0.0754 -0.0066 -0.0494
  786loPI   C1B11905  11.101  14.097   6.614  0.3117  0.0247  0.0979
  786loPI   C2B11906  11.149  14.147   6.998  0.3458  0.0528  0.0537
  786loPI   C3B11907  11.059  14.018   7.429  0.3793 -0.0723  0.0207
  786loPI   C4B11908  10.737  13.828   7.700  0.1960  0.1409  0.0920
  787loPI    C111909   4.628  16.151   4.704 -0.0437  0.1147 -0.0782
  787loPI    C211910   4.953  15.963   4.565 -0.2513 -0.2357 -0.1036
  787loPI    C311911   4.637  16.020   4.326 -0.2754 -0.0499 -0.0295
  787loPI   PO411912   4.729  16.253   4.971  0.0712 -0.3317  0.0367
  787loPI   GL111913   4.893  16.400   5.335 -0.3719 -0.2524 -0.3382
  787loPI   GL211914   5.021  16.139   5.373 -0.0375 -0.1623 -0.2600
  787loPI   C1A11915   5.028  16.598   5.737 -0.0860  0.0863  0.2401
  787loPI   C2A11916   4.895  16.451   6.189 -0.2772  0.1414  0.2126
  787loPI   C3A11917   4.709  16.639   6.461  0.0008  0.0975 -0.0659
  787loPI   C4A11918   4.772  16.593   6.884 -0.0796 -0.0101 -0.1410
  787loPI   C5A11919   4.796  16.539   7.280  0.0781 -0.0599 -0.2024
  787loPI   C6A11920   5.002  16.286   7.487 -0.2638 -0.0843 -0.2785
  787loPI   C1B11921   5.083  16.085   5.777 -0.2499 -0.3328  0.1431
  787loPI   C2B11922   5.235  16.064   6.109  0.1210 -0.0887 -0.3298
  787loPI   C3B11923   5.224  16.231   6.557  0.0950  0.0975 -0.0094
  787loPI   C4B11924   5.003  16.161   6.994  0.5247 -0.1496  0.0393
  788loPI    C111925   4.617  12.020   4.758  0.0160  0.0351  0.0446
  788loPI    C211926   4.428  11.821   5.049  0.1030  0.1523  0.1826
  788loPI    C311927   4.310  11.779   4.669 -0.1358  0.1474  0.2558
  788loPI   PO411928   4.586  12.229   4.852  0.1375  0.4372 -0.1892
  788loPI   GL111929   4.695  12.424   5.203 -0.0519 -0.2008  0.1784
  788loPI   GL211930   4.774  12.070   5.339 -0.0491 -0.0678  0.0904
  788loPI   C1A11931   4.480  12.363   5.533  0.1466  0.1294 -0.1451
  788loPI   C2A11932   4.259  12.194   5.863 -0.1497 -0.1530  0.3550
  788loPI   C3A11933   4.264  12.243   6.295 -0.0621  0.0543  0.2110
  788loPI   C4A11934   4.385  12.329   6.659 -0.0030  0.1504 -0.0343
  788loPI   C5A11935   4.364  12.408   7.056 -0.4427  0.0025 -0.0823
  788loPI   C6A11936   4.257  12.166   7.522  0.4432  0.1480 -0.1060
  788loPI   C1B11937   4.623  11.789   5.736  0.1066  0.1789 -0.1178
  788loPI   C2B11938   4.677  11.805   6.166 -0.0388 -0.1224 -0.1397
  788loPI   C3B11939   4.610  11.858   6.521 -0.1899 -0.0112 -0.0709
  788loPI   C4B11940   4.729  11.997   6.916  0.0655 -0.2062  0.1248
  789loPI    C111941   6.424   1.186   4.954  0.0681  0.1178 -0.0866
  789loPI    C211942   6.398   0.823   5.118 -0.0350  0.2340  0.1602
  789loPI    C311943   6.331   0.871   4.726 -0.0135 -0.0126  0.1245
  789loPI   PO411944   6.381   1.321   5.247  0.0593 -0.2902  0.1778
  789loPI   GL111945   6.184   1.184   5.588  0.0421  0.0387  0.1744
  789loPI   GL211946   6.248   0.959   5.584  0.0753 -0.1107  0.2182
  789loPI   C1A11947   6.110   1.441   5.885 -0.1093 -0.3201 -0.0294
  789loPI   C2A11948   5.994   1.396   6.343 -0.0927 -0.1297 -0.1478
  789loPI   C3A11949   6.028   1.393   6.723  0.1505 -0.1312 -0.1761
  789loPI   C4A11950   5.948   1.456   7.150  0.0420  0.0427 -0.0915
  789loPI   C5A11951   5.924   1.340   7.558 -0.0186  0.2103  0.2096
  789loPI   C6A11952   5.950   0.807   7.701  0.1484  0.0538 -0.1033
  789loPI   C1B11953   6.166   0.919   6.035  0.1260 -0.2070 -0.1163
  789loPI   C2B11954   6.135   0.921   6.500  0.2230 -0.0067  0.1285
  789loPI   C3B11955   6.065   0.942   6.888 -0.1148  0.0470  0.0039
  789loPI   C4B11956   5.963   0.901   7.238  0.0417 -0.2142 -0.1217
  790loPI    C111957   7.604  15.345   5.411 -0.0883 -0.1735 -0.0547
  790loPI    C211958   7.875  15.601   5.265 -0.1097 -0.0960  0.0409
  790loPI    C311959   7.706  15.329   5.025 -0.2937  0.1624 -0.1266
  790loPI   PO411960   7.393  15.528   5.474  0.0013  0.0685 -0.0102
  790loPI   GL111961   7.153  15.617   5.871 -0.0029 -0.1428  0.0706
  790loPI   GL211962   6.948  15.823   5.900 -0.1030 -0.0284 -0.2617
  790loPI   C1A11963   6.998  15.480   6.262 -0.2571 -0.1482  0.1568
  790loPI   C2A11964   6.873  15.570   6.671  0.0607 -0.1528 -0.2133
  790loPI   C3A11965   6.862  15.417   7.119 -0.2351 -0.0797 -0.3108
  790loPI   C4A11966   6.971  15.330   7.483  0.0710  0.2967 -0.1019
  790loPI   C5A11967   6.938  14.938   7.689 -0.0279  0.1703  0.1007
  790loPI   C6A11968   7.081  14.545   7.778 -0.3414 -0.4112  0.2780
  790loPI   C1B11969   7.002  15.966   6.340  0.0627  0.1354 -0.2661
  790loPI   C2B11970   6.939  16.065   6.725 -0.1800  0.0790  0.0926
  790loPI   C3B11971   6.903  15.900   7.142  0.2205 -0.0453  0.1243
  790loPI   C4B11972   6.646  15.765   7.443  0.0833 -0.1554 -0.4284
  791loPI    C111973   5.199  18.243   4.815 -0.0237 -0.1338  0.2799
  791loPI    C211974   5.220  17.916   4.586  0.3323 -0.0758  0.2241
  791loPI    C311975   5.514  18.187   4.575 -0.0415  0.3385  0.1348
  791loPI   PO411976   5.155  18.164   5.105 -0.1198  0.1434 -0.2532
  791loPI   GL111977   5.279  17.871   5.453  0.3163 -0.0882  0.2703
  791loPI   GL211978   5.279  17.608   5.599 -0.0436 -0.2396  0.2577
  791loPI   C1A11979   5.101  17.925   5.927  0.0249 -0.0304  0.2841
  791loPI   C2A11980   4.990  18.087   6.233  0.0711 -0.0814  0.1085
  791loPI   C3A11981   4.976  18.003   6.578 -0.2355 -0.1486 -0.0335
  791loPI   C4A11982   4.899  18.041   7.054 -0.2880  0.0478  0.0312
  791loPI   C5A11983   4.582  17.922   7.359 -0.0762 -0.2060 -0.0052
  791loPI   C6A11984   4.391  18.080   7.735  0.1451 -0.0679 -0.0456
  791loPI   C1B11985   5.210  17.456   6.006  0.3091  0.2875 -0.0951
  791loPI   C2B11986   4.836  17.558   6.261 -0.1621 -0.0023 -0.1998
  791loPI   C3B11987   4.561  17.404   6.650  0.3915  0.0873  0.3231
  791loPI   C4B11988   4.648  17.102   7.020  0.2530  0.2044  0.2049
  792loPI    C111989  13.960   7.953   5.341 -0.0750  0.2030 -0.0056
  792loPI    C211990  14.180   7.764   5.066  0.0852  0.1258  0.1736
  792loPI    C311991  13.834   7.935   4.961  0.2093  0.2137 -0.1023
  792loPI   PO411992  14.064   8.196   5.417 -0.4133 -0.0558  0.0661
  792loPI   GL111993  14.095   8.433   5.704  0.0231  0.0924  0.1060
  792loPI   GL211994  14.467   8.382   5.897  0.1340 -0.4587  0.1523
  792loPI   C1A11995  13.906   8.544   6.054 -0.1770  0.0208  0.1123
  792loPI   C2A11996  14.064   8.588   6.470 -0.2845 -0.3344 -0.0191
  792loPI   C3A11997  14.087   8.576   6.892  0.0093 -0.2246 -0.0110
  792loPI   C4A11998  14.027   8.576   7.334  0.1152 -0.2168  0.2513
  792loPI   C5A11999  13.992   8.964   7.611 -0.0836 -0.2381  0.0980
  792loPI   C6A12000  14.099   9.366   7.783  0.1442  0.1779 -0.1195
  792loPI   C1B12001  14.562   8.615   6.308  0.0123  0.0855 -0.0016
  792loPI   C2B12002  14.604   8.563   6.799  0.0577 -0.1095 -0.0767
  792loPI   C3B12003  14.481   8.442   7.223 -0.0541  0.1820 -0.1002
  792loPI   C4B12004  14.477   8.551   7.680  0.0273  0.0319 -0.0211
  793loPI    C112005  15.841   3.899   5.056  0.0045 -0.2371 -0.0336
  793loPI    C212006  15.509   3.827   4.845  0.0138  0.2037 -0.2083
  793loPI    C312007  15.867   3.801   4.670  0.0604 -0.0351 -0.0820
  793loPI   PO412008  15.684   3.928   5.319  0.0910  0.0361  0.1674
  793loPI   GL112009  15.767   4.251   5.665  0.1610  0.3655 -0.1729
  793loPI   GL212010  15.476   3.947   5.746 -0.1067 -0.1503 -0.2431
  793loPI   C1A12011  15.728   4.054   6.173 -0.0547  0.1249 -0.0266
  793loPI   C2A12012  15.611   4.164   6.591  0.2671 -0.1431 -0.0097
  793loPI   C3A12013  15.312   4.343   6.900 -0.0707  0.1681  0.3907
  793loPI   C4A12014  15.214   4.761   6.896  0.1317 -0.2666 -0.1033
  793loPI   C5A12015  15.236   4.867   7.289 -0.0176  0.0189  0.0878
  793loPI   C6A12016  14.985   4.795   7.717  0.4810 -0.0280  0.0926
  793loPI   C1B12017  15.281   4.210   5.902 -0.0228 -0.0166 -0.0555
  793loPI   C2B12018  15.158   4.255   6.382 -0.3277  0.0507 -0.1963
  793loPI   C3B12019  14.894   4.544   6.617 -0.0733 -0.2054 -0.3338
  793loPI   C4B12020  14.768   4.563   7.030  0.1076 -0.0150 -0.1231
  794loPI    C112021   7.405   2.318   4.829 -0.0289  0.2262 -0.0585
  794loPI    C212022   7.337   2.077   4.516 -0.1328 -0.1458  0.2431
  794loPI    C312023   7.597   2.379   4.483 -0.0414 -0.2623 -0.1598
  794loPI   PO412024   7.184   2.354   4.940 -0.0408 -0.1349  0.0900
  794loPI   GL112025   7.087   2.118   5.395 -0.1358  0.1558 -0.1553
  794loPI   GL212026   6.825   2.132   5.527 -0.1454 -0.1330 -0.1716
  794loPI   C1A12027   7.261   2.347   5.853  0.2227  0.1791  0.0649
  794loPI   C2A12028   7.170   2.361   6.217  0.0600  0.0491  0.2225
  794loPI   C3A12029   7.134   2.408   6.707 -0.0395 -0.0457 -0.2836
  794loPI   C4A12030   7.117   2.486   7.122  0.0579 -0.3985  0.0737
  794loPI   C5A12031   7.076   2.343   7.588  0.1632  0.2297 -0.1413
  794loPI   C6A12032   6.794   2.399   7.884  0.0451  0.0742 -0.1659
  794loPI   C1B12033   6.829   2.058   5.987 -0.0012  0.0288 -0.1908
  794loPI   C2B12034   6.817   2.073   6.404  0.3619  0.0826 -0.0262
  794loPI   C3B12035   6.781   2.111   6.828 -0.1305 -0.2097  0.1238
  794loPI   C4B12036   6.793   2.165   7.262  0.1451 -0.0598  0.1086
  795loPI    C112037  18.137  18.215   5.310 -0.2218 -0.0873  0.0824
  795loPI    C212038  18.138  18.552   5.094 -0.2349 -0.0459  0.1468
  795loPI    C312039  18.349  18.235   4.971 -0.1375  0.0206  0.1406
  795loPI   PO412040  17.841  18.206   5.372 -0.1609  0.2934  0.3051
  795loPI   GL112041  17.457  18.329   5.528  0.3377 -0.0844 -0.1549
  795loPI   GL212042  17.486  17.950   5.709 -0.1540  0.0901 -0.2468
  795loPI   C1A12043  17.142  18.349   5.826 -0.1127  0.1071  0.2291
  795loPI   C2A12044  17.246  18.539   6.176 -0.1215 -0.1333  0.5220
  795loPI   C3A12045  17.199  18.807   6.477 -0.2420  0.3370  0.1459
  795loPI   C4A12046  17.267  18.882   6.859 -0.1646 -0.1785 -0.0275
  795loPI   C5A12047  17.339  18.807   7.316  0.0050  0.0007  0.2249
  795loPI   C6A12048  17.536  18.964   7.648 -0.0458  0.1556  0.3416
  795loPI   C1B12049  17.559  18.105   6.211  0.0038  0.1340  0.2667
  795loPI   C2B12050  17.524  18.008   6.623 -0.2370  0.2472  0.3090
  795loPI   C3B12051  17.739  17.675   6.866 -0.0178 -0.0670 -0.0685
  795loPI   C4B12052  17.862  17.381   7.232 -0.2217 -0.2552  0.0394
  796loPI    C112053  10.433   6.230   5.083  0.1996 -0.2785 -0.1920
  796loPI    C212054  10.187   6.026   4.842 -0.0970  0.1093 -0.2260
  796loPI    C312055  10.388   6.342   4.701  0.0626  0.0760 -0.0758
  796loPI   PO412056  10.588   5.994   5.198 -0.2670  0.4496 -0.3577
  796loPI   GL112057  10.617   5.901   5.656  0.1472  0.3237 -0.1631
  796loPI   GL212058  10.958   5.926   5.809  0.1055  0.0868 -0.0760
  796loPI   C1A12059  10.411   6.014   6.008 -0.1039  0.3709 -0.2806
  796loPI   C2A12060  10.407   5.913   6.342 -0.3381 -0.0514 -0.1612
  796loPI   C3A12061  10.118   5.929   6.662 -0.1990 -0.1283 -0.2395
  796loPI   C4A12062   9.676   5.821   6.746 -0.1243 -0.1438 -0.1475
  796loPI   C5A12063   9.519   5.718   7.128 -0.0200 -0.1302 -0.3631
  796loPI   C6A12064   9.395   5.666   7.602  0.0373  0.3210 -0.2253
  796loPI   C1B12065  10.930   5.770   6.139  0.0397  0.0851 -0.0001
  796loPI   C2B12066  10.768   5.714   6.563  0.0741 -0.1802  0.1577
  796loPI   C3B12067  10.485   5.659   6.945 -0.1310  0.0079  0.0614
  796loPI   C4B12068  10.362   5.370   7.377 -0.0757  0.0067 -0.0588
  797loPI    C112069  16.249   6.447   5.133  0.0026 -0.1003 -0.0148
  797loPI    C212070  16.430   6.216   4.862 -0.0053 -0.1120 -0.0102
  797loPI    C312071  16.400   6.610   4.801 -0.0327 -0.1187 -0.0399
  797loPI   PO412072  16.401   6.390   5.366  0.3668  0.1432 -0.4160
  797loPI   GL112073  16.600   6.345   5.851  0.0670 -0.1668  0.1638
  797loPI   GL212074  16.623   6.582   6.044  0.4007 -0.0418  0.2233
  797loPI   C1A12075  16.506   5.913   6.135 -0.1575  0.2222  0.1293
  797loPI   C2A12076  16.439   5.789   6.556  0.0690  0.0644  0.1912
  797loPI   C3A12077  16.472   5.936   6.923  0.1272  0.2969  0.2995
  797loPI   C4A12078  16.363   6.072   7.283  0.1921 -0.0140 -0.2941
  797loPI   C5A12079  16.367   6.423   7.234 -0.0173  0.2737 -0.0123
  797loPI   C6A12080  16.156   6.561   6.823  0.2022 -0.1169  0.0807
  797loPI   C1B12081  16.467   6.358   6.471 -0.1491  0.0329 -0.0695
  797loPI   C2B12082  16.723   6.436   6.856 -0.0636 -0.2004  0.1217
  797loPI   C3B12083  16.833   6.191   7.260  0.2936  0.3988 -0.0014
  797loPI   C4B12084  16.882   5.825   7.359 -0.1040 -0.1641 -0.1194
  798loPI    C112085  11.239  15.485   5.743  0.0681 -0.0489 -0.1910
  798loPI    C212086  11.553  15.652   5.926  0.0365 -0.2748  0.0769
  798loPI    C312087  11.496  15.709   5.534  0.0811  0.2532  0.1402
  798loPI   PO412088  11.087  15.405   5.945 -0.0821 -0.3358 -0.0533
  798loPI   GL112089  11.148  15.371   6.355 -0.1459 -0.1570  0.0513
  798loPI   GL212090  11.254  15.706   6.282 -0.1854  0.2291 -0.0948
  798loPI   C1A12091  11.236  15.447   6.820  0.0727  0.1322  0.0268
  798loPI   C2A12092  11.147  15.485   7.300 -0.0117 -0.2855 -0.0823
  798loPI   C3A12093  11.062  15.523   7.708  0.0622 -0.1620 -0.0672
  798loPI   C4A12094  10.905  15.744   8.061  0.0302 -0.0366  0.2726
  798loPI   C5A12095  10.636  15.667   8.327  0.1281  0.1294 -0.0152
  798loPI   C6A12096  10.419  15.228   8.365  0.0592 -0.1167  0.1517
  798loPI   C1B12097  11.615  15.343   6.411  0.0768  0.0261 -0.1843
  798loPI   C2B12098  11.759  15.305   6.857  0.2056  0.0301  0.2851
  798loPI   C3B12099  11.831  15.343   7.315  0.2643  0.0626 -0.0821
  798loPI   C4B12100  11.559  15.427   7.532  0.2175 -0.0255  0.0319
  799loPI    C112101  13.395  14.917   5.578 -0.1615  0.0897  0.1705
  799loPI    C212102  13.580  15.162   5.322 -0.0871 -0.1549 -0.0134
  799loPI    C312103  13.259  14.954   5.204 -0.2783  0.0110  0.2046
  799loPI   PO412104  13.521  15.002   5.796  0.3822  0.0455 -0.0798
  799loPI   GL112105  13.598  15.210   6.131 -0.0317 -0.0746  0.0202
  799loPI   GL212106  13.484  15.420   6.330 -0.1261  0.2576  0.2658
  799loPI   C1A12107  13.827  15.015   6.477  0.2195  0.1224  0.1283
  799loPI   C2A12108  13.873  15.099   6.810  0.0578 -0.2641  0.0816
  799loPI   C3A12109  13.750  15.108   7.166  0.0925 -0.0606  0.0086
  799loPI   C4A12110  13.589  14.934   7.541  0.3328  0.1681  0.0989
  799loPI   C5A12111  13.598  14.537   7.733 -0.0329 -0.4207  0.1372
  799loPI   C6A12112  13.435  14.192   7.991 -0.2251  0.2383  0.2304
  799loPI   C1B12113  13.425  15.357   6.816 -0.0114 -0.0187 -0.1281
  799loPI   C2B12114  13.275  15.360   7.219  0.1077  0.3142  0.3523
  799loPI   C3B12115  13.101  15.181   7.460 -0.2758  0.1495 -0.3411
  799loPI   C4B12116  12.822  15.173   7.851 -0.0381 -0.2041  0.1169
  800loPI    C112117   7.437  14.584   4.866  0.1196  0.0953 -0.2050
  800loPI    C212118   7.333  14.590   4.479  0.0595 -0.0098 -0.1908
  800loPI    C312119   7.089  14.425   4.750  0.0493  0.1652 -0.0917
  800loPI   PO412120   7.433  14.905   5.023  0.1201 -0.0880 -0.0461
  800loPI   GL112121   7.379  14.953   5.551 -0.1955  0.1850  0.3227
  800loPI   GL212122   6.976  15.113   5.551  0.0282  0.0578 -0.1287
  800loPI   C1A12123   7.565  15.033   6.009 -0.0866 -0.0359  0.0500
  800loPI   C2A12124   7.376  15.110   6.399  0.1248  0.2451  0.1141
  800loPI   C3A12125   7.233  15.174   6.762 -0.0611  0.3022  0.0791
  800loPI   C4A12126   7.166  15.002   7.126 -0.1022  0.1844 -0.1048
  800loPI   C5A12127   7.358  14.813   7.398  0.2753  0.2855 -0.0788
  800loPI   C6A12128   7.401  14.966   7.766 -0.3673  0.0657  0.0736
  800loPI   C1B12129   6.925  15.039   5.999  0.0633 -0.1968 -0.1234
  800loPI   C2B12130   6.772  15.049   6.385 -0.0572 -0.0541  0.0499
  800loPI   C3B12131   6.741  15.036   6.840 -0.3525  0.0718 -0.1516
  800loPI   C4B12132   6.689  14.968   7.261 -0.0489 -0.0912  0.1991
  801loPI    C112133   5.869   4.216   5.026  0.2665  0.1423  0.0085
  801loPI    C212134   5.509   4.063   4.945  0.2650  0.1362  0.0268
  801loPI    C312135   5.716   4.247   4.657  0.2204  0.1949  0.0320
  801loPI   PO412136   6.036   4.081   5.097 -0.1066  0.2810 -0.1396
  801loPI   GL112137   6.105   3.934   5.496  0.2628 -0.1487  0.0660
  801loPI   GL212138   6.371   4.066   5.557  0.0954 -0.1832 -0.2123
  801loPI   C1A12139   5.977   4.070   5.790  0.0334  0.2757 -0.1134
  801loPI   C2A12140   6.021   4.104   6.162  0.3051 -0.0855 -0.1231
  801loPI   C3A12141   6.039   4.258   6.530 -0.2133  0.0900  0.1965
  801loPI   C4A12142   6.044   4.477   6.900  0.0487  0.0207  0.1274
  801loPI   C5A12143   5.892   4.508   7.265 -0.0396  0.0949 -0.0865
  801loPI   C6A12144   5.985   4.336   7.572 -0.1696 -0.0417  0.1708
  801loPI   C1B12145   6.382   3.825   5.948 -0.2329  0.3482  0.1475
  801loPI   C2B12146   6.384   3.924   6.448  0.2885 -0.1183  0.1811
  801loPI   C3B12147   6.490   4.211   6.803 -0.0714 -0.1297  0.0560
  801loPI   C4B12148   6.586   4.299   7.227  0.1584 -0.1123  0.2944
  802loPI    C112149   5.458   0.828   4.994 -0.0670 -0.2119  0.0665
  802loPI    C212150   5.215   1.079   5.189  0.2689  0.0088  0.2105
  802loPI    C312151   5.434   1.211   4.881  0.2742 -0.1670  0.1374
  802loPI   PO412152   5.366   0.568   4.967 -0.3042 -0.1645  0.0430
  802loPI   GL112153   5.481   0.352   5.424 -0.1746 -0.1735 -0.0496
  802loPI   GL212154   5.488   0.700   5.489 -0.3897  0.0424  0.4432
  802loPI   C1A12155   5.481   0.191   5.856 -0.3429 -0.4267  0.1446
  802loPI   C2A12156   5.405   0.249   6.221  0.1030 -0.0737 -0.0497
  802loPI   C3A12157   5.251   0.252   6.662 -0.1229  0.2555 -0.1125
  802loPI   C4A12158   5.260   0.277   7.061  0.0840 -0.3469 -0.1620
  802loPI   C5A12159   5.064   0.325   7.392 -0.0205 -0.0608 -0.2949
  802loPI   C6A12160   4.996   0.697   7.601 -0.0026  0.0863  0.0568
  802loPI   C1B12161   5.424   0.685   5.936  0.1081  0.0832 -0.2721
  802loPI   C2B12162   5.266   0.727   6.324  0.0528 -0.2330 -0.2307
  802loPI   C3B12163   5.130   0.707   6.719 -0.0906  0.3265 -0.1247
  802loPI   C4B12164   5.078   0.837   7.112 -0.1849  0.0027 -0.0825
  803loPI    C112165   3.117   4.698   4.643 -0.1522 -0.1322  0.0160
  803loPI    C212166   3.143   4.475   4.311 -0.1162 -0.1050  0.0005
  803loPI    C312167   2.790   4.626   4.423 -0.1101 -0.0289 -0.0816
  803loPI   PO412168   3.346   4.543   4.830 -0.2353 -0.1027 -0.2570
  803loPI   GL112169   3.563   4.534   5.138  0.2002 -0.2397 -0.0598
  803loPI   GL212170   3.845   4.718   5.218 -0.0442  0.2355  0.2182
  803loPI   C1A12171   3.423   4.373   5.470 -0.2489  0.1428 -0.0471
  803loPI   C2A12172   3.343   4.195   5.913  0.0088  0.1843  0.0719
  803loPI   C3A12173   3.228   4.252   6.220  0.3346 -0.1712 -0.3450
  803loPI   C4A12174   3.189   4.416   6.567 -0.1492  0.2212  0.3464
  803loPI   C5A12175   3.258   4.286   6.940  0.2463 -0.0954 -0.1849
  803loPI   C6A12176   3.185   4.406   7.326 -0.2783 -0.0465 -0.1363
  803loPI   C1B12177   4.005   4.535   5.581  0.1668 -0.1073 -0.0768
  803loPI   C2B12178   3.778   4.412   5.958  0.1147 -0.0408 -0.0584
  803loPI   C3B12179   3.843   4.302   6.395  0.2309 -0.0798  0.2807
  803loPI   C4B12180   3.776   4.674   6.763  0.0587  0.0264 -0.2886
  804loPI    C112181  18.531  15.551   4.954 -0.0545 -0.0374 -0.0116
  804loPI    C212182  18.871  15.454   4.767  0.0565 -0.0074  0.1721
  804loPI    C312183  18.633  15.738   4.615  0.0375 -0.1324 -0.0367
  804loPI   PO412184  18.448  15.302   5.014 -0.0886 -0.3110  0.2532
  804loPI   GL112185  18.469  15.087   5.389 -0.0631 -0.2274 -0.3838
  804loPI   GL212186  18.383  15.395   5.472 -0.0729 -0.0962 -0.3209
  804loPI   C1A12187  18.392  14.995   5.857 -0.0847 -0.0263 -0.0376
  804loPI   C2A12188  18.372  14.899   6.282 -0.1627  0.5456 -0.0533
  804loPI   C3A12189  18.338  14.832   6.706  0.2083 -0.0324  0.1440
  804loPI   C4A12190  18.230  14.867   7.158 -0.1310 -0.0572  0.0095
  804loPI   C5A12191  18.128  14.794   7.562 -0.0071  0.1145 -0.3173
  804loPI   C6A12192  18.447  14.699   7.888  0.1381 -0.2027  0.2879
  804loPI   C1B12193  18.716  15.352   5.806  0.0175  0.0726 -0.1143
  804loPI   C2B12194  18.656  15.378   6.263 -0.0568  0.2040 -0.1650
  804loPI   C3B12195  18.639  15.310   6.713 -0.1902  0.1267 -0.0207
  804loPI   C4B12196  18.675  15.163   7.132 -0.4020 -0.1735 -0.0427
  805loPI    C112197   2.122   8.703   4.597  0.1359 -0.0041 -0.0526
  805loPI    C212198   1.908   8.984   4.408  0.1874  0.0188 -0.0772
  805loPI    C312199   1.896   8.604   4.282  0.2739  0.0459 -0.1684
  805loPI   PO412200   2.180   8.862   4.797  0.2837  0.1725 -0.0925
  805loPI   GL112201   2.147   8.955   5.276  0.1192  0.1149  0.1451
  805loPI   GL212202   2.163   9.227   5.343  0.0724 -0.0980 -0.0680
  805loPI   C1A12203   2.056   8.823   5.672 -0.1794 -0.0418 -0.1425
  805loPI   C2A12204   2.002   8.825   6.063 -0.3668  0.1523  0.1803
  805loPI   C3A12205   1.984   8.882   6.514 -0.1661 -0.4460  0.1969
  805loPI   C4A12206   1.971   8.740   6.901  0.1801 -0.3586  0.0212
  805loPI   C5A12207   1.838   8.642   7.322 -0.0105 -0.0893  0.3169
  805loPI   C6A12208   1.818   8.636   7.657  0.3139  0.2611 -0.2622
  805loPI   C1B12209   2.554   9.214   5.589  0.1916 -0.0854  0.0364
  805loPI   C2B12210   2.593   9.358   6.100 -0.0493 -0.0001  0.2353
  805loPI   C3B12211   2.625   9.374   6.501  0.1099 -0.0924  0.1053
  805loPI   C4B12212   2.761   9.297   6.905  0.1041  0.1305 -0.2777
  806loPI    C112213   6.184  15.518   4.925  0.1338 -0.0873 -0.0888
  806loPI    C212214   5.999  15.796   4.704  0.1381  0.0092  0.0276
  806loPI    C312215   5.937  15.408   4.630 -0.2121  0.0394  0.1462
  806loPI   PO412216   6.072  15.537   5.198  0.0496  0.2275  0.0413
  806loPI   GL112217   5.767  15.368   5.422 -0.0682  0.2202 -0.0255
  806loPI   GL212218   5.788  15.637   5.645  0.1026 -0.1564 -0.1494
  806loPI   C1A12219   5.514  15.215   5.716  0.2305 -0.0370 -0.1931
  806loPI   C2A12220   5.377  15.342   6.201 -0.0330 -0.0422 -0.0313
  806loPI   C3A12221   5.403  15.279   6.651  0.1756 -0.1841  0.0730
  806loPI   C4A12222   5.213  15.293   7.073  0.3517 -0.0095 -0.2309
  806loPI   C5A12223   5.345  15.391   7.491  0.0311 -0.0723 -0.0434
  806loPI   C6A12224   5.169  15.315   7.869 -0.1220 -0.2269 -0.3411
  806loPI   C1B12225   5.629  15.741   6.010  0.0250  0.0262  0.0699
  806loPI   C2B12226   5.555  15.800   6.453  0.0637  0.2785  0.1065
  806loPI   C3B12227   5.306  15.748   6.853  0.2562  0.5934  0.0144
  806loPI   C4B12228   5.196  15.799   7.277  0.1146  0.1178  0.1692
  807loPI    C112229  16.241  14.124   5.063  0.0708  0.0669 -0.1951
  807loPI    C212230  16.440  13.861   5.289 -0.0279  0.0660 -0.1086
  807loPI    C312231  16.635  14.075   5.013  0.1102  0.1316  0.0385
  807loPI   PO412232  16.124  14.295   5.242 -0.1192 -0.3028 -0.0156
  807loPI   GL112233  16.155  14.496   5.709  0.1989 -0.1140  0.0169
  807loPI   GL212234  16.202  14.177   5.838 -0.1228 -0.0741  0.1695
  807loPI   C1A12235  15.935  14.511   6.125 -0.2558 -0.1989 -0.1100
  807loPI   C2A12236  15.892  14.424   6.450 -0.1620 -0.0800  0.0987
  807loPI   C3A12237  15.841  14.314   6.892  0.2487  0.1661 -0.1433
  807loPI   C4A12238  15.750  14.569   7.225  0.0662  0.0252  0.0144
  807loPI   C5A12239  15.372  14.409   7.495  0.0088  0.1133  0.2001
  807loPI   C6A12240  15.389  14.272   7.942 -0.0146  0.0929 -0.1415
  807loPI   C1B12241  16.237  14.085   6.289 -0.3787  0.2123  0.2734
  807loPI   C2B12242  16.255  13.996   6.827  0.1124  0.0842 -0.1756
  807loPI   C3B12243  16.219  13.858   7.262  0.1270 -0.0533  0.1094
  807loPI   C4B12244  16.472  13.573   7.545  0.1680  0.2356 -0.0273
  808loPI    C112245  13.664  14.153   5.274  0.2214  0.0392 -0.0926
  808loPI    C212246  13.849  13.827   5.135  0.0333 -0.0368 -0.1687
  808loPI    C312247  13.648  14.065   4.884 -0.0686 -0.0180 -0.0703
  808loPI   PO412248  13.558  14.035   5.535 -0.1201 -0.0133 -0.2557
  808loPI   GL112249  13.473  14.028   5.925  0.0270  0.0199 -0.1117
  808loPI   GL212250  13.569  13.663   5.982  0.2269 -0.0311  0.2407
  808loPI   C1A12251  13.702  14.136   6.313  0.1156 -0.3047  0.2424
  808loPI   C2A12252  14.043  14.070   6.575 -0.0284 -0.2720 -0.2466
  808loPI   C3A12253  13.926  13.779   6.909  0.0466  0.3953  0.2669
  808loPI   C4A12254  13.906  13.723   7.244 -0.2155 -0.2233 -0.2271
  808loPI   C5A12255  14.060  13.690   7.569  0.3944  0.1457 -0.0847
  808loPI   C6A12256  14.586  13.545   7.575  0.1350 -0.1511  0.1791
  808loPI   C1B12257  13.331  13.789   6.412  0.2310 -0.0951 -0.0736
  808loPI   C2B12258  13.077  13.850   6.761  0.0113  0.1670 -0.1421
  808loPI   C3B12259  12.792  13.839   6.949 -0.2002 -0.0923 -0.1255
  808loPI   C4B12260  12.465  13.825   7.143 -0.2594  0.0251  0.0957
  809loPI    C112261   2.707  15.819   4.748 -0.1022  0.0045  0.1412
  809loPI    C212262   2.637  16.189   4.612 -0.1690 -0.0228  0.1003
  809loPI    C312263   2.331  15.949   4.703 -0.1252 -0.0321  0.2258
  809loPI   PO412264   2.938  15.808   4.962  0.0238  0.0792 -0.0851
  809loPI   GL112265   3.008  15.612   5.316 -0.0657 -0.1066  0.0471
  809loPI   GL212266   2.828  15.218   5.381  0.1165 -0.2503  0.2620
  809loPI   C1A12267   3.071  15.695   5.779  0.2337 -0.0719  0.1136
  809loPI   C2A12268   3.068  15.703   6.164  0.3218 -0.1335  0.0101
  809loPI   C3A12269   2.950  15.768   6.544 -0.0657  0.0005  0.4589
  809loPI   C4A12270   2.611  15.740   6.722  0.1139  0.2265  0.0256
  809loPI   C5A12271   2.320  15.485   6.974  0.0689 -0.1586 -0.2890
  809loPI   C6A12272   2.196  15.111   7.470  0.0882 -0.0513 -0.0531
  809loPI   C1B12273   2.641  15.476   5.649 -0.1689 -0.0232 -0.1292
  809loPI   C2B12274   2.124  15.452   5.745 -0.1329 -0.1043 -0.3031
  809loPI   C3B12275   1.978  15.557   6.201 -0.1274 -0.1802  0.0912
  809loPI   C4B12276   1.879  15.452   6.648 -0.1628  0.0170 -0.2221
  810loPI    C112277   6.704  17.921   4.842  0.0925 -0.1683  0.0297
  810loPI    C212278   6.710  17.587   4.622 -0.0587 -0.0744 -0.1203
  810loPI    C312279   6.790  17.940   4.452  0.1188 -0.0344  0.0415
  810loPI   PO412280   6.404  17.893   5.015 -0.0905 -0.1306 -0.1226
  810loPI   GL112281   6.274  17.888   5.423 -0.2260 -0.0506 -0.3433
  810loPI   GL212282   6.141  18.161   5.506 -0.0559  0.0715  0.2145
  810loPI   C1A12283   6.200  17.729   5.815  0.1861  0.0334 -0.0581
  810loPI   C2A12284   6.053  17.570   6.265 -0.0538  0.0074 -0.0511
  810loPI   C3A12285   5.916  17.578   6.676 -0.0210  0.2876 -0.0097
  810loPI   C4A12286   5.842  17.692   7.037 -0.1386  0.2130 -0.0472
  810loPI   C5A12287   5.560  17.516   7.347 -0.1037 -0.2208 -0.1341
  810loPI   C6A12288   5.484  17.635   7.846 -0.1447 -0.1287 -0.1232
  810loPI   C1B12289   6.086  18.167   5.977  0.2911 -0.2522  0.0799
  810loPI   C2B12290   5.839  18.062   6.321  0.1051 -0.0803 -0.0830
  810loPI   C3B12291   5.788  18.089   6.799  0.1301  0.1100  0.5541
  810loPI   C4B12292   5.775  18.098   7.284  0.4439  0.2284 -0.0065
  811loPI    C112293   9.898  11.562   5.504  0.1481 -0.1845  0.0848
  811loPI    C212294   9.577  11.477   5.281  0.1134 -0.0792  0.0942
  811loPI    C312295   9.944  11.450   5.123  0.0883  0.0058  0.0209
  811loPI   PO412296   9.948  11.782   5.522 -0.1858  0.0249  0.3674
  811loPI   GL112297  10.171  11.796   5.876  0.0418 -0.1855 -0.1855
  811loPI   GL212298  10.430  11.900   6.028  0.2848 -0.3289  0.1232
  811loPI   C1A12299  10.051  11.541   6.187 -0.0966  0.0993  0.0071
  811loPI   C2A12300  10.120  11.500   6.656 -0.0795 -0.1964  0.0137
  811loPI   C3A12301  10.210  11.497   7.055 -0.0841 -0.0677 -0.2196
  811loPI   C4A12302  10.247  11.729   7.357 -0.0484 -0.1959  0.2102
  811loPI   C5A12303  10.131  11.849   7.838  0.2918 -0.3730 -0.0288
  811loPI   C6A12304   9.663  11.860   8.055 -0.3491  0.2420 -0.1075
  811loPI   C1B12305  10.308  12.011   6.365 -0.0902  0.4326 -0.0794
  811loPI   C2B12306   9.989  11.962   6.655  0.1598  0.3776  0.0232
  811loPI   C3B12307  10.079  12.155   7.022  0.0077  0.2990  0.6120
  811loPI   C4B12308   9.921  12.158   7.476 -0.2147 -0.1004  0.0457
  812loPI    C112309  15.319  10.879   5.308  0.0975  0.0200 -0.0871
  812loPI    C212310  15.506  10.952   4.962  0.0031  0.0228 -0.1376
  812loPI    C312311  15.179  11.160   5.061  0.1600  0.1800  0.0581
  812loPI   PO412312  15.526  10.850   5.494 -0.1971 -0.0490 -0.3479
  812loPI   GL112313  15.542  11.049   5.855  0.0609 -0.0598 -0.3803
  812loPI   GL212314  15.686  11.309   5.909  0.0056 -0.3218 -0.0647
  812loPI   C1A12315  15.171  11.134   6.059 -0.0983  0.1989 -0.2038
  812loPI   C2A12316  14.967  11.024   6.381 -0.0900 -0.0996 -0.0189
  812loPI   C3A12317  14.786  11.224   6.658  0.2503  0.1121  0.0589
  812loPI   C4A12318  14.700  11.250   6.983 -0.2117 -0.4894 -0.3685
  812loPI   C5A12319  14.461  11.363   7.281  0.0119  0.2063  0.2618
  812loPI   C6A12320  14.048  11.433   7.377  0.2282  0.2148 -0.2277
  812loPI   C1B12321  15.799  11.095   6.280  0.1777  0.0535 -0.0607
  812loPI   C2B12322  15.921  11.183   6.745  0.1390  0.2291  0.1408
  812loPI   C3B12323  15.806  11.129   7.236 -0.1199  0.0930  0.2766
  812loPI   C4B12324  15.874  11.218   7.610 -0.1325 -0.0501  0.1804
  813loPI    C112325  10.200   3.393   5.419  0.0395 -0.0990 -0.0900
  813loPI    C212326  10.189   3.781   5.322 -0.0943 -0.0983 -0.0734
  813loPI    C312327  10.322   3.512   5.057  0.0090 -0.0400 -0.0809
  813loPI   PO412328  10.115   3.440   5.742 -0.0506 -0.3117  0.2327
  813loPI   GL112329  10.060   3.185   6.060 -0.1556 -0.2465 -0.0114
  813loPI   GL212330  10.095   2.968   6.118 -0.1107  0.3143 -0.4063
  813loPI   C1A12331  10.314   3.122   6.562 -0.1522 -0.0299  0.1843
  813loPI   C2A12332  10.116   2.800   6.821  0.2429  0.0674  0.0770
  813loPI   C3A12333  10.194   2.430   6.918 -0.2506 -0.0639  0.1188
  813loPI   C4A12334  10.234   2.153   7.233 -0.5041  0.0178  0.0633
  813loPI   C5A12335   9.916   1.836   7.339 -0.1056 -0.1580 -0.2753
  813loPI   C6A12336   9.939   1.422   7.467  0.0116  0.1031 -0.0121
  813loPI   C1B12337   9.821   2.777   6.444  0.0582 -0.1687  0.0763
  813loPI   C2B12338   9.684   2.479   6.753  0.0781 -0.0173 -0.2208
  813loPI   C3B12339   9.720   2.298   7.076  0.1086  0.4770  0.0436
  813loPI   C4B12340   9.790   2.594   7.352 -0.1111 -0.1173  0.0906
  814loPI    C112341  14.848  14.937   5.151  0.0582  0.2174 -0.2085
  814loPI    C212342  15.004  14.595   5.013  0.0014  0.1043  0.0040
  814loPI    C312343  15.156  14.946   4.896  0.1491  0.0038 -0.1085
  814loPI   PO412344  14.787  14.920   5.398 -0.2635 -0.1687  0.1045
  814loPI   GL112345  14.610  15.092   5.575 -0.3438 -0.0789 -0.2604
  814loPI   GL212346  14.472  14.919   5.834  0.0759  0.0585 -0.2061
  814loPI   C1A12347  14.761  15.363   5.971  0.2290 -0.1835 -0.0491
  814loPI   C2A12348  14.693  15.346   6.363 -0.0385 -0.0494 -0.0479
  814loPI   C3A12349  14.474  15.282   6.757  0.0438 -0.0388  0.3087
  814loPI   C4A12350  14.161  15.452   7.127  0.2120  0.0515 -0.2138
  814loPI   C5A12351  13.910  15.347   7.548  0.1314 -0.2138  0.1348
  814loPI   C6A12352  13.815  15.518   7.885 -0.1369 -0.4126 -0.1246
  814loPI   C1B12353  14.712  14.899   6.185  0.0286  0.0649  0.2338
  814loPI   C2B12354  14.771  14.843   6.652  0.1431 -0.1538 -0.2112
  814loPI   C3B12355  14.710  14.696   7.006  0.2165 -0.2289 -0.0679
  814loPI   C4B12356  14.451  14.527   7.274 -0.2427 -0.3074  0.1668
  815loPI    C112357   2.275  13.967   4.735 -0.0804  0.2338 -0.1264
  815loPI    C212358   2.246  13.794   4.375  0.0652  0.1784 -0.1123
  815loPI    C312359   2.051  14.136   4.449  0.1244  0.2500 -0.2805
  815loPI   PO412360   2.281  13.739   4.952  0.1309 -0.2209 -0.0650
  815loPI   GL112361   2.516  13.509   5.208 -0.3363  0.0287  0.0338
  815loPI   GL212362   2.656  13.838   5.450 -0.5054  0.2952 -0.0529
  815loPI   C1A12363   2.505  13.372   5.651  0.0130  0.2370 -0.0566
  815loPI   C2A12364   2.288  13.352   5.996 -0.1029  0.1137 -0.2898
  815loPI   C3A12365   2.320  13.295   6.483 -0.1795  0.0240 -0.0868
  815loPI   C4A12366   2.353  13.614   6.624 -0.1457  0.1633  0.0767
  815loPI   C5A12367   2.245  13.953   6.869 -0.0605 -0.2804  0.0336
  815loPI   C6A12368   2.405  14.082   7.310  0.2382  0.0993  0.2283
  815loPI   C1B12369   2.697  13.921   5.790  0.0867  0.3666  0.1536
  815loPI   C2B12370   2.614  13.791   6.197 -0.0549  0.1760  0.2715
  815loPI   C3B12371   2.366  14.074   6.426 -0.0865  0.2222 -0.0869
  815loPI   C4B12372   2.341  14.412   6.782  0.0144 -0.1815 -0.2444
  816loPI    C112373   4.753  15.410   4.879  0.2447 -0.0781  0.0770
  816loPI    C212374   5.033  15.448   4.596 -0.0427 -0.0177 -0.2056
  816loPI    C312375   4.847  15.098   4.647  0.0817 -0.0580 -0.0178
  816loPI   PO412376   4.635  15.626   4.909  0.3139  0.1564  0.1057
  816loPI   GL112377   4.480  15.834   5.260 -0.4524 -0.2649  0.1882
  816loPI   GL212378   4.457  16.180   5.373 -0.0249 -0.4622  0.1307
  816loPI   C1A12379   4.760  15.759   5.644 -0.1743 -0.0058 -0.2078
  816loPI   C2A12380   5.009  15.663   5.990  0.0251 -0.0052  0.1113
  816loPI   C3A12381   4.948  15.739   6.453 -0.4181 -0.0622  0.2069
  816loPI   C4A12382   4.795  15.656   6.915 -0.0366 -0.0255 -0.1085
  816loPI   C5A12383   4.698  15.840   7.305  0.2179  0.3414  0.0320
  816loPI   C6A12384   4.390  15.792   7.581  0.2263 -0.0818  0.1464
  816loPI   C1B12385   4.620  16.296   5.739 -0.1833 -0.0374 -0.3203
  816loPI   C2B12386   4.714  16.027   6.091  0.1734  0.3642  0.1436
  816loPI   C3B12387   4.528  16.035   6.469  0.1999 -0.0433  0.3241
  816loPI   C4B12388   4.525  16.108   6.867 -0.0898  0.0408  0.0663
  817loPI    C112389   7.189   3.404   5.064 -0.1051 -0.1689 -0.0264
  817loPI    C212390   7.529   3.611   5.021 -0.0174 -0.2112  0.4115
  817loPI    C312391   7.179   3.804   5.046 -0.0178 -0.1616  0.0723
  817loPI   PO412392   7.246   3.264   5.317 -0.1454 -0.5182 -0.1525
  817loPI   GL112393   7.307   2.927   5.508  0.1420 -0.1865  0.0888
  817loPI   GL212394   7.594   2.889   5.628  0.0102 -0.0213 -0.6149
  817loPI   C1A12395   7.116   2.838   5.884  0.0962 -0.0299 -0.3805
  817loPI   C2A12396   7.113   2.858   6.291  0.1266  0.2493  0.1139
  817loPI   C3A12397   6.992   2.889   6.841 -0.0981 -0.1779  0.2162
  817loPI   C4A12398   7.033   2.996   7.213  0.0649 -0.0072 -0.0544
  817loPI   C5A12399   7.286   2.882   7.541 -0.0612  0.1757 -0.0005
  817loPI   C6A12400   7.246   2.708   7.918  0.1544  0.1690  0.0323
  817loPI   C1B12401   7.775   3.125   5.876  0.0393 -0.0191  0.0340
  817loPI   C2B12402   7.788   3.201   6.252  0.1607  0.1648 -0.0170
  817loPI   C3B12403   7.808   3.213   6.604 -0.2812 -0.0591  0.0900
  817loPI   C4B12404   7.994   3.181   6.975 -0.0572 -0.3328  0.1368
  818loPI    C112405  17.881   3.947   5.240  0.0653 -0.0248  0.0441
  818loPI    C212406  17.536   4.102   5.370 -0.0196  0.0146 -0.2234
  818loPI    C312407  17.537   3.760   5.161  0.1144 -0.0439 -0.1285
  818loPI   PO412408  18.074   3.872   5.535  0.3049 -0.0348  0.1489
  818loPI   GL112409  17.971   3.968   5.846  0.1750 -0.0746  0.0011
  818loPI   GL212410  17.636   3.963   5.839 -0.2729 -0.2726  0.1658
  818loPI   C1A12411  18.002   4.008   6.230 -0.1965 -0.1323 -0.1285
  818loPI   C2A12412  17.903   4.186   6.507 -0.1789  0.1193  0.1107
  818loPI   C3A12413  17.881   4.231   6.943  0.2313  0.0439 -0.1623
  818loPI   C4A12414  17.671   4.275   7.290  0.0405  0.0287 -0.0232
  818loPI   C5A12415  17.495   4.388   7.703  0.1173  0.5299 -0.0807
  818loPI   C6A12416  17.182   4.605   8.054  0.0295 -0.1436  0.3129
  818loPI   C1B12417  17.507   3.904   6.246 -0.0670  0.0589 -0.2166
  818loPI   C2B12418  17.334   3.603   6.552 -0.0296 -0.1411 -0.2773
  818loPI   C3B12419  17.163   3.692   6.946  0.0155 -0.0935 -0.0206
  818loPI   C4B12420  17.051   3.741   7.452  0.0591 -0.0612  0.1407
  819loPI    C112421  14.154  12.860   5.305  0.0257  0.1828  0.2623
  819loPI    C212422  13.842  13.089   5.204  0.0416  0.1723  0.1884
  819loPI    C312423  13.964  12.798   4.959  0.2255  0.2967  0.1302
  819loPI   PO412424  14.191  12.912   5.635  0.0984 -0.2511 -0.0711
  819loPI   GL112425  14.398  12.662   6.015 -0.0879  0.0416  0.2550
  819loPI   GL212426  14.330  12.868   6.104 -0.2452 -0.2837 -0.0351
  819loPI   C1A12427  14.231  12.541   6.445 -0.0844 -0.3138 -0.0211
  819loPI   C2A12428  14.153  12.669   6.830  0.0644  0.0872 -0.1755
  819loPI   C3A12429  14.434  12.794   7.234 -0.0498  0.0355  0.0607
  819loPI   C4A12430  14.375  12.770   7.641 -0.2629  0.0664 -0.0026
  819loPI   C5A12431  14.345  12.679   8.075  0.1131 -0.0435 -0.2583
  819loPI   C6A12432  13.920  12.724   8.262 -0.0824  0.3032  0.2007
  819loPI   C1B12433  14.362  13.122   6.471  0.0404  0.4072 -0.3945
  819loPI   C2B12434  14.351  13.184   6.925 -0.3763 -0.0880 -0.2150
  819loPI   C3B12435  14.185  13.188   7.399 -0.2520  0.1021 -0.2460
  819loPI   C4B12436  14.327  13.191   7.842  0.1474  0.1998 -0.0045
  820loPI    C112437   0.429   0.429   5.111 -0.0910 -0.0870  0.1602
  820loPI    C212438   0.492   0.771   5.309 -0.1416  0.1648 -0.2474
  820loPI    C312439   0.328   0.778   4.944 -0.0548 -0.2898 -0.3012
  820loPI   PO412440   0.696   0.328   5.314  0.3682  0.1240  0.2436
  820loPI   GL112441   0.694   0.414   5.753 -0.1026  0.0834  0.3217
  820loPI   GL212442   0.533   0.401   6.109 -0.3203  0.1523  0.0612
  820loPI   C1A12443   0.339   0.690   5.823 -0.1134 -0.0643  0.0208
  820loPI   C2A12444   0.019   0.849   6.047  0.0143 -0.1416 -0.0052
  820loPI   C3A12445  -0.260   0.689   6.425  0.1346 -0.1842 -0.0019
  820loPI   C4A12446  -0.197   0.479   6.960 -0.0418 -0.1747 -0.2222
  820loPI   C5A12447  -0.490   0.116   7.052 -0.3225  0.0544 -0.1929
  820loPI   C6A12448  -0.800   0.062   7.401 -0.0450  0.2480 -0.1274
  820loPI   C1B12449   0.746   0.286   6.406 -0.0785 -0.1231  0.2727
  820loPI   C2B12450   0.753   0.150   6.837 -0.0710  0.0405 -0.0289
  820loPI   C3B12451   0.891   0.430   7.119  0.0151  0.0054 -0.0644
  820loPI   C4B12452   0.856   0.882   7.226 -0.0771  0.1613 -0.2308
  821loPI    C112453  16.778   9.558   5.041 -0.0278  0.1798 -0.4610
  821loPI    C212454  17.091   9.325   5.129  0.0654  0.4218 -0.1297
  821loPI    C312455  17.053   9.479   4.761  0.1213  0.0713 -0.2863
  821loPI   PO412456  16.779   9.745   5.181 -0.0853  0.0794  0.0659
  821loPI   GL112457  16.664   9.916   5.474  0.2403 -0.1400 -0.0476
  821loPI   GL212458  16.516   9.657   5.742  0.1408 -0.0569  0.1648
  821loPI   C1A12459  16.595  10.274   5.832 -0.0002 -0.3195 -0.1459
  821loPI   C2A12460  16.737  10.212   6.279 -0.1090 -0.0875 -0.2105
  821loPI   C3A12461  16.965  10.158   6.679  0.0608  0.3940 -0.4108
  821loPI   C4A12462  17.100   9.997   7.086  0.2455  0.0102 -0.1191
  821loPI   C5A12463  17.313   9.715   7.374 -0.3819  0.2759  0.1761
  821loPI   C6A12464  17.615   9.378   7.488 -0.1812 -0.1017 -0.0326
  821loPI   C1B12465  16.399   9.893   6.201 -0.2429  0.3053 -0.0518
  821loPI   C2B12466  16.405  10.173   6.621 -0.1216  0.0455 -0.0401
  821loPI   C3B12467  16.593  10.041   6.991  0.3582  0.0398  0.1573
  821loPI   C4B12468  16.524   9.885   7.372  0.1562  0.2048 -0.0060
  822loPI    C112469   3.906   9.377   4.941  0.0354 -0.0396 -0.1488
  822loPI    C212470   3.660   9.122   4.755 -0.1036  0.1139 -0.1780
  822loPI    C312471   4.026   9.191   4.607 -0.0127 -0.1713 -0.0933
  822loPI   PO412472   3.794   9.352   5.206 -0.2921  0.1365  0.1929
  822loPI   GL112473   3.637   9.582   5.463 -0.1484  0.3196  0.1588
  822loPI   GL212474   3.711   9.745   5.572  0.0351 -0.4637 -0.0930
  822loPI   C1A12475   3.646   9.387   5.916  0.0671  0.1018  0.2034
  822loPI   C2A12476   3.645   9.519   6.362 -0.0601 -0.0773 -0.3060
  822loPI   C3A12477   3.691   9.374   6.774  0.0380  0.3498 -0.1235
  822loPI   C4A12478   3.709   9.591   7.233 -0.0705  0.2680  0.0375
  822loPI   C5A12479   3.740   9.882   7.505 -0.1627 -0.0343  0.1829
  822loPI   C6A12480   3.631  10.201   7.851 -0.1387  0.0753  0.0203
  822loPI   C1B12481   3.678   9.900   5.881  0.0010  0.0372  0.0953
  822loPI   C2B12482   3.870   9.970   6.323  0.0981 -0.1149 -0.0237
  822loPI   C3B12483   3.819   9.931   6.787  0.0854  0.0577  0.1963
  822loPI   C4B12484   4.077   9.967   7.129 -0.1449 -0.2609  0.0378
  823loPI    C112485  12.434  12.227   5.207  0.1183  0.0365  0.0907
  823loPI    C212486  12.171  11.962   5.062 -0.1034  0.1317  0.3112
  823loPI    C312487  12.522  12.017   4.878 -0.0879 -0.2537  0.2161
  823loPI   PO412488  12.487  12.133   5.549 -0.2677  0.2011 -0.2657
  823loPI   GL112489  12.686  12.179   5.901 -0.0407  0.1760  0.0613
  823loPI   GL212490  12.602  12.560   5.996 -0.0178 -0.1157  0.1987
  823loPI   C1A12491  12.689  12.067   6.326 -0.0833  0.0182 -0.1938
  823loPI   C2A12492  12.418  12.054   6.749 -0.0336 -0.0375 -0.3179
  823loPI   C3A12493  12.338  12.016   7.219  0.2966 -0.1507  0.2187
  823loPI   C4A12494  12.311  12.170   7.595 -0.1629 -0.0175 -0.1007
  823loPI   C5A12495  12.446  12.400   7.977  0.2753  0.0674 -0.1626
  823loPI   C6A12496  12.574  12.635   8.345  0.1927 -0.0469  0.0806
  823loPI   C1B12497  12.859  12.573   6.354 -0.0501  0.0692  0.0247
  823loPI   C2B12498  12.775  12.366   6.713  0.1528 -0.0655 -0.2097
  823loPI   C3B12499  12.694  12.411   7.123  0.2469 -0.0163 -0.0397
  823loPI   C4B12500  12.790  12.496   7.524  0.1117 -0.0709 -0.0737
  824loPI    C112501   1.542   0.207   4.778  0.3448 -0.0916  0.1291
  824loPI    C212502   1.666   0.574   4.877  0.0531  0.0172  0.1015
  824loPI    C312503   1.742   0.428   4.512 -0.0238  0.1393  0.0360
  824loPI   PO412504   1.511   0.059   5.046 -0.2758  0.0034  0.2075
  824loPI   GL112505   1.662  -0.154   5.458  0.2888 -0.1479  0.0302
  824loPI   GL212506   1.427  -0.069   5.632  0.1796  0.4187 -0.1670
  824loPI   C1A12507   1.955   0.017   5.729  0.4459 -0.2161 -0.2385
  824loPI   C2A12508   2.173   0.260   6.069  0.2941 -0.2713  0.2556
  824loPI   C3A12509   2.147   0.481   6.482 -0.3126  0.0146 -0.0844
  824loPI   C4A12510   2.276   0.561   6.939 -0.1326  0.1950 -0.1522
  824loPI   C5A12511   2.446   0.463   7.335 -0.0348  0.0397  0.1219
  824loPI   C6A12512   2.600   0.829   7.680 -0.2613  0.1325 -0.0073
  824loPI   C1B12513   1.498  -0.272   5.955 -0.0749 -0.0151  0.1593
  824loPI   C2B12514   1.659  -0.561   6.228 -0.1506 -0.0794 -0.2368
  824loPI   C3B12515   1.946  -0.823   6.527  0.1474 -0.0307  0.2356
  824loPI   C4B12516   1.929  -0.801   6.994  0.1144 -0.0085  0.0633
  825loPI    C112517   4.468   3.037   4.685 -0.0822  0.1123  0.0177
  825loPI    C212518   4.179   2.798   4.547 -0.0221  0.0889 -0.0681
  825loPI    C312519   4.219   3.168   4.400 -0.0578  0.1200 -0.0000
  825loPI   PO412520   4.438   3.106   4.951 -0.0015 -0.1131 -0.1538
  825loPI   GL112521   4.603   3.412   5.308 -0.3145 -0.0223 -0.0964
  825loPI   GL212522   4.522   3.674   5.498  0.2904 -0.0908 -0.1745
  825loPI   C1A12523   4.576   3.247   5.790 -0.3298 -0.1443  0.1613
  825loPI   C2A12524   4.639   3.196   6.239 -0.3495  0.0730  0.2093
  825loPI   C3A12525   4.707   3.228   6.594  0.0717 -0.4093 -0.1078
  825loPI   C4A12526   4.834   3.271   7.058 -0.0083 -0.1150  0.0549
  825loPI   C5A12527   4.837   3.021   7.342  0.0839 -0.2128 -0.2135
  825loPI   C6A12528   4.522   2.987   7.630 -0.3678  0.4721 -0.0468
  825loPI   C1B12529   4.497   3.683   5.974 -0.2058 -0.2517  0.0971
  825loPI   C2B12530   4.479   3.679   6.432  0.0617 -0.3494  0.0702
  825loPI   C3B12531   4.494   3.597   6.839 -0.1973 -0.4514  0.3138
  825loPI   C4B12532   4.576   3.869   7.128 -0.0832  0.0798  0.0309
  826loPI    C112533   4.018  14.862   4.806  0.1065  0.0247  0.0619
  826loPI    C212534   4.410  14.921   4.751  0.0841  0.1533  0.0377
  826loPI    C312535   4.144  15.138   4.545  0.0001  0.1192  0.1099
  826loPI   PO412536   4.009  14.813   5.028  0.0972 -0.0732  0.3343
  826loPI   GL112537   3.965  14.515   5.388 -0.0253 -0.1543  0.1192
  826loPI   GL212538   4.089  14.356   5.511  0.2085 -0.1604  0.2224
  826loPI   C1A12539   3.616  14.475   5.458  0.1503  0.0886 -0.1116
  826loPI   C2A12540   3.401  14.426   5.736  0.0251  0.0765 -0.2072
  826loPI   C3A12541   3.285  14.286   6.184 -0.0216 -0.0251  0.0093
  826loPI   C4A12542   3.261  14.268   6.703  0.0735  0.1301 -0.2710
  826loPI   C5A12543   3.393  14.394   7.123  0.0822  0.0269 -0.0499
  826loPI   C6A12544   3.472  14.724   7.474 -0.3821  0.1133 -0.1735
  826loPI   C1B12545   3.872  14.432   5.880  0.2952  0.4154  0.0915
  826loPI   C2B12546   3.707  14.578   6.202  0.1366 -0.0884  0.1593
  826loPI   C3B12547   3.638  14.921   6.445  0.6320  0.1183 -0.1447
  826loPI   C4B12548   3.359  14.934   6.885  0.0122 -0.2254  0.0226
  827loPI    C112549  14.271  11.117   4.873 -0.2302 -0.0376 -0.0420
  827loPI    C212550  13.933  11.189   4.672 -0.0812  0.1433 -0.2318
  827loPI    C312551  14.276  11.132   4.474 -0.0618 -0.3999 -0.0578
  827loPI   PO412552  14.131  11.256   5.228  0.1687  0.0101  0.0851
  827loPI   GL112553  13.720  11.294   5.466 -0.1332  0.2611  0.1870
  827loPI   GL212554  13.518  11.472   5.572  0.3216  0.2979  0.2351
  827loPI   C1A12555  13.740  11.131   5.913  0.0402 -0.1423 -0.1199
  827loPI   C2A12556  13.463  11.012   6.251 -0.0654  0.2617 -0.2696
  827loPI   C3A12557  13.324  11.009   6.649 -0.1246  0.2303  0.0459
  827loPI   C4A12558  13.362  10.963   7.071  0.0327  0.1972 -0.1594
  827loPI   C5A12559  13.158  11.140   7.489  0.0244 -0.1156  0.1617
  827loPI   C6A12560  13.188  10.948   7.890  0.0028  0.0305 -0.0684
  827loPI   C1B12561  13.441  11.532   6.008 -0.3014 -0.1752 -0.1766
  827loPI   C2B12562  13.279  11.456   6.396  0.4589  0.1617 -0.0351
  827loPI   C3B12563  13.250  11.495   6.822 -0.0595 -0.0869 -0.0109
  827loPI   C4B12564  13.085  11.473   7.136 -0.0452  0.0037 -0.1002
  828loPI    C112565   1.299   7.002   4.861  0.3010 -0.2102  0.5428
  828loPI    C212566   1.647   6.894   4.695  0.0662 -0.3197  0.1079
  828loPI    C312567   1.349   6.628   4.727 -0.1223 -0.1139  0.0885
  828loPI   PO412568   1.406   7.263   5.045  0.0387 -0.0492 -0.0425
  828loPI   GL112569   1.646   7.242   5.386  0.0579 -0.1717  0.2478
  828loPI   GL212570   1.777   7.502   5.642 -0.2055  0.0022 -0.0349
  828loPI   C1A12571   1.526   7.070   5.815 -0.3848  0.0650 -0.3382
  828loPI   C2A12572   1.548   7.030   6.262  0.0450 -0.0287 -0.0995
  828loPI   C3A12573   1.501   7.055   6.739  0.0984  0.1440  0.1378
  828loPI   C4A12574   1.438   6.973   7.177 -0.0031 -0.1107 -0.2442
  828loPI   C5A12575   1.227   6.829   7.470  0.0640  0.0839  0.2672
  828loPI   C6A12576   1.185   6.420   7.724 -0.1072  0.0340 -0.0334
  828loPI   C1B12577   1.853   7.435   6.156  0.1146  0.0503  0.1667
  828loPI   C2B12578   1.841   7.446   6.565  0.2019  0.1672 -0.1597
  828loPI   C3B12579   1.780   7.411   7.004  0.0970 -0.0881  0.2444
  828loPI   C4B12580   1.711   7.495   7.353 -0.1154 -0.0393 -0.0145
  829loPI    C112581  17.192  15.557   5.123  0.3082 -0.1339  0.2646
  829loPI    C212582  17.485  15.775   4.959 -0.1340  0.3145  0.0424
  829loPI    C312583  17.338  15.458   4.764  0.1547  0.1252  0.1269
  829loPI   PO412584  16.975  15.691   5.145  0.0978  0.2315 -0.4001
  829loPI   GL112585  16.724  15.877   5.526 -0.0596 -0.1277  0.1438
  829loPI   GL212586  17.070  16.001   5.585  0.1536 -0.0088 -0.1714
  829loPI   C1A12587  16.854  15.626   5.845 -0.1474  0.0576  0.0813
  829loPI   C2A12588  16.876  15.519   6.205 -0.1444  0.2309  0.1482
  829loPI   C3A12589  16.771  15.442   6.593 -0.1215 -0.2370 -0.1399
  829loPI   C4A12590  16.960  15.365   6.888  0.0407 -0.0898 -0.0038
  829loPI   C5A12591  17.036  15.385   7.304 -0.2323 -0.1440 -0.0646
  829loPI   C6A12592  17.096  15.204   7.742  0.0436 -0.1175  0.2226
  829loPI   C1B12593  17.290  15.915   5.853 -0.0031 -0.3844  0.3132
  829loPI   C2B12594  17.335  15.693   6.220 -0.0090 -0.1469  0.0368
  829loPI   C3B12595  17.264  15.632   6.613 -0.1401  0.3659 -0.0196
  829loPI   C4B12596  17.340  15.676   7.076  0.0561  0.1825  0.1878
  830loPI    C112597   2.474  16.561   5.089  0.4381 -0.2987 -0.2526
  830loPI    C212598   2.191  16.537   4.808  0.0101  0.0090  0.1379
  830loPI    C312599   2.544  16.704   4.722 -0.0928  0.0453 -0.2306
  830loPI   PO412600   2.484  16.250   5.137  0.2670 -0.1447  0.0393
  830loPI   GL112601   2.321  16.013   5.444 -0.2527 -0.1662  0.0090
  830loPI   GL212602   2.175  16.221   5.633  0.2594  0.0055  0.1038
  830loPI   C1A12603   2.619  16.014   5.824  0.0231 -0.0308  0.0204
  830loPI   C2A12604   2.690  16.134   6.302 -0.1673  0.0176 -0.1492
  830loPI   C3A12605   2.784  16.321   6.720 -0.0787 -0.1754  0.1548
  830loPI   C4A12606   2.886  16.408   7.091 -0.0516  0.0306 -0.1113
  830loPI   C5A12607   2.886  16.163   7.444 -0.2808 -0.0712  0.1023
  830loPI   C6A12608   2.905  15.761   7.643  0.3377 -0.0138 -0.1527
  830loPI   C1B12609   2.193  16.106   6.135  0.1302 -0.3292 -0.4751
  830loPI   C2B12610   2.185  15.891   6.557  0.2710 -0.3814  0.1896
  830loPI   C3B12611   2.147  16.062   6.792  0.0804 -0.1205 -0.1050
  830loPI   C4B12612   2.438  16.213   7.008  0.2056 -0.0103 -0.2594
  831loPI    C112613   8.635  11.674   5.120  0.0039 -0.2281 -0.1153
  831loPI    C212614   8.389  11.836   4.849  0.0937 -0.0683 -0.1018
  831loPI    C312615   8.744  11.691   4.735  0.1780  0.0980 -0.0550
  831loPI   PO412616   8.481  11.525   5.239 -0.1392 -0.1910  0.0118
  831loPI   GL112617   8.380  11.376   5.639 -0.0420  0.3014 -0.0423
  831loPI   GL212618   8.128  11.257   5.750 -0.1476 -0.0732 -0.1596
  831loPI   C1A12619   8.641  11.427   6.056 -0.4596 -0.0779  0.2653
  831loPI   C2A12620   8.642  11.525   6.532  0.0774 -0.1499 -0.2170
  831loPI   C3A12621   8.646  11.512   7.003  0.0593  0.2039  0.0073
  831loPI   C4A12622   8.818  11.422   7.327  0.3228  0.1041 -0.1604
  831loPI   C5A12623   9.014  11.347   7.702 -0.1659 -0.2183  0.2888
  831loPI   C6A12624   9.470  11.254   7.913  0.0789  0.1854  0.0777
  831loPI   C1B12625   8.155  11.172   6.236  0.1380  0.1459  0.1759
  831loPI   C2B12626   7.986  11.229   6.558 -0.0895 -0.1344 -0.0396
  831loPI   C3B12627   7.985  11.077   6.870  0.0558  0.0480 -0.0713
  831loPI   C4B12628   7.793  11.048   7.326 -0.1049 -0.0959 -0.1421
  832loPI    C112629   7.355  16.535   5.426 -0.2038 -0.0776 -0.2521
  832loPI    C212630   7.588  16.637   5.117 -0.1885 -0.1643 -0.2693
  832loPI    C312631   7.444  16.264   5.145 -0.0324 -0.2110 -0.0720
  832loPI   PO412632   7.470  16.680   5.617  0.0038  0.2389  0.0543
  832loPI   GL112633   7.400  16.809   6.051 -0.0497  0.1118 -0.1486
  832loPI   GL212634   7.573  17.139   6.110  0.0447  0.1395  0.3656
  832loPI   C1A12635   7.177  16.880   6.467  0.1355  0.0600  0.0826
  832loPI   C2A12636   7.427  17.147   6.685 -0.0649  0.0606 -0.0112
  832loPI   C3A12637   7.380  17.235   7.084  0.1436  0.4660 -0.0985
  832loPI   C4A12638   7.382  17.176   7.511  0.2294  0.1760  0.1749
  832loPI   C5A12639   7.334  16.866   7.846 -0.0969  0.1935  0.1595
  832loPI   C6A12640   7.048  16.566   8.078 -0.0921  0.0133 -0.0903
  832loPI   C1B12641   7.817  17.371   6.364 -0.3214 -0.0266  0.0493
  832loPI   C2B12642   7.749  17.488   6.872  0.2105 -0.0387 -0.1347
  832loPI   C3B12643   7.797  17.606   7.345 -0.4820 -0.0452 -0.0436
  832loPI   C4B12644   7.890  17.697   7.768  0.4363 -0.0717 -0.2114
  833loPI    C112645   0.217  12.997   4.575  0.0594  0.1629 -0.0436
  833loPI    C212646   0.073  12.638   4.475  0.1022  0.0840  0.1741
  833loPI    C312647   0.264  12.859   4.203  0.1594 -0.0990  0.0640
  833loPI   PO412648  -0.004  13.001   4.796 -0.0014  0.1543 -0.1310
  833loPI   GL112649   0.023  12.986   5.265  0.1077  0.1170 -0.0690
  833loPI   GL212650  -0.182  13.107   5.498  0.3198  0.0571 -0.0579
  833loPI   C1A12651   0.214  12.688   5.460 -0.2443 -0.2808  0.1310
  833loPI   C2A12652   0.374  12.516   5.811 -0.0506 -0.0228  0.2049
  833loPI   C3A12653   0.485  12.599   6.245 -0.0804  0.0126 -0.1843
  833loPI   C4A12654   0.551  12.497   6.739 -0.1371  0.1210 -0.0955
  833loPI   C5A12655   0.505  12.630   7.202  0.2437  0.0105 -0.0195
  833loPI   C6A12656   0.076  12.754   7.402 -0.0682  0.1968  0.1381
  833loPI   C1B12657  -0.110  13.269   5.814 -0.1598 -0.0669  0.3044
  833loPI   C2B12658  -0.054  13.512   6.151  0.5369 -0.0772  0.3609
  833loPI   C3B12659   0.007  13.530   6.610  0.3062 -0.1656  0.0847
  833loPI   C4B12660   0.197  13.800   6.887 -0.0196 -0.2304 -0.0628
  834loPI    C112661  16.458  14.671   5.145 -0.1364 -0.0714 -0.0261
  834loPI    C212662  16.668  14.930   4.923 -0.1236  0.0076  0.0774
  834loPI    C312663  16.795  14.553   4.964  0.0086  0.0602  0.1547
  834loPI   PO412664  16.432  14.796   5.397  0.2552  0.2253 -0.0278
  834loPI   GL112665  16.614  14.915   5.753  0.1533 -0.1936 -0.0155
  834loPI   GL212666  16.816  15.101   5.845  0.1589 -0.0362 -0.0685
  834loPI   C1A12667  16.489  14.559   6.064 -0.4434  0.1100 -0.0079
  834loPI   C2A12668  16.382  14.527   6.458  0.1879 -0.3681  0.0238
  834loPI   C3A12669  16.487  14.432   6.910 -0.0998 -0.0831 -0.1037
  834loPI   C4A12670  16.305  14.409   7.226  0.0733 -0.0640  0.2414
  834loPI   C5A12671  16.459  14.467   7.690 -0.1652 -0.0467  0.0013
  834loPI   C6A12672  16.509  14.423   8.150  0.2206  0.0489  0.0740
  834loPI   C1B12673  16.756  14.993   6.313 -0.1636  0.0790  0.0511
  834loPI   C2B12674  16.641  14.927   6.787  0.1176  0.2163 -0.1520
  834loPI   C3B12675  16.850  14.922   7.216  0.2596 -0.2475 -0.0898
  834loPI   C4B12676  16.587  15.109   7.508  0.1342  0.1648  0.1935
  835loPI    C112677   9.472   9.024   5.138  0.3097  0.0045  0.0305
  835loPI    C212678   9.276   9.080   4.794  0.2601 -0.2018  0.0234
  835loPI    C312679   9.664   8.984   4.790  0.3057 -0.0215  0.0312
  835loPI   PO412680   9.315   9.212   5.330 -0.0319  0.3380 -0.0917
  835loPI   GL112681   9.229   9.142   5.728 -0.2208  0.0585 -0.3276
  835loPI   GL212682   9.429   9.454   5.874 -0.1124 -0.0764 -0.1231
  835loPI   C1A12683   9.184   9.053   6.117  0.0972  0.1812  0.0984
  835loPI   C2A12684   8.974   8.990   6.457 -0.2745  0.0764 -0.0653
  835loPI   C3A12685   8.988   9.128   6.801  0.0888  0.2985 -0.0534
  835loPI   C4A12686   9.018   9.089   7.251  0.1460 -0.0191  0.2988
  835loPI   C5A12687   8.775   9.102   7.594  0.0591  0.1321  0.4588
  835loPI   C6A12688   8.306   9.130   7.591 -0.1457  0.0514 -0.0998
  835loPI   C1B12689   9.563   9.343   6.273  0.0659 -0.1860  0.2016
  835loPI   C2B12690   9.456   9.414   6.640 -0.1695 -0.2368  0.1660
  835loPI   C3B12691   9.343   9.392   7.070 -0.0712 -0.1912 -0.2634
  835loPI   C4B12692   9.187   9.594   7.411  0.0778  0.2818 -0.1204
  836loPI    C112693  13.363   5.480   5.553  0.2196 -0.1741 -0.1040
  836loPI    C212694  13.040   5.352   5.752  0.1192 -0.0575 -0.1903
  836loPI    C312695  13.268   5.092   5.551  0.3281 -0.2064  0.2255
  836loPI   PO412696  13.510   5.597   5.712  0.0419 -0.1160 -0.0586
  836loPI   GL112697  13.636   5.852   6.101  0.0482 -0.1412 -0.1044
  836loPI   GL212698  13.882   5.560   6.068 -0.1358 -0.0860  0.1066
  836loPI   C1A12699  13.486   5.795   6.541 -0.0808  0.1817  0.2414
  836loPI   C2A12700  13.207   5.581   6.716  0.1391 -0.1383 -0.1462
  836loPI   C3A12701  13.156   5.513   7.156  0.0825 -0.0098  0.0744
  836loPI   C4A12702  13.046   5.387   7.463  0.2987  0.1919 -0.2046
  836loPI   C5A12703  12.578   5.246   7.519  0.1036 -0.3253 -0.0528
  836loPI   C6A12704  12.232   4.987   7.708  0.1683 -0.0947  0.2655
  836loPI   C1B12705  13.617   5.317   6.390 -0.3365  0.0813  0.4893
  836loPI   C2B12706  13.558   5.156   6.868 -0.1042 -0.0313 -0.1533
  836loPI   C3B12707  13.675   5.286   7.210  0.0664  0.0407  0.2082
  836loPI   C4B12708  13.654   5.458   7.449 -0.1155  0.1270 -0.0909
  837loPI    C112709   9.845   0.253   5.411  0.0975 -0.1563  0.1902
  837loPI    C212710  10.012   0.444   5.102  0.2724 -0.1731  0.2728
  837loPI    C312711   9.760   0.140   5.037  0.2587 -0.1356  0.1464
  837loPI   PO412712  10.086   0.126   5.580  0.3563 -0.0228  0.0776
  837loPI   GL112713  10.295   0.087   6.003  0.1251 -0.1235  0.2401
  837loPI   GL212714  10.398  -0.236   6.109  0.0051  0.1448 -0.1965
  837loPI   C1A12715  10.294   0.338   6.279 -0.2318  0.0568 -0.2760
  837loPI   C2A12716  10.352   0.482   6.647 -0.2709 -0.1216  0.1561
  837loPI   C3A12717  10.451   0.653   7.053 -0.4524 -0.1385 -0.1233
  837loPI   C4A12718  10.671   0.885   7.439 -0.2524 -0.2041 -0.1215
  837loPI   C5A12719  10.655   1.296   7.788 -0.2477 -0.1020 -0.0263
  837loPI   C6A12720  10.750   1.690   7.898  0.2908  0.1018 -0.2013
  837loPI   C1B12721  10.308  -0.153   6.452  0.0240 -0.0985  0.1291
  837loPI   C2B12722  10.379  -0.257   6.817 -0.0234 -0.0923 -0.1387
  837loPI   C3B12723  10.417  -0.472   7.309  0.1284  0.3037 -0.0175
  837loPI   C4B12724  10.341  -0.454   7.759 -0.3421  0.1159  0.0857
  838loPI    C112725   7.432   5.054   5.272 -0.3124 -0.0541 -0.1610
  838loPI    C212726   7.797   5.113   5.118 -0.3050  0.1474 -0.0705
  838loPI    C312727   7.586   4.787   5.017  0.0018 -0.0999  0.0709
  838loPI   PO412728   7.370   5.331   5.351 -0.1020  0.1491  0.0434
  838loPI   GL112729   7.613   5.573   5.620  0.1740  0.1275  0.0196
  838loPI   GL212730   7.520   5.882   5.829 -0.1052  0.3182  0.1173
  838loPI   C1A12731   7.801   5.570   6.051  0.1315 -0.1621 -0.2574
  838loPI   C2A12732   7.874   5.590   6.481  0.0526  0.0189  0.3732
  838loPI   C3A12733   8.079   5.549   6.895 -0.0696 -0.1405  0.0880
  838loPI   C4A12734   8.066   5.552   7.328  0.0210  0.1610  0.0330
  838loPI   C5A12735   8.014   5.421   7.720 -0.0733 -0.2118  0.1895
  838loPI   C6A12736   7.636   5.212   7.892  0.0207  0.1762 -0.3247
  838loPI   C1B12737   7.698   6.041   6.187  0.4331  0.0486 -0.0069
  838loPI   C2B12738   7.675   6.128   6.574 -0.1414 -0.1388 -0.1556
  838loPI   C3B12739   7.812   6.422   6.868  0.0888  0.0255 -0.1633
  838loPI   C4B12740   8.076   6.490   7.222  0.0664 -0.0582 -0.0132
  839loPI    C112741   9.130   6.394   4.895 -0.1800 -0.0599  0.1555
  839loPI    C212742   8.739   6.337   4.837 -0.1655  0.1012 -0.1147
  839loPI    C312743   8.930   6.628   4.640  0.1322 -0.1079 -0.1410
  839loPI   PO412744   9.194   6.375   5.127  0.2044 -0.0739  0.5610
  839loPI   GL112745   9.287   6.157   5.437  0.3646 -0.0841 -0.1793
  839loPI   GL212746   9.500   5.852   5.441  0.0123  0.5581  0.0305
  839loPI   C1A12747   9.273   6.423   5.767 -0.0263 -0.4133  0.1390
  839loPI   C2A12748   9.304   6.763   5.982 -0.3989  0.0774  0.2967
  839loPI   C3A12749   9.118   7.062   6.272  0.3428  0.1607  0.1670
  839loPI   C4A12750   8.804   7.161   6.610  0.3399 -0.0782  0.2028
  839loPI   C5A12751   8.507   7.383   6.944  0.0221 -0.0245  0.0711
  839loPI   C6A12752   8.277   7.469   7.258 -0.0195 -0.1203  0.1588
  839loPI   C1B12753   9.428   5.852   5.855 -0.2921 -0.1358  0.0610
  839loPI   C2B12754   9.426   5.859   6.350  0.0842  0.0799 -0.0066
  839loPI   C3B12755   9.133   5.893   6.660  0.3654  0.0862 -0.1529
  839loPI   C4B12756   8.974   5.704   7.064  0.1102  0.0336  0.0796
  840loPI    C112757  12.051   9.816   4.862 -0.2218  0.0611  0.1187
  840loPI    C212758  11.700   9.972   4.975 -0.2197  0.2023 -0.0651
  840loPI    C312759  11.738   9.807   4.613 -0.1127  0.1316 -0.0221
  840loPI   PO412760  12.130   9.712   5.162  0.1366 -0.0857  0.3616
  840loPI   GL112761  12.090   9.855   5.564  0.1541  0.0709  0.3489
  840loPI   GL212762  12.354  10.000   5.655  0.1271 -0.0510 -0.5493
  840loPI   C1A12763  11.762   9.952   5.926  0.0343  0.0034  0.2319
  840loPI   C2A12764  11.815  10.022   6.370 -0.1700 -0.0795 -0.1183
  840loPI   C3A12765  11.632  10.001   6.765  0.5183 -0.2382 -0.1505
  840loPI   C4A12766  11.766   9.991   7.193  0.0849  0.0556  0.0979
  840loPI   C5A12767  11.675   9.967   7.620 -0.0618  0.0568  0.1381
  840loPI   C6A12768  11.617   9.900   8.088  0.0758  0.2276  0.1653
  840loPI   C1B12769  12.291   9.995   6.237  0.0772  0.0561 -0.1026
  840loPI   C2B12770  12.284   9.945   6.621  0.0443 -0.0380 -0.2689
  840loPI   C3B12771  12.253   9.906   7.100  0.0323 -0.1089 -0.0646
  840loPI   C4B12772  12.098   9.752   7.470 -0.1513 -0.1148  0.1570
  841loPI    C112773   0.849  18.059   4.988  0.1416  0.0413  0.1112
  841loPI    C212774   1.149  18.277   4.836  0.0775 -0.0426 -0.1402
  841loPI    C312775   0.865  18.131   4.595 -0.1973  0.0801  0.1018
  841loPI   PO412776   0.989  17.920   5.210  0.1604 -0.0628  0.2694
  841loPI   GL112777   1.190  18.062   5.646 -0.0119 -0.2905  0.1080
  841loPI   GL212778   1.395  17.813   5.609 -0.1779  0.2153  0.1412
  841loPI   C1A12779   1.170  17.902   6.016 -0.1290  0.0178  0.1042
  841loPI   C2A12780   1.264  17.836   6.417  0.1612  0.1245  0.1177
  841loPI   C3A12781   1.360  17.759   6.875 -0.0790  0.1936  0.3052
  841loPI   C4A12782   1.024  17.613   7.221  0.1174  0.1187  0.1454
  841loPI   C5A12783   0.993  17.703   7.689  0.1260  0.0923  0.1043
  841loPI   C6A12784   1.117  17.560   8.155  0.2452  0.0463  0.1084
  841loPI   C1B12785   1.464  17.510   6.009 -0.2048  0.2092  0.1865
  841loPI   C2B12786   1.429  17.356   6.481 -0.0522 -0.0243 -0.0859
  841loPI   C3B12787   1.702  17.347   6.772 -0.0819  0.0926 -0.2055
  841loPI   C4B12788   1.940  17.178   7.023  0.1369  0.0337  0.0612
  842loPI    C112789  14.761   6.968   5.155  0.1036  0.0231  0.1892
  842loPI    C212790  14.532   6.759   4.903  0.1813  0.0007  0.1368
  842loPI    C312791  14.663   7.122   4.799  0.2493 -0.0266  0.1268
  842loPI   PO412792  14.636   6.988   5.385 -0.0267 -0.0929 -0.1828
  842loPI   GL112793  14.637   6.918   5.850 -0.0094 -0.0240  0.1873
  842loPI   GL212794  14.249   6.943   5.685 -0.1628 -0.2687 -0.0859
  842loPI   C1A12795  14.703   6.628   6.295  0.0619  0.0471 -0.1682
  842loPI   C2A12796  14.751   6.708   6.728 -0.0516 -0.0919 -0.2631
  842loPI   C3A12797  14.915   6.624   7.109  0.1494 -0.0178  0.0072
  842loPI   C4A12798  15.089   6.651   7.545 -0.2939  0.0557 -0.0690
  842loPI   C5A12799  15.487   6.705   7.560 -0.3292 -0.0969  0.1082
  842loPI   C6A12800  15.840   6.652   7.813 -0.1996  0.0724 -0.2307
  842loPI   C1B12801  14.192   7.307   5.930 -0.0172 -0.2691 -0.1323
  842loPI   C2B12802  14.355   7.637   6.279 -0.0933  0.3685 -0.1335
  842loPI   C3B12803  14.551   7.684   6.600 -0.2253 -0.0715  0.1592
  842loPI   C4B12804  14.708   7.648   6.884  0.0207  0.1398  0.1203
  843loPI    C112805  14.291  10.662   4.757  0.0439 -0.0256  0.1095
  843loPI    C212806  14.266  10.433   4.430 -0.0466 -0.0477  0.1316
  843loPI    C312807  14.535  10.728   4.448  0.0388 -0.1225  0.0843
  843loPI   PO412808  14.342  10.594   4.935 -0.3348 -0.0929  0.0972
  843loPI   GL112809  14.416  10.803   5.359  0.4535 -0.1366 -0.2826
  843loPI   GL212810  14.363  10.575   5.650 -0.1836  0.0667 -0.1259
  843loPI   C1A12811  14.454  11.017   5.721 -0.2781 -0.1059 -0.0097
  843loPI   C2A12812  14.238  11.132   6.016  0.1375  0.6201  0.1656
  843loPI   C3A12813  14.012  11.037   6.399 -0.0655  0.1885  0.0471
  843loPI   C4A12814  13.849  10.858   6.745 -0.2254  0.2479 -0.1064
  843loPI   C5A12815  13.854  10.934   7.189 -0.0235  0.0766  0.0125
  843loPI   C6A12816  13.628  11.069   7.552  0.0645  0.1340 -0.1002
  843loPI   C1B12817  14.087  10.631   5.939 -0.1980  0.3681  0.0823
  843loPI   C2B12818  14.033  10.579   6.358 -0.3091 -0.1609  0.1756
  843loPI   C3B12819  13.978  10.378   6.591  0.2535  0.2799 -0.0990
  843loPI   C4B12820  14.036  10.431   7.029  0.0696 -0.3496  0.1546
  844loPI    C112821  10.115  15.225   5.319 -0.2494 -0.1787  0.1530
  844loPI    C212822  10.093  14.971   5.011 -0.4094 -0.1682  0.1547
  844loPI    C312823   9.959  15.346   4.970  0.0946  0.0100  0.0593
  844loPI   PO412824  10.429  15.133   5.404 -0.1944 -0.5081 -0.0594
  844loPI   GL112825  10.528  15.280   5.839  0.1319 -0.3409  0.1153
  844loPI   GL212826  10.199  15.151   5.867 -0.0244  0.2474  0.1672
  844loPI   C1A12827  10.466  15.377   6.300 -0.1115  0.0284 -0.2487
  844loPI   C2A12828  10.293  15.255   6.621 -0.0384 -0.3540 -0.0730
  844loPI   C3A12829  10.350  15.137   7.023  0.1439 -0.0171  0.0477
  844loPI   C4A12830  10.063  14.872   7.242  0.2664  0.1592 -0.1113
  844loPI   C5A12831   9.947  14.619   7.672  0.0417 -0.4437  0.0213
  844loPI   C6A12832   9.596  14.271   7.762  0.2119 -0.2085  0.1367
  844loPI   C1B12833   9.981  15.089   6.276  0.1497  0.0592  0.3424
  844loPI   C2B12834   9.865  14.981   6.721  0.2217  0.1945 -0.2563
  844loPI   C3B12835   9.687  14.604   6.888  0.0987 -0.2168  0.1848
  844loPI   C4B12836   9.640  14.515   7.289  0.2694 -0.3010 -0.1865
  845loPI    C112837   7.807   2.405   5.161 -0.0609 -0.2006 -0.0835
  845loPI    C212838   7.450   2.466   5.329  0.0593 -0.1864  0.1709
  845loPI    C312839   7.629   2.762   5.127  0.0860 -0.0807  0.3471
  845loPI   PO412840   7.950   2.296   5.366  0.2163  0.0197 -0.1294
  845loPI   GL112841   7.775   2.231   5.668  0.2762  0.0681 -0.3991
  845loPI   GL212842   7.524   2.007   5.621 -0.5841  0.0846 -0.0472
  845loPI   C1A12843   7.687   2.175   6.099  0.1122 -0.0625 -0.3126
  845loPI   C2A12844   7.627   2.271   6.488 -0.0090  0.2417 -0.0315
  845loPI   C3A12845   7.552   2.304   6.942 -0.1058 -0.2352  0.2633
  845loPI   C4A12846   7.526   2.328   7.350 -0.3327  0.0953  0.2165
  845loPI   C5A12847   7.650   2.335   7.775 -0.4257  0.0995 -0.0904
  845loPI   C6A12848   7.818   2.130   8.105  0.2063  0.2962 -0.2985
  845loPI   C1B12849   7.294   1.907   6.010  0.1050  0.0830 -0.2905
  845loPI   C2B12850   7.307   1.887   6.441  0.1844  0.1821 -0.1172
  845loPI   C3B12851   7.244   1.932   6.942  0.2487  0.2319 -0.2015
  845loPI   C4B12852   7.184   1.839   7.392 -0.3729  0.0306  0.2144
  846loPI    C112853   7.910  12.446   5.250  0.1545 -0.2134 -0.1496
  846loPI    C212854   7.757  12.173   5.498  0.1267  0.1597  0.2571
  846loPI    C312855   7.518  12.367   5.243  0.0617  0.1597  0.3177
  846loPI   PO412856   8.145  12.471   5.443 -0.1007  0.2334 -0.1470
  846loPI   GL112857   8.223  12.176   5.723  0.0815 -0.3129 -0.0800
  846loPI   GL212858   8.483  11.886   5.660 -0.3196  0.0837  0.0887
  846loPI   C1A12859   8.358  12.101   6.110 -0.2408 -0.5157 -0.2902
  846loPI   C2A12860   8.567  12.091   6.490  0.1506 -0.2402 -0.0537
  846loPI   C3A12861   8.558  12.138   6.962 -0.2325  0.2160 -0.1117
  846loPI   C4A12862   8.326  12.299   7.252  0.0990 -0.0497 -0.3830
  846loPI   C5A12863   8.288  12.389   7.694  0.1522 -0.3511 -0.0285
  846loPI   C6A12864   8.390  12.064   7.867 -0.1350  0.0476 -0.1124
  846loPI   C1B12865   8.809  11.912   6.019 -0.2128 -0.1569  0.1517
  846loPI   C2B12866   9.035  11.768   6.423  0.2062  0.4131  0.0186
  846loPI   C3B12867   9.123  11.605   6.827  0.0567 -0.3082 -0.1599
  846loPI   C4B12868   9.241  11.619   7.263  0.0975  0.2360 -0.0358
  847loPI    C112869   0.068   1.229   4.826 -0.0318  0.1825  0.1825
  847loPI    C212870   0.097   0.941   4.549  0.0589  0.0684  0.3090
  847loPI    C312871  -0.190   1.219   4.519  0.2070  0.1916 -0.0219
  847loPI   PO412872   0.301   1.289   4.876 -0.1342 -0.0700  0.0811
  847loPI   GL112873   0.364   1.275   5.260  0.1526 -0.0013  0.0558
  847loPI   GL212874   0.013   1.121   5.316  0.4649  0.1454  0.2141
  847loPI   C1A12875   0.439   1.156   5.658 -0.0476  0.0830 -0.0452
  847loPI   C2A12876   0.469   1.082   6.094  0.1432 -0.1062  0.0426
  847loPI   C3A12877   0.304   0.937   6.442 -0.0095 -0.1527 -0.0878
  847loPI   C4A12878   0.060   0.935   6.845 -0.0785  0.4264 -0.0860
  847loPI   C5A12879  -0.019   1.072   7.297 -0.0473 -0.0226  0.0563
  847loPI   C6A12880  -0.118   1.246   7.680 -0.1001  0.0808  0.0656
  847loPI   C1B12881  -0.165   1.216   5.724  0.1188  0.0296 -0.1072
  847loPI   C2B12882   0.076   1.322   6.069 -0.0679  0.0230 -0.1071
  847loPI   C3B12883  -0.091   1.277   6.442 -0.1334 -0.1859 -0.1335
  847loPI   C4B12884  -0.187   1.363   6.864  0.2028 -0.4657  0.1928
  848loPI    C112885   2.223  12.906   5.011 -0.0157  0.0382 -0.0886
  848loPI    C212886   2.589  13.057   5.062  0.0018 -0.0796  0.1538
  848loPI    C312887   2.336  13.040   5.371 -0.1910 -0.0470 -0.0001
  848loPI   PO412888   2.189  12.667   4.926  0.3383  0.2232 -0.0669
  848loPI   GL112889   2.124  12.413   5.222  0.0871  0.2100 -0.2826
  848loPI   GL212890   2.376  12.273   5.250  0.3706 -0.0857 -0.0280
  848loPI   C1A12891   1.949  12.476   5.588  0.1983 -0.3243  0.0832
  848loPI   C2A12892   1.865  12.271   5.850  0.3214 -0.1086  0.1257
  848loPI   C3A12893   1.866  12.329   6.346  0.1611 -0.1190  0.0022
  848loPI   C4A12894   1.984  12.254   6.760  0.1503 -0.0038  0.1767
  848loPI   C5A12895   1.966  12.242   7.216  0.0785 -0.0601 -0.2163
  848loPI   C6A12896   2.193  12.260   7.631  0.1749 -0.2792  0.1115
  848loPI   C1B12897   2.474  12.446   5.625 -0.3650 -0.3329  0.0005
  848loPI   C2B12898   2.301  12.437   6.045  0.1616  0.2012  0.0687
  848loPI   C3B12899   2.435  12.408   6.564  0.3525  0.1518  0.0707
  848loPI   C4B12900   2.422  12.352   6.959  0.2303 -0.1821 -0.1433
  849loPI    C112901   1.231  11.456   4.629  0.2348 -0.0789  0.3091
  849loPI    C212902   1.500  11.184   4.511  0.1239 -0.1034  0.1076
  849loPI    C312903   1.129  11.178   4.360  0.0305 -0.0248  0.3288
  849loPI   PO412904   1.299  11.506   4.957 -0.0341 -0.0189  0.1586
  849loPI   GL112905   1.544  11.465   5.362  0.1446  0.0219  0.1464
  849loPI   GL212906   1.482  11.762   5.320  0.0571 -0.1908  0.4084
  849loPI   C1A12907   1.449  11.379   5.785  0.1850 -0.2811  0.3146
  849loPI   C2A12908   1.518  11.404   6.146 -0.2333  0.2877 -0.0636
  849loPI   C3A12909   1.533  11.372   6.583  0.3674  0.3864  0.1166
  849loPI   C4A12910   1.523  11.336   7.057 -0.2100 -0.1983 -0.0149
  849loPI   C5A12911   1.330  11.560   7.289  0.2887 -0.1231  0.0825
  849loPI   C6A12912   0.974  11.791   7.356  0.1672  0.0976  0.2020
  849loPI   C1B12913   1.583  11.865   5.709 -0.2411 -0.1121 -0.3255
  849loPI   C2B12914   1.675  11.881   6.112 -0.0297 -0.2030  0.1704
  849loPI   C3B12915   1.698  11.884   6.511  0.2798  0.1901  0.0144
  849loPI   C4B12916   1.778  11.803   6.943  0.1628 -0.2898 -0.0271
  850loPI    C112917  12.279  16.560   5.709  0.0449  0.0744  0.0259
  850loPI    C212918  12.544  16.262   5.739  0.0016  0.0234 -0.0933
  850loPI    C312919  12.548  16.502   5.419 -0.0284  0.0881 -0.0454
  850loPI   PO412920  12.237  16.689   5.924  0.0436  0.0616 -0.1337
  850loPI   GL112921  12.170  16.795   6.288  0.0562 -0.0078 -0.1386
  850loPI   GL212922  11.870  16.954   6.371 -0.4279 -0.1459 -0.1527
  850loPI   C1A12923  12.329  16.580   6.609  0.1232 -0.0979 -0.0642
  850loPI   C2A12924  12.432  16.476   6.987 -0.2324  0.0022  0.0905
  850loPI   C3A12925  12.532  16.349   7.428  0.0556 -0.2124  0.0507
  850loPI   C4A12926  12.720  16.246   7.824 -0.3460  0.0607  0.1690
  850loPI   C5A12927  12.816  15.882   8.137 -0.0387  0.0174 -0.0206
  850loPI   C6A12928  13.023  15.448   8.311  0.0269  0.2185 -0.0750
  850loPI   C1B12929  11.983  16.815   6.892 -0.0777 -0.2649  0.0507
  850loPI   C2B12930  11.800  16.973   7.225 -0.2890 -0.0970 -0.1695
  850loPI   C3B12931  11.995  17.159   7.558  0.4802 -0.2530 -0.2493
  850loPI   C4B12932  12.177  17.193   7.965 -0.1176 -0.0885 -0.0690
  851loPI    C112933  18.350   4.115   4.839 -0.1038 -0.0893  0.1895
  851loPI    C212934  18.358   4.447   4.616 -0.4951 -0.0393  0.2430
  851loPI    C312935  18.020   4.234   4.646 -0.2051 -0.5405  0.0718
  851loPI   PO412936  18.474   4.109   4.961 -0.2286  0.1553  0.1042
  851loPI   GL112937  18.488   4.135   5.378 -0.0328  0.2853  0.1087
  851loPI   GL212938  18.311   4.285   5.624  0.0165  0.2168 -0.3043
  851loPI   C1A12939  18.802   4.066   5.682  0.0116 -0.0053  0.0308
  851loPI   C2A12940  18.903   3.937   6.093  0.0175 -0.1791  0.0659
  851loPI   C3A12941  19.028   3.779   6.468 -0.1111 -0.0680  0.0838
  851loPI   C4A12942  18.947   3.827   6.915  0.0843  0.0392  0.3133
  851loPI   C5A12943  18.667   3.667   7.220 -0.0176 -0.1961 -0.3152
  851loPI   C6A12944  18.429   3.871   7.572 -0.1764  0.1810 -0.0281
  851loPI   C1B12945  18.453   4.167   6.025 -0.0831 -0.0375 -0.1248
  851loPI   C2B12946  18.658   4.159   6.499 -0.3744  0.2677  0.0011
  851loPI   C3B12947  18.947   4.361   6.806 -0.3280 -0.1374  0.2526
  851loPI   C4B12948  18.896   4.580   7.190 -0.0105  0.0666  0.1364
  852loPI    C112949   8.930  10.271   5.392 -0.0305 -0.1790 -0.0220
  852loPI    C212950   8.997  10.401   5.019  0.0585 -0.1064  0.0190
  852loPI    C312951   8.665  10.512   5.213  0.1759  0.1341  0.0857
  852loPI   PO412952   9.143  10.319   5.506 -0.1524 -0.0061 -0.1245
  852loPI   GL112953   9.217  10.000   5.871  0.1395 -0.1600 -0.3039
  852loPI   GL212954   8.836  10.045   5.844  0.2604 -0.0847 -0.1072
  852loPI   C1A12955   9.257   9.926   6.231  0.1890  0.1434 -0.1532
  852loPI   C2A12956   9.375   9.909   6.597  0.2297  0.1447 -0.1426
  852loPI   C3A12957   9.344   9.861   7.053  0.4815 -0.0047  0.2527
  852loPI   C4A12958   9.378  10.093   7.463 -0.1350 -0.0756 -0.3119
  852loPI   C5A12959   9.700  10.265   7.741  0.3431  0.1771 -0.2153
  852loPI   C6A12960  10.046  10.546   7.762  0.1264 -0.0866 -0.0617
  852loPI   C1B12961   8.731  10.053   6.190 -0.0535  0.1309 -0.1933
  852loPI   C2B12962   8.593  10.232   6.601  0.2459 -0.0171 -0.0180
  852loPI   C3B12963   8.493  10.340   7.081  0.0619  0.2037  0.1973
  852loPI   C4B12964   8.467  10.453   7.498 -0.2150  0.1203  0.2290
  853loPI    C112965   0.916   0.644   4.814  0.2376  0.2056 -0.1007
  853loPI    C212966   1.208   0.468   5.024 -0.2156 -0.1141  0.2835
  853loPI    C312967   0.969   0.248   4.791  0.0752  0.1955 -0.3313
  853loPI   PO412968   0.823   0.778   4.947 -0.1582  0.0713 -0.1556
  853loPI   GL112969   0.970   0.750   5.346 -0.2230 -0.2510 -0.3252
  853loPI   GL212970   1.105   0.476   5.475  0.0366 -0.0495 -0.2442
  853loPI   C1A12971   0.899   0.883   5.718 -0.0470  0.1096 -0.2136
  853loPI   C2A12972   0.916   0.779   6.116 -0.0782  0.1775 -0.1585
  853loPI   C3A12973   0.892   0.742   6.603 -0.2825 -0.1402  0.0159
  853loPI   C4A12974   0.570   0.744   6.836 -0.0860  0.1493 -0.0996
  853loPI   C5A12975   0.320   0.720   7.214 -0.2001 -0.0536  0.0691
  853loPI   C6A12976   0.360   0.940   7.590  0.0099 -0.1375  0.2128
  853loPI   C1B12977   1.202   0.452   5.817 -0.0335 -0.1616  0.0723
  853loPI   C2B12978   1.229   0.431   6.325  0.2140  0.0226  0.1713
  853loPI   C3B12979   1.214   0.357   6.738 -0.1249  0.2559  0.0100
  853loPI   C4B12980   1.313   0.640   7.006  0.0320  0.1285  0.1167
  854loPI    C112981   2.792  13.427   4.722  0.1013  0.2709  0.0069
  854loPI    C212982   2.735  13.743   4.484  0.0857  0.1468 -0.1561
  854loPI    C312983   2.905  13.412   4.339  0.1742  0.1076  0.0339
  854loPI   PO412984   2.889  13.473   4.884 -0.3110 -0.2681 -0.2511
  854loPI   GL112985   2.924  13.370   5.365 -0.0243  0.0331 -0.0331
  854loPI   GL212986   3.236  13.481   5.347 -0.0616 -0.0944  0.1731
  854loPI   C1A12987   2.962  13.371   5.840  0.1053  0.0654  0.1065
  854loPI   C2A12988   2.919  13.391   6.280  0.1205 -0.2652 -0.2157
  854loPI   C3A12989   2.785  13.400   6.655 -0.1278 -0.0073 -0.2896
  854loPI   C4A12990   2.787  13.251   7.028  0.2212 -0.0822  0.0101
  854loPI   C5A12991   2.734  13.312   7.486  0.2308 -0.1441  0.0858
  854loPI   C6A12992   2.978  13.389   7.933  0.0279 -0.1499 -0.2030
  854loPI   C1B12993   3.427  13.436   5.746  0.2542  0.3319 -0.2430
  854loPI   C2B12994   3.421  13.490   6.262  0.2501 -0.1060 -0.1238
  854loPI   C3B12995   3.327  13.454   6.641  0.1875  0.0057  0.1789
  854loPI   C4B12996   3.167  13.636   6.965 -0.1299 -0.3097  0.1047
  855loPI    C112997   0.093   2.154   4.720 -0.2627  0.1462  0.0230
  855loPI    C212998   0.117   2.451   4.453  0.0913  0.1277  0.0291
  855loPI    C312999  -0.143   2.152   4.397  0.0982  0.1704 -0.2485
  855loPI   PO413000   0.065   2.271   4.964  0.2373 -0.1691 -0.1399
  855loPI   GL113001   0.014   2.254   5.481 -0.1414  0.1074 -0.1238
  855loPI   GL213002   0.229   2.192   5.427 -0.2616  0.1089  0.3397
  855loPI   C1A13003  -0.160   2.566   5.744 -0.1182 -0.1715 -0.2937
  855loPI   C2A13004  -0.319   2.783   6.085  0.2625 -0.1123 -0.0806
  855loPI   C3A13005  -0.589   3.002   6.464 -0.0160  0.2741  0.1225
  855loPI   C4A13006  -0.696   2.983   6.914 -0.1018 -0.0461 -0.2961
  855loPI   C5A13007  -1.038   2.855   7.252  0.3445  0.1730 -0.0050
  855loPI   C6A13008  -1.207   2.901   7.652 -0.1027  0.0455 -0.0009
  855loPI   C1B13009   0.419   2.132   5.727  0.1078  0.2137  0.0128
  855loPI   C2B13010   0.824   1.954   5.826  0.1347 -0.0304  0.0114
  855loPI   C3B13011   0.950   1.771   6.321  0.1598 -0.0786 -0.0546
  855loPI   C4B13012   1.128   1.618   6.662 -0.1466  0.3010 -0.0380
  856loPI    C113013   8.588   1.954   5.042  0.1364  0.2966  0.0101
  856loPI    C213014   8.765   2.287   4.908  0.0243  0.3293 -0.0575
  856loPI    C313015   8.538   2.068   4.662  0.3094  0.0596 -0.0863
  856loPI   PO413016   8.498   2.031   5.261 -0.0624  0.0933  0.1315
  856loPI   GL113017   8.405   1.838   5.665  0.0218  0.1058  0.0293
  856loPI   GL213018   8.053   1.802   5.569 -0.0519 -0.5033  0.1245
  856loPI   C1A13019   8.391   1.673   6.117 -0.3108 -0.2758 -0.1776
  856loPI   C2A13020   8.232   1.582   6.492  0.2577  0.2758  0.1727
  856loPI   C3A13021   8.193   1.713   6.907 -0.2857 -0.0871 -0.1289
  856loPI   C4A13022   8.153   1.782   7.321  0.2095 -0.0483 -0.0327
  856loPI   C5A13023   7.981   2.061   7.551 -0.0538  0.2221  0.0874
  856loPI   C6A13024   8.002   2.440   7.441 -0.1723  0.1580 -0.0360
  856loPI   C1B13025   7.916   1.763   5.959 -0.2848 -0.1362  0.2357
  856loPI   C2B13026   7.789   1.715   6.399 -0.0664  0.1245 -0.2339
  856loPI   C3B13027   7.698   1.849   6.778 -0.0196 -0.0306 -0.0398
  856loPI   C4B13028   7.642   1.747   7.204  0.0623  0.0370  0.5058
  857loPI    C113029   1.556  16.287   4.848 -0.0476 -0.1022  0.1511
  857loPI    C213030   1.315  16.578   4.980 -0.0952 -0.0632 -0.0189
  857loPI    C313031   1.359  16.518   4.587  0.2621  0.0042  0.0078
  857loPI   PO413032   1.522  16.113   5.127 -0.3148 -0.0462 -0.0078
  857loPI   GL113033   1.579  16.052   5.493 -0.0851 -0.2828  0.1252
  857loPI   GL213034   1.290  16.062   5.600 -0.1045  0.0081  0.0343
  857loPI   C1A13035   1.859  15.887   5.849 -0.2048 -0.0187  0.1565
  857loPI   C2A13036   1.718  15.979   6.305  0.0075  0.0473  0.2470
  857loPI   C3A13037   1.680  15.857   6.755  0.1666  0.1617  0.0796
  857loPI   C4A13038   1.666  15.615   7.133  0.2772  0.1848 -0.3624
  857loPI   C5A13039   1.715  15.362   7.525 -0.0833  0.3446  0.3216
  857loPI   C6A13040   1.793  15.199   7.989 -0.1074 -0.1025 -0.2549
  857loPI   C1B13041   1.267  16.062   6.074 -0.0276 -0.2843 -0.0164
  857loPI   C2B13042   1.249  16.036   6.540 -0.0315 -0.2739 -0.3863
  857loPI   C3B13043   1.202  15.892   7.049 -0.0865  0.0858  0.2921
  857loPI   C4B13044   1.300  15.669   7.439  0.0586  0.1549 -0.0596
  858loPI    C113045   4.539   0.476   4.729  0.3669  0.1112 -0.0520
  858loPI    C213046   4.533   0.141   4.510 -0.2147 -0.0578  0.2030
  858loPI    C313047   4.365   0.475   4.369  0.2795  0.1088 -0.0101
  858loPI   PO413048   4.734   0.347   4.997  0.1201  0.1052 -0.0632
  858loPI   GL113049   4.973   0.493   5.338 -0.3256  0.1191  0.0547
  858loPI   GL213050   4.775   0.764   5.253  0.0177 -0.1288  0.2908
  858loPI   C1A13051   5.049   0.379   5.681 -0.1967  0.1139  0.0831
  858loPI   C2A13052   5.003   0.388   6.029  0.0347  0.2107  0.0190
  858loPI   C3A13053   4.714   0.372   6.400 -0.0220 -0.0552 -0.0607
  858loPI   C4A13054   4.841   0.327   6.853 -0.0499 -0.1893  0.1847
  858loPI   C5A13055   4.835  -0.006   7.073  0.1222 -0.0876  0.2137
  858loPI   C6A13056   4.437  -0.213   7.171 -0.1026  0.0402 -0.2466
  858loPI   C1B13057   4.965   0.918   5.665 -0.0460 -0.0484  0.0126
  858loPI   C2B13058   4.777   0.809   6.126 -0.0248 -0.0934  0.2220
  858loPI   C3B13059   4.678   0.908   6.596 -0.2066  0.1976  0.1650
  858loPI   C4B13060   4.581   0.985   6.972 -0.0665  0.2432  0.0327
  859loPI    C113061   3.796  12.062   4.905  0.0067 -0.0421  0.1704
  859loPI    C213062   3.743  11.761   4.647 -0.0662  0.0430  0.0854
  859loPI    C313063   3.610  12.127   4.557  0.2524  0.1583  0.0737
  859loPI   PO413064   3.976  12.031   5.004 -0.0142 -0.0597  0.2645
  859loPI   GL113065   4.125  12.016   5.420  0.1676  0.1861 -0.0806
  859loPI   GL213066   4.047  11.678   5.385  0.0042  0.2872  0.1062
  859loPI   C1A13067   3.763  12.143   5.725 -0.2871  0.1568  0.0052
  859loPI   C2A13068   3.819  12.162   6.034  0.0307 -0.0550 -0.1394
  859loPI   C3A13069   3.787  12.172   6.426  0.0443 -0.2152  0.0438
  859loPI   C4A13070   3.829  12.290   6.826  0.0656 -0.2360  0.1469
  859loPI   C5A13071   3.842  12.345   7.225 -0.0706  0.0376 -0.0964
  859loPI   C6A13072   4.066  12.691   7.497  0.0002 -0.2190 -0.2523
  859loPI   C1B13073   4.090  11.741   5.839  0.0802  0.1649 -0.0182
  859loPI   C2B13074   4.120  11.760   6.244 -0.0603 -0.1909  0.1378
  859loPI   C3B13075   4.125  11.900   6.616 -0.0154 -0.0262 -0.1534
  859loPI   C4B13076   4.067  11.896   7.046 -0.0515 -0.0539 -0.1539
  860loPI    C113077   3.300   6.676   4.695 -0.1593  0.2711 -0.0727
  860loPI    C213078   3.099   6.371   4.533  0.0426  0.1160 -0.0353
  860loPI    C313079   2.986   6.747   4.458 -0.2581  0.0322 -0.0163
  860loPI   PO413080   3.309   6.615   5.015 -0.0966 -0.2949  0.1320
  860loPI   GL113081   3.404   6.367   5.329  0.1406 -0.2953  0.2841
  860loPI   GL213082   3.645   6.623   5.505  0.0861  0.0948 -0.1606
  860loPI   C1A13083   3.314   6.314   5.780  0.3641  0.0450  0.0230
  860loPI   C2A13084   3.205   6.158   6.182  0.1473  0.0821 -0.1539
  860loPI   C3A13085   3.176   6.144   6.589  0.1230  0.1165  0.2344
  860loPI   C4A13086   3.106   6.160   6.992  0.1184 -0.1370 -0.2407
  860loPI   C5A13087   3.396   6.063   7.361  0.2589 -0.0909 -0.1700
  860loPI   C6A13088   3.626   5.830   7.690  0.2544  0.0195 -0.0676
  860loPI   C1B13089   3.796   6.512   5.825  0.0696 -0.0136 -0.3307
  860loPI   C2B13090   3.855   6.448   6.243  0.0639  0.0410 -0.0113
  860loPI   C3B13091   3.666   6.255   6.527 -0.1705  0.1652 -0.0056
  860loPI   C4B13092   3.678   6.175   6.899 -0.0445 -0.2458 -0.1863
  861loPI    C113093   8.901  15.560   5.400 -0.3295 -0.0286  0.0547
  861loPI    C213094   9.039  15.507   5.028  0.0607 -0.1843  0.2165
  861loPI    C313095   8.672  15.656   5.086  0.0742  0.0368 -0.2268
  861loPI   PO413096   8.999  15.380   5.502  0.1521 -0.2685  0.0482
  861loPI   GL113097   9.281  15.311   5.831 -0.1611  0.0142  0.0759
  861loPI   GL213098   9.153  15.478   5.943  0.1268  0.0651 -0.3866
  861loPI   C1A13099   9.484  15.122   6.274  0.2055  0.3138 -0.0741
  861loPI   C2A13100   9.255  15.004   6.671  0.2295  0.1291 -0.2200
  861loPI   C3A13101   9.168  14.851   7.066  0.0770 -0.3213  0.1621
  861loPI   C4A13102   8.957  14.911   7.471 -0.0974  0.0383  0.1351
  861loPI   C5A13103   8.654  15.061   7.847  0.4119 -0.1498 -0.5775
  861loPI   C6A13104   8.694  15.453   8.020 -0.3047  0.3469 -0.1294
  861loPI   C1B13105   9.015  15.285   6.262  0.0036 -0.0324  0.0556
  861loPI   C2B13106   8.798  15.187   6.644  0.0559  0.1402 -0.2771
  861loPI   C3B13107   8.859  15.295   7.047 -0.0462 -0.0514  0.2294
  861loPI   C4B13108   8.700  15.439   7.428  0.1720  0.1465 -0.1351
  862loPI    C113109  15.608  11.613   5.540  0.0042  0.1959 -0.1035
  862loPI    C213110  15.603  11.294   5.299 -0.2499 -0.0800  0.2572
  862loPI    C313111  15.415  11.629   5.190  0.1541  0.0091 -0.1964
  862loPI   PO413112  15.958  11.531   5.568  0.2725  0.6498  0.0024
  862loPI   GL113113  16.134  11.497   6.030 -0.2436  0.1036  0.0010
  862loPI   GL213114  16.216  11.787   6.098 -0.0004 -0.3214 -0.2435
  862loPI   C1A13115  16.108  11.593   6.515 -0.0463  0.2101 -0.0210
  862loPI   C2A13116  16.209  11.527   7.048  0.0522  0.2736 -0.1683
  862loPI   C3A13117  16.294  11.651   7.468 -0.0521  0.0826  0.0772
  862loPI   C4A13118  16.570  11.472   7.753 -0.1149  0.0383  0.1539
  862loPI   C5A13119  16.666  11.578   8.199  0.1780  0.3333 -0.2009
  862loPI   C6A13120  16.574  11.871   8.433  0.3071 -0.0778  0.0532
  862loPI   C1B13121  16.143  12.091   6.304 -0.1800 -0.1132 -0.1214
  862loPI   C2B13122  16.071  12.208   6.723 -0.0720  0.0101  0.0124
  862loPI   C3B13123  15.933  12.049   7.122 -0.0979  0.1350  0.1186
  862loPI   C4B13124  15.753  11.755   7.392 -0.0838 -0.0614 -0.0342
  863loPI    C113125  17.292   6.249   5.033 -0.0575 -0.0682 -0.0667
  863loPI    C213126  17.220   5.912   4.831 -0.0953 -0.1419  0.0691
  863loPI    C313127  17.536   6.137   4.736 -0.1115 -0.1770 -0.0704
  863loPI   PO413128  17.324   6.204   5.318 -0.0455  0.1417 -0.3306
  863loPI   GL113129  17.386   6.324   5.811 -0.2234 -0.0800 -0.3607
  863loPI   GL213130  17.108   6.441   5.870 -0.0511 -0.1193  0.2242
  863loPI   C1A13131  17.419   6.062   6.128 -0.3088 -0.1548  0.0493
  863loPI   C2A13132  17.470   5.926   6.547 -0.1163  0.0094  0.0074
  863loPI   C3A13133  17.700   6.131   6.941 -0.0313 -0.2214  0.0324
  863loPI   C4A13134  18.025   6.077   7.121 -0.0108  0.0912  0.0231
  863loPI   C5A13135  18.313   5.725   7.145 -0.1555 -0.2323  0.0261
  863loPI   C6A13136  18.700   5.540   7.211 -0.3389 -0.1751  0.0688
  863loPI   C1B13137  17.000   6.472   6.345  0.1915  0.1913  0.0677
  863loPI   C2B13138  17.256   6.382   6.692 -0.0358 -0.1786  0.3672
  863loPI   C3B13139  17.325   6.240   7.218  0.1259  0.1133 -0.1309
  863loPI   C4B13140  17.662   6.175   7.502 -0.3874 -0.1140 -0.1558
  864loPI    C113141  10.040   6.497   5.150 -0.2374 -0.0294  0.1815
  864loPI    C213142  10.273   6.780   5.310 -0.1353 -0.0130  0.0072
  864loPI    C313143  10.192   6.786   4.919 -0.2695 -0.1306  0.0323
  864loPI   PO413144   9.881   6.449   5.356  0.1580  0.1343  0.1980
  864loPI   GL113145   9.741   6.244   5.630 -0.3688  0.2550 -0.2408
  864loPI   GL213146   9.937   6.067   5.824  0.1463  0.0222 -0.1545
  864loPI   C1A13147   9.691   6.424   6.057  0.2561 -0.0070 -0.2600
  864loPI   C2A13148   9.917   6.391   6.485  0.1051  0.1069 -0.0853
  864loPI   C3A13149  10.114   6.358   6.860  0.0099 -0.0220 -0.1056
  864loPI   C4A13150  10.138   6.089   7.184 -0.0145 -0.0054  0.0878
  864loPI   C5A13151  10.176   6.195   7.622 -0.1453 -0.1634  0.1398
  864loPI   C6A13152  10.055   6.334   7.997 -0.4835 -0.0834 -0.0117
  864loPI   C1B13153   9.893   5.933   6.213  0.0880  0.1729 -0.1347
  864loPI   C2B13154   9.884   5.542   6.377 -0.0527  0.1344  0.0281
  864loPI   C3B13155   9.592   5.403   6.475 -0.1093 -0.0696  0.3958
  864loPI   C4B13156   9.463   5.354   6.776  0.2596  0.1966 -0.1107
  865loPI    C113157  14.794   1.949   5.246  0.0699  0.1304 -0.0251
  865loPI    C213158  14.570   1.756   4.977  0.0001 -0.0276  0.1436
  865loPI    C313159  14.676   2.136   4.913 -0.1348 -0.0190 -0.0390
  865loPI   PO413160  14.794   1.906   5.501 -0.0124  0.1538  0.2341
  865loPI   GL113161  14.708   1.529   5.800  0.0942  0.0987 -0.3520
  865loPI   GL213162  14.903   1.400   5.813 -0.0580  0.0849 -0.0411
  865loPI   C1A13163  14.470   1.506   6.206  0.1088 -0.3474  0.2822
  865loPI   C2A13164  14.293   1.596   6.648 -0.1445 -0.3041 -0.0176
  865loPI   C3A13165  14.355   1.562   7.055 -0.0256 -0.1639 -0.0297
  865loPI   C4A13166  14.480   1.442   7.466  0.1196 -0.1559 -0.2173
  865loPI   C5A13167  14.692   1.154   7.730  0.0166  0.1984  0.0926
  865loPI   C6A13168  15.096   1.195   7.805  0.4068 -0.0173 -0.0252
  865loPI   C1B13169  14.942   1.308   6.174  0.1566  0.0887 -0.1136
  865loPI   C2B13170  15.187   1.471   6.492  0.0552  0.0695  0.0849
  865loPI   C3B13171  15.244   1.535   6.935  0.0987  0.3163 -0.1580
  865loPI   C4B13172  15.255   1.603   7.496  0.1165 -0.1532 -0.1266
  866loPI    C113173   3.367   1.257   4.748  0.0270  0.0338  0.2772
  866loPI    C213174   3.689   1.459   4.625 -0.1447 -0.0694 -0.3814
  866loPI    C313175   3.703   1.061   4.657 -0.0734 -0.0369  0.0510
  866loPI   PO413176   3.357   1.384   5.055  0.1381 -0.0157 -0.1185
  866loPI   GL113177   3.335   1.728   5.462 -0.0487 -0.0939  0.2487
  866loPI   GL213178   3.039   1.725   5.498  0.0752  0.1588  0.0225
  866loPI   C1A13179   3.234   1.446   5.916  0.1270  0.0033 -0.1656
  866loPI   C2A13180   3.147   1.306   6.367  0.0890  0.0868 -0.1921
  866loPI   C3A13181   3.293   1.301   6.724 -0.0495 -0.2452  0.2038
  866loPI   C4A13182   3.335   1.223   7.098 -0.2113  0.4111 -0.1045
  866loPI   C5A13183   3.349   1.519   7.494  0.1403 -0.0222  0.0753
  866loPI   C6A13184   3.281   1.959   7.410 -0.1156 -0.1550  0.0978
  866loPI   C1B13185   2.776   1.553   5.854 -0.0219  0.0394 -0.0297
  866loPI   C2B13186   2.760   1.122   5.898 -0.0093 -0.0790  0.0939
  866loPI   C3B13187   2.886   0.797   6.263 -0.1181 -0.1860 -0.0291
  866loPI   C4B13188   2.613   0.776   6.547 -0.3756 -0.3757  0.1157
  867loPI    C113189   8.330   4.979   5.210 -0.0684  0.0219 -0.0416
  867loPI    C213190   8.447   4.614   5.096  0.0187 -0.0158  0.1644
  867loPI    C313191   8.129   4.785   4.924  0.0654 -0.1274 -0.0356
  867loPI   PO413192   8.350   4.977   5.413  0.1243 -0.0199  0.0157
  867loPI   GL113193   8.287   4.715   5.687 -0.4357 -0.0278 -0.0496
  867loPI   GL213194   8.509   4.791   5.980  0.1429 -0.1122 -0.1847
  867loPI   C1A13195   7.875   4.707   5.913 -0.0247  0.1769  0.2689
  867loPI   C2A13196   7.685   4.728   6.361  0.3059 -0.0597  0.0346
  867loPI   C3A13197   7.517   4.780   6.674  0.2091  0.0080  0.1320
  867loPI   C4A13198   7.342   4.813   7.069 -0.1857  0.0098  0.1786
  867loPI   C5A13199   7.167   4.918   7.498  0.0262 -0.0624 -0.1582
  867loPI   C6A13200   6.936   4.889   7.968  0.0573  0.0631  0.3574
  867loPI   C1B13201   8.138   4.963   6.237  0.2763  0.2035 -0.0112
  867loPI   C2B13202   8.039   5.122   6.669  0.2740  0.0386 -0.0293
  867loPI   C3B13203   7.718   5.262   7.076 -0.2099  0.4363  0.3182
  867loPI   C4B13204   7.660   5.021   7.445 -0.1397 -0.2074  0.0222
  868loPI    C113205   8.727   7.474   5.085 -0.0625 -0.1829 -0.0290
  868loPI    C213206   8.762   7.558   4.696  0.0296 -0.1139 -0.0060
  868loPI    C313207   9.036   7.692   4.955 -0.0701 -0.0987  0.0922
  868loPI   PO413208   8.514   7.551   5.208  0.0736  0.2955  0.2680
  868loPI   GL113209   8.555   7.483   5.648 -0.1389 -0.1779  0.1215
  868loPI   GL213210   8.629   7.156   5.759 -0.1374 -0.3650  0.0788
  868loPI   C1A13211   8.869   7.509   6.069 -0.0986 -0.0073  0.0785
  868loPI   C2A13212   9.058   7.574   6.503 -0.0812 -0.2816 -0.0617
  868loPI   C3A13213   8.968   7.581   7.085 -0.0013  0.0543  0.1195
  868loPI   C4A13214   8.726   7.575   7.453 -0.0792 -0.1520 -0.2461
  868loPI   C5A13215   8.645   7.456   7.789  0.2349 -0.5844  0.4492
  868loPI   C6A13216   8.305   7.258   7.943 -0.2187  0.1085 -0.0943
  868loPI   C1B13217   8.525   7.066   6.197 -0.3462 -0.2061 -0.1407
  868loPI   C2B13218   8.706   6.679   6.384 -0.2680  0.1087  0.1157
  868loPI   C3B13219   8.938   6.445   6.829  0.1671  0.1604 -0.0506
  868loPI   C4B13220   9.097   6.174   7.175  0.0552  0.2353 -0.1614
  869loPI    C113221   4.290   8.360   4.981  0.0952 -0.0619 -0.0317
  869loPI    C213222   4.266   8.015   4.780  0.2289 -0.2384  0.2476
  869loPI    C313223   4.581   8.255   4.726 -0.0004 -0.0168 -0.1603
  869loPI   PO413224   4.287   8.231   5.247  0.1428 -0.0748 -0.1238
  869loPI   GL113225   4.222   8.254   5.806  0.0580 -0.0151  0.2202
  869loPI   GL213226   4.414   7.987   5.676 -0.0634  0.3637 -0.1080
  869loPI   C1A13227   4.150   8.180   6.183 -0.0590  0.0453  0.2777
  869loPI   C2A13228   4.266   8.130   6.621  0.0942 -0.1076  0.0621
  869loPI   C3A13229   4.159   7.962   6.962 -0.0708 -0.1121 -0.0132
  869loPI   C4A13230   3.976   8.006   7.411 -0.0655 -0.0996 -0.2419
  869loPI   C5A13231   3.919   8.089   7.868  0.1037  0.1123  0.1079
  869loPI   C6A13232   3.496   8.160   8.022  0.2698  0.0525  0.0142
  869loPI   C1B13233   4.606   7.673   5.976  0.3156 -0.1632 -0.2240
  869loPI   C2B13234   4.555   7.631   6.351 -0.1352  0.0884  0.0468
  869loPI   C3B13235   4.515   7.554   6.811 -0.3930 -0.1534 -0.1957
  869loPI   C4B13236   4.627   7.221   7.048 -0.0811  0.3138  0.2122
  870loPI    C113237  15.190   5.946   4.829 -0.1185  0.1885  0.0336
  870loPI    C213238  14.948   6.234   4.691  0.0652  0.2448 -0.1775
  870loPI    C313239  15.248   6.099   4.464  0.2755  0.2229  0.1065
  870loPI   PO413240  15.227   6.036   5.059 -0.0151  0.2988  0.2959
  870loPI   GL113241  15.099   6.021   5.498  0.1204 -0.1553 -0.2359
  870loPI   GL213242  14.843   5.889   5.738 -0.0610  0.1825  0.0424
  870loPI   C1A13243  15.247   6.325   5.846  0.1069 -0.0922  0.0969
  870loPI   C2A13244  15.614   6.485   6.047  0.0434 -0.1351  0.0517
  870loPI   C3A13245  15.699   6.442   6.515 -0.0587  0.1009 -0.2415
  870loPI   C4A13246  15.674   6.517   6.995  0.1361  0.2950  0.1166
  870loPI   C5A13247  15.907   6.254   7.434 -0.1916  0.2893  0.0677
  870loPI   C6A13248  16.024   5.907   7.615  0.1522  0.0482 -0.2348
  870loPI   C1B13249  14.887   6.096   6.057 -0.1934 -0.1904 -0.1064
  870loPI   C2B13250  15.141   6.361   6.346 -0.0036 -0.2328  0.2014
  870loPI   C3B13251  15.211   6.319   6.818 -0.0037 -0.1431  0.0930
  870loPI   C4B13252  15.247   6.211   7.242  0.0228  0.2078 -0.3529
  871loPI    C113253   2.390  10.984   4.917  0.2141 -0.1958 -0.3572
  871loPI    C213254   2.432  10.752   5.240 -0.2880 -0.0046 -0.1438
  871loPI    C313255   2.207  10.629   4.933 -0.1914  0.0129 -0.2222
  871loPI   PO413256   2.452  11.231   5.070 -0.2375  0.1539  0.3073
  871loPI   GL113257   2.629  11.575   5.506 -0.0807 -0.0770 -0.0360
  871loPI   GL213258   2.702  11.864   5.460  0.0481  0.1549  0.2877
  871loPI   C1A13259   2.589  11.648   5.949 -0.1258  0.0582  0.0978
  871loPI   C2A13260   2.553  11.592   6.330  0.0178 -0.2529 -0.5201
  871loPI   C3A13261   2.556  11.591   6.815 -0.0494 -0.1401 -0.0913
  871loPI   C4A13262   2.601  11.577   7.258  0.0873 -0.0568 -0.1825
  871loPI   C5A13263   2.836  11.607   7.627  0.1883  0.1908 -0.0108
  871loPI   C6A13264   3.266  11.759   7.510 -0.0331  0.0201 -0.3771
  871loPI   C1B13265   2.740  12.103   5.807 -0.1081  0.2043 -0.3870
  871loPI   C2B13266   2.731  12.045   6.264  0.1244  0.2190  0.0667
  871loPI   C3B13267   2.767  12.015   6.655 -0.1044 -0.1877 -0.0157
  871loPI   C4B13268   2.741  12.027   7.158 -0.1813 -0.0253  0.0006
  872loPI    C113269   8.167  10.201   5.174 -0.0279  0.1907 -0.0310
  872loPI    C213270   7.969   9.877   5.298  0.2928  0.0180  0.0411
  872loPI    C313271   7.819  10.241   5.366 -0.0261 -0.1097  0.0403
  872loPI   PO413272   8.416  10.052   5.277 -0.0833 -0.0847  0.0733
  872loPI   GL113273   8.421   9.866   5.631  0.1790 -0.0999  0.0361
  872loPI   GL213274   8.480   9.561   5.679  0.2446 -0.1218 -0.1025
  872loPI   C1A13275   8.031  10.028   5.827  0.0213  0.2678 -0.0230
  872loPI   C2A13276   7.619  10.153   6.068 -0.2198  0.3455 -0.3418
  872loPI   C3A13277   7.474  10.164   6.381 -0.2339 -0.1297 -0.2858
  872loPI   C4A13278   7.417  10.217   6.769  0.0362  0.1632 -0.1000
  872loPI   C5A13279   7.184  10.101   7.063  0.0168 -0.2971 -0.4674
  872loPI   C6A13280   6.952  10.175   7.308  0.2369  0.2228 -0.0125
  872loPI   C1B13281   8.366   9.672   6.120 -0.1146  0.1062  0.0549
  872loPI   C2B13282   8.366   9.778   6.581 -0.0837  0.2149  0.1506
  872loPI   C3B13283   8.286   9.872   6.999  0.0303 -0.0131 -0.0816
  872loPI   C4B13284   8.369   9.865   7.410 -0.1940  0.3182 -0.2125
  873loPI    C113285  11.216   5.575   5.087 -0.1872 -0.2237  0.0237
  873loPI    C213286  10.912   5.716   4.868  0.0430  0.0278 -0.1419
  873loPI    C313287  11.286   5.834   4.790  0.1724 -0.1830  0.1387
  873loPI   PO413288  11.161   5.572   5.375  0.1606 -0.0805 -0.2114
  873loPI   GL113289  11.393   5.481   5.726  0.2325  0.1525 -0.4032
  873loPI   GL213290  11.152   5.353   5.859  0.1035  0.0403 -0.1545
  873loPI   C1A13291  11.394   5.525   6.227 -0.0614  0.3233  0.2135
  873loPI   C2A13292  11.239   5.873   6.548  0.0628 -0.2412  0.0785
  873loPI   C3A13293  11.082   5.861   6.954  0.1485  0.2788  0.1134
  873loPI   C4A13294  11.035   5.934   7.406  0.0333 -0.0279 -0.1445
  873loPI   C5A13295  10.976   5.630   7.675 -0.1718 -0.1681 -0.0639
  873loPI   C6A13296  10.697   5.370   7.829  0.2469 -0.0905  0.3508
  873loPI   C1B13297  10.906   5.317   6.244 -0.0431 -0.2265 -0.2857
  873loPI   C2B13298  10.875   5.103   6.588 -0.2720  0.2186 -0.2503
  873loPI   C3B13299  10.996   5.130   7.002  0.2223 -0.2516 -0.1042
  873loPI   C4B13300  10.888   5.484   7.199  0.1287  0.3575  0.2488
  874loPI    C113301   6.801   1.570   5.056 -0.0182 -0.1531  0.1603
  874loPI    C213302   7.146   1.747   4.956 -0.0747 -0.1123  0.0352
  874loPI    C313303   7.018   1.427   4.751 -0.2296  0.0191 -0.0754
  874loPI   PO413304   6.803   1.688   5.331 -0.1378 -0.3620 -0.2112
  874loPI   GL113305   7.125   1.649   5.527  0.4018 -0.1205  0.2562
  874loPI   GL213306   6.915   1.665   5.791  0.0542 -0.0332 -0.2170
  874loPI   C1A13307   7.147   1.252   5.823 -0.0486 -0.1838  0.2619
  874loPI   C2A13308   7.015   1.060   6.198 -0.0064  0.3236 -0.0762
  874loPI   C3A13309   6.899   1.077   6.642  0.1699  0.2096 -0.1433
  874loPI   C4A13310   6.935   1.158   7.081  0.2250  0.1184 -0.0160
  874loPI   C5A13311   6.862   1.062   7.524 -0.1287 -0.1035  0.0691
  874loPI   C6A13312   7.081   0.849   7.805 -0.0813 -0.0850  0.3631
  874loPI   C1B13313   6.924   1.593   6.232  0.0130  0.0208 -0.1852
  874loPI   C2B13314   6.892   1.616   6.708  0.2612  0.1563  0.0940
  874loPI   C3B13315   6.786   1.631   7.200 -0.0203 -0.0579  0.1028
  874loPI   C4B13316   6.920   1.597   7.689 -0.0657 -0.2114  0.1007
  875loPI    C113317   7.459   7.979   4.921  0.0222 -0.0306  0.0699
  875loPI    C213318   7.365   7.640   4.732 -0.1814  0.0078  0.0995
  875loPI    C313319   7.688   7.848   4.622  0.0809 -0.3181  0.2371
  875loPI   PO413320   7.379   7.841   5.267  0.2186 -0.1972  0.0529
  875loPI   GL113321   7.426   7.920   5.738 -0.0494  0.2457 -0.1309
  875loPI   GL213322   7.108   7.729   5.705  0.1272  0.0339 -0.2217
  875loPI   C1A13323   7.669   7.887   6.181 -0.1020  0.2726  0.0693
  875loPI   C2A13324   7.721   8.202   6.425  0.2745 -0.1951  0.1197
  875loPI   C3A13325   7.652   8.149   6.887 -0.3937  0.1528  0.1876
  875loPI   C4A13326   7.464   8.187   7.237  0.3591  0.3086 -0.1971
  875loPI   C5A13327   7.443   8.201   7.779 -0.0907  0.2077  0.1406
  875loPI   C6A13328   7.620   8.321   8.137  0.0086 -0.1382  0.2080
  875loPI   C1B13329   7.303   7.492   6.132  0.1451  0.0863  0.1512
  875loPI   C2B13330   7.559   7.598   6.526  0.4131  0.4845 -0.0268
  875loPI   C3B13331   7.457   7.633   6.918 -0.1485 -0.1557 -0.0675
  875loPI   C4B13332   7.317   7.750   7.339 -0.0727 -0.3819 -0.1011
  876loPI    C113333   2.473  14.452   4.589  0.2586  0.0084 -0.0626
  876loPI    C213334   2.835  14.286   4.551  0.2596  0.0339 -0.1687
  876loPI    C313335   2.765  14.649   4.399  0.2378  0.1023  0.0023
  876loPI   PO413336   2.434  14.506   4.862  0.2173 -0.2983  0.0867
  876loPI   GL113337   2.596  14.298   5.153 -0.1362  0.0777 -0.0433
  876loPI   GL213338   2.311  14.162   5.257 -0.3111  0.0801 -0.0116
  876loPI   C1A13339   2.736  14.366   5.530 -0.1689  0.0174 -0.0670
  876loPI   C2A13340   2.893  14.371   5.925 -0.1489 -0.1729 -0.4603
  876loPI   C3A13341   2.771  14.339   6.350 -0.1705 -0.0683 -0.0976
  876loPI   C4A13342   2.767  14.281   6.744  0.0831 -0.0169 -0.1040
  876loPI   C5A13343   2.907  14.184   7.211  0.4331 -0.2521  0.2125
  876loPI   C6A13344   3.234  14.252   7.560  0.0804 -0.3904  0.2454
  876loPI   C1B13345   2.346  14.297   5.811  0.2717  0.2061  0.1019
  876loPI   C2B13346   2.252  14.621   6.096  0.3036 -0.1312  0.3569
  876loPI   C3B13347   2.191  15.071   6.189 -0.1630 -0.1119 -0.3269
  876loPI   C4B13348   2.321  15.299   6.508 -0.3868 -0.0282  0.2181
  877loPI    C113349  16.936   5.365   4.980 -0.4007  0.0221 -0.0960
  877loPI    C213350  17.156   5.463   4.660 -0.1847  0.3728  0.1515
  877loPI    C313351  16.837   5.225   4.619  0.1045  0.0390 -0.2498
  877loPI   PO413352  17.136   5.323   5.155  0.0482  0.2759 -0.0242
  877loPI   GL113353  17.240   5.016   5.457  0.0332 -0.2721  0.2305
  877loPI   GL213354  16.904   5.122   5.576 -0.0050  0.0312 -0.1773
  877loPI   C1A13355  17.270   5.358   5.848 -0.0678 -0.1729 -0.0651
  877loPI   C2A13356  17.258   5.607   6.183  0.1213  0.1586  0.1355
  877loPI   C3A13357  17.253   5.509   6.639  0.1433 -0.0497 -0.4241
  877loPI   C4A13358  17.181   5.320   7.051 -0.2599  0.2221 -0.3301
  877loPI   C5A13359  17.099   5.345   7.457 -0.2696 -0.0282  0.2255
  877loPI   C6A13360  16.953   5.123   7.720 -0.1482 -0.1622 -0.1656
  877loPI   C1B13361  17.115   4.767   5.834 -0.1817  0.4176  0.3296
  877loPI   C2B13362  16.916   4.614   6.297  0.3352  0.1061  0.3720
  877loPI   C3B13363  16.691   4.488   6.633 -0.0644  0.3753  0.0271
  877loPI   C4B13364  16.464   4.698   6.916  0.0769  0.2046  0.2960
  878loPI    C113365  17.051  11.646   5.257 -0.0387  0.1104  0.0922
  878loPI    C213366  16.730  11.878   5.203  0.0046  0.0662 -0.3953
  878loPI    C313367  17.095  12.041   5.206 -0.0125  0.1126  0.1307
  878loPI   PO413368  16.934  11.445   5.479 -0.1852 -0.0268  0.0421
  878loPI   GL113369  17.123  11.509   5.935 -0.1943 -0.0592 -0.3572
  878loPI   GL213370  16.739  11.476   5.922  0.1322  0.0499  0.2371
  878loPI   C1A13371  17.433  11.615   6.360 -0.1183  0.0960 -0.0097
  878loPI   C2A13372  17.638  11.463   6.660 -0.1314 -0.1429 -0.1050
  878loPI   C3A13373  17.407  11.579   6.971 -0.1445 -0.1594  0.0982
  878loPI   C4A13374  17.246  11.699   7.320 -0.0859 -0.0094  0.1797
  878loPI   C5A13375  17.147  11.406   7.647  0.5006  0.1445  0.0321
  878loPI   C6A13376  17.050  11.690   7.910  0.1487  0.0176 -0.3309
  878loPI   C1B13377  16.634  11.469   6.355  0.0435 -0.1427 -0.0301
  878loPI   C2B13378  16.566  11.815   6.656 -0.1486 -0.3522 -0.1397
  878loPI   C3B13379  16.425  11.980   7.042  0.0217 -0.2035  0.1302
  878loPI   C4B13380  16.278  12.124   7.489  0.0501  0.0061 -0.2774
  879loPI    C113381  13.779  12.257   5.216 -0.4285  0.0785  0.0144
  879loPI    C213382  13.702  12.397   4.849  0.0697 -0.1185 -0.1734
  879loPI    C313383  13.994  12.129   4.904 -0.0589 -0.1609  0.3579
  879loPI   PO413384  13.559  12.187   5.294 -0.2567 -0.0616 -0.0892
  879loPI   GL113385  13.436  11.949   5.649 -0.1103  0.0639 -0.2712
  879loPI   GL213386  13.056  11.764   5.649 -0.2384  0.0795 -0.0560
  879loPI   C1A13387  13.736  11.996   5.994  0.0827 -0.0196  0.0797
  879loPI   C2A13388  13.638  11.831   6.458 -0.2719 -0.1206  0.3552
  879loPI   C3A13389  13.434  11.974   6.833 -0.0243  0.1298  0.0206
  879loPI   C4A13390  13.459  11.815   7.166 -0.0826 -0.4305  0.1235
  879loPI   C5A13391  13.507  11.523   7.583 -0.1499 -0.0414 -0.0266
  879loPI   C6A13392  13.467  11.331   7.972 -0.0932  0.3131 -0.0546
  879loPI   C1B13393  12.985  11.657   6.017 -0.1523 -0.0408  0.1012
  879loPI   C2B13394  12.778  11.560   6.420 -0.0846  0.3221 -0.0673
  879loPI   C3B13395  12.584  11.606   6.964  0.3967 -0.0354  0.0887
  879loPI   C4B13396  12.601  11.510   7.484 -0.1627 -0.0183  0.1774
  880loPI    C113397  16.683  16.361   5.454 -0.4464 -0.0282 -0.0081
  880loPI    C213398  16.751  16.523   5.094  0.2904 -0.1491  0.0607
  880loPI    C313399  16.671  16.132   5.126  0.0685 -0.1085  0.0213
  880loPI   PO413400  16.523  16.416   5.570 -0.2342 -0.0580 -0.0298
  880loPI   GL113401  16.282  16.420   5.906 -0.0829 -0.0130 -0.0209
  880loPI   GL213402  15.949  16.329   5.863 -0.1928 -0.2377  0.1137
  880loPI   C1A13403  16.507  16.434   6.227 -0.5215 -0.2720 -0.1452
  880loPI   C2A13404  16.527  16.474   6.627  0.0975  0.0968  0.0965
  880loPI   C3A13405  16.873  16.599   6.917  0.0633  0.2532 -0.0279
  880loPI   C4A13406  16.905  16.479   7.262 -0.1805 -0.1928  0.0992
  880loPI   C5A13407  17.018  16.689   7.663 -0.1869 -0.1424  0.2472
  880loPI   C6A13408  17.148  16.943   7.975 -0.1086 -0.0123  0.1440
  880loPI   C1B13409  15.949  16.234   6.285  0.2383 -0.0563  0.2499
  880loPI   C2B13410  16.030  16.259   6.748 -0.0082  0.0772 -0.0572
  880loPI   C3B13411  15.985  16.306   7.118  0.4123  0.1136 -0.1646
  880loPI   C4B13412  15.695  16.373   7.427 -0.0068  0.0994  0.1366
  881loPI    C113413   9.961   7.366   5.337  0.0741 -0.0235  0.1012
  881loPI    C213414  10.150   7.263   4.999  0.0275 -0.0654  0.0878
  881loPI    C313415   9.992   7.629   5.037  0.0699 -0.0464  0.0807
  881loPI   PO413416  10.055   7.255   5.522 -0.2971 -0.0129  0.1555
  881loPI   GL113417  10.187   6.964   5.824  0.1672 -0.0620  0.0372
  881loPI   GL213418   9.944   6.770   5.707 -0.4207 -0.1352 -0.1470
  881loPI   C1A13419  10.217   6.899   6.336  0.0230 -0.0536 -0.2755
  881loPI   C2A13420   9.975   6.850   6.731  0.0816 -0.1164 -0.1044
  881loPI   C3A13421   9.773   6.653   7.079  0.1881  0.0349 -0.0538
  881loPI   C4A13422   9.269   6.611   7.215  0.0420 -0.0263  0.0898
  881loPI   C5A13423   8.969   6.583   7.546 -0.3341 -0.1588 -0.1546
  881loPI   C6A13424   8.825   6.925   7.907  0.1503 -0.1563  0.0993
  881loPI   C1B13425  10.204   6.488   6.000 -0.1406  0.2750  0.0666
  881loPI   C2B13426  10.380   6.415   6.380  0.0106  0.1106  0.2797
  881loPI   C3B13427  10.588   6.147   6.738 -0.1271 -0.1799 -0.0342
  881loPI   C4B13428  10.664   6.077   7.171 -0.0667  0.1246  0.1607
  882loPI    C113429  16.460  17.042   5.206 -0.1751  0.3724  0.3403
  882loPI    C213430  16.750  16.919   5.453 -0.0129 -0.1984 -0.1133
  882loPI    C313431  16.843  17.083   5.100 -0.2469  0.1298 -0.0280
  882loPI   PO413432  16.338  17.235   5.288 -0.0405 -0.0411  0.0555
  882loPI   GL113433  16.273  17.134   5.849 -0.2533  0.0634 -0.0470
  882loPI   GL213434  16.468  16.888   5.854 -0.0488 -0.1415  0.2345
  882loPI   C1A13435  16.179  17.292   6.248  0.1725 -0.2445 -0.1967
  882loPI   C2A13436  16.186  17.249   6.665 -0.1239 -0.2197 -0.1331
  882loPI   C3A13437  16.209  17.281   7.109  0.1170  0.0065 -0.1095
  882loPI   C4A13438  16.242  17.265   7.476  0.1303 -0.2821  0.0619
  882loPI   C5A13439  16.071  17.643   7.725  0.1896  0.1531 -0.3373
  882loPI   C6A13440  16.043  17.843   8.144  0.1878 -0.1067  0.1359
  882loPI   C1B13441  16.622  17.053   6.278 -0.2046  0.2705 -0.0359
  882loPI   C2B13442  16.589  17.001   6.698  0.3489  0.0954  0.0181
  882loPI   C3B13443  16.502  16.954   7.014 -0.0794  0.0170  0.2337
  882loPI   C4B13444  16.649  16.945   7.440 -0.2846 -0.0226  0.1350
  883loPI    C113445  12.584   5.454   5.040  0.0597  0.2058 -0.2181
  883loPI    C213446  12.197   5.556   5.034  0.0168  0.0614 -0.0147
  883loPI    C313447  12.355   5.351   4.729 -0.1463 -0.1575  0.0451
  883loPI   PO413448  12.586   5.436   5.446 -0.1130 -0.2971 -0.1465
  883loPI   GL113449  12.505   5.251   5.772  0.1001  0.0053 -0.1744
  883loPI   GL213450  12.214   5.243   5.905 -0.1487 -0.4923 -0.2144
  883loPI   C1A13451  12.724   5.447   6.163 -0.3313  0.3897 -0.1079
  883loPI   C2A13452  12.705   5.677   6.501 -0.0357 -0.0302 -0.1786
  883loPI   C3A13453  12.703   5.749   6.957  0.0128  0.5263  0.0522
  883loPI   C4A13454  12.642   5.721   7.352  0.0734  0.0667 -0.0035
  883loPI   C5A13455  13.016   5.842   7.589  0.1062 -0.0724 -0.1103
  883loPI   C6A13456  13.482   5.955   7.481  0.1135 -0.2150 -0.0838
  883loPI   C1B13457  12.391   5.091   6.258  0.2102 -0.0320 -0.3982
  883loPI   C2B13458  12.462   5.013   6.691  0.2501  0.0911  0.0637
  883loPI   C3B13459  12.395   4.814   7.230  0.1020  0.0260  0.0196
  883loPI   C4B13460  12.631   4.728   7.469  0.1725 -0.1013  0.4245
  884loPI    C113461   3.026   7.528   4.622  0.1060 -0.2012 -0.0146
  884loPI    C213462   2.978   7.252   4.337 -0.0746  0.0795 -0.2623
  884loPI    C313463   2.927   7.639   4.251  0.0197  0.1807  0.1181
  884loPI   PO413464   2.878   7.480   4.862  0.0425 -0.2740 -0.0429
  884loPI   GL113465   2.932   7.569   5.242 -0.1837  0.1130  0.3650
  884loPI   GL213466   3.067   7.832   5.385 -0.2401  0.0356  0.2931
  884loPI   C1A13467   2.771   7.496   5.667  0.1158  0.0624 -0.0467
  884loPI   C2A13468   2.765   7.551   6.042 -0.1507  0.0753  0.0753
  884loPI   C3A13469   2.798   7.448   6.472 -0.1251  0.2370  0.1528
  884loPI   C4A13470   2.800   7.481   6.995 -0.1720 -0.0470  0.1018
  884loPI   C5A13471   2.899   7.565   7.379  0.1008 -0.3496 -0.1814
  884loPI   C6A13472   3.197   7.580   7.714 -0.1348 -0.4087 -0.3270
  884loPI   C1B13473   2.986   7.910   5.836 -0.0511  0.2430 -0.0148
  884loPI   C2B13474   3.094   7.873   6.268  0.1033  0.3001 -0.1815
  884loPI   C3B13475   3.053   7.832   6.737  0.0983 -0.2939  0.2714
  884loPI   C4B13476   3.073   7.915   7.131 -0.0197 -0.2510 -0.1965
  885loPI    C113477   2.374   2.964   4.895 -0.0628  0.3219  0.1762
  885loPI    C213478   2.395   2.933   4.497 -0.2131  0.1352  0.1813
  885loPI    C313479   2.089   3.126   4.667 -0.1142  0.2727  0.2053
  885loPI   PO413480   2.547   3.058   5.010  0.2761  0.2146 -0.0425
  885loPI   GL113481   2.666   3.105   5.373  0.0813  0.2176 -0.0247
  885loPI   GL213482   2.769   2.932   5.499  0.3716  0.1709  0.0806
  885loPI   C1A13483   2.814   3.301   5.804 -0.1274  0.0658  0.1778
  885loPI   C2A13484   3.145   3.339   6.100 -0.1281  0.0441 -0.0991
  885loPI   C3A13485   3.312   3.725   6.274  0.1423  0.3806 -0.0347
  885loPI   C4A13486   3.499   4.022   6.556  0.0599  0.0499 -0.1472
  885loPI   C5A13487   3.756   4.236   6.887 -0.0405 -0.0694 -0.0052
  885loPI   C6A13488   4.103   4.292   7.222  0.0270  0.0482 -0.0816
  885loPI   C1B13489   2.458   2.988   5.866  0.1617  0.0598 -0.0264
  885loPI   C2B13490   2.283   2.855   6.191 -0.2139  0.1499 -0.3722
  885loPI   C3B13491   1.974   2.576   6.468 -0.2175 -0.0191  0.2447
  885loPI   C4B13492   1.825   2.578   6.840  0.2603  0.1784  0.1413
  886loPI    C113493   6.902  17.720   5.261 -0.0211 -0.0302 -0.0388
  886loPI    C213494   7.129  17.739   4.932  0.2184 -0.0804  0.1212
  886loPI    C313495   6.932  17.402   5.020 -0.0077 -0.0021 -0.0741
  886loPI   PO413496   7.024  17.819   5.517 -0.2018  0.0109 -0.0773
  886loPI   GL113497   6.898  17.772   5.967 -0.2487 -0.0510  0.0150
  886loPI   GL213498   6.665  18.016   5.829 -0.0674 -0.2073  0.3395
  886loPI   C1A13499   6.878  17.839   6.446 -0.2869  0.0311 -0.2620
  886loPI   C2A13500   6.850  17.840   6.805  0.4787 -0.1255 -0.0497
  886loPI   C3A13501   6.759  17.859   7.164 -0.2164  0.2894  0.3061
  886loPI   C4A13502   6.803  17.790   7.653  0.2764 -0.0838 -0.2830
  886loPI   C5A13503   6.919  17.811   8.048  0.2792  0.0139 -0.1082
  886loPI   C6A13504   7.209  17.566   8.330  0.0208  0.1390  0.0997
  886loPI   C1B13505   6.480  17.940   6.175  0.0823 -0.1156 -0.3015
  886loPI   C2B13506   6.304  18.014   6.598 -0.2190 -0.3053 -0.1044
  886loPI   C3B13507   6.271  17.975   6.988 -0.1617 -0.0209  0.0801
  886loPI   C4B13508   6.289  18.090   7.488  0.1247  0.0168 -0.1177
  887loPI    C113509   2.663  12.136   4.606 -0.0323 -0.1262  0.0763
  887loPI    C213510   2.278  12.174   4.710 -0.0216 -0.0752  0.0976
  887loPI    C313511   2.459  12.464   4.503 -0.0937 -0.2554 -0.2250
  887loPI   PO413512   2.832  12.097   4.810 -0.0284 -0.2736 -0.0148
  887loPI   GL113513   2.919  12.345   5.302  0.0063 -0.0760  0.2019
  887loPI   GL213514   3.063  12.128   5.225  0.0509 -0.3803 -0.2590
  887loPI   C1A13515   3.000  12.509   5.764  0.1400 -0.2014 -0.0417
  887loPI   C2A13516   2.898  12.509   6.151  0.1534  0.4161  0.1959
  887loPI   C3A13517   2.974  12.573   6.521 -0.2108 -0.1677 -0.3994
  887loPI   C4A13518   3.049  12.482   6.921  0.0013 -0.0366  0.1647
  887loPI   C5A13519   3.315  12.301   7.261  0.2618  0.0184 -0.0238
  887loPI   C6A13520   3.271  12.508   7.704  0.0556  0.0255  0.1662
  887loPI   C1B13521   3.238  12.127   5.627  0.1258  0.3049  0.0674
  887loPI   C2B13522   3.341  12.198   5.988  0.1794 -0.3148  0.1253
  887loPI   C3B13523   3.257  12.122   6.337  0.3124  0.0333  0.0711
  887loPI   C4B13524   3.337  12.133   6.759  0.0174 -0.3663 -0.0396
  888loPI    C113525   4.341   6.235   4.520 -0.0444 -0.0005 -0.0509
  888loPI    C213526   4.129   6.344   4.199 -0.1223 -0.0091 -0.0027
  888loPI    C313527   4.522   6.277   4.166 -0.0828  0.2349 -0.0442
  888loPI   PO413528   4.273   6.389   4.785 -0.0272 -0.0563 -0.0190
  888loPI   GL113529   4.323   6.386   5.226 -0.1976 -0.0404  0.0340
  888loPI   GL213530   4.127   6.626   5.321  0.1116  0.3800 -0.0047
  888loPI   C1A13531   4.262   6.290   5.622 -0.1632 -0.1280 -0.0227
  888loPI   C2A13532   4.288   6.265   6.157 -0.0326 -0.0736  0.0510
  888loPI   C3A13533   4.206   6.211   6.648  0.0466  0.2748  0.1508
  888loPI   C4A13534   4.244   6.054   6.994 -0.1210  0.2264  0.0605
  888loPI   C5A13535   4.528   5.893   7.329 -0.1155  0.1161  0.2627
  888loPI   C6A13536   4.575   5.453   7.546 -0.1432 -0.1873 -0.0604
  888loPI   C1B13537   4.124   6.892   5.630 -0.0214  0.0500 -0.1339
  888loPI   C2B13538   4.175   6.791   6.032  0.0247  0.1638 -0.0230
  888loPI   C3B13539   4.291   6.624   6.485 -0.3382 -0.0876 -0.1876
  888loPI   C4B13540   4.658   6.320   6.496 -0.3226  0.1273  0.3326
  889loPI    C113541  14.129  15.334   5.399  0.0709  0.3601  0.2613
  889loPI    C213542  13.951  15.425   5.053  0.2084 -0.3687 -0.0199
  889loPI    C313543  13.986  15.702   5.339 -0.2410  0.1422 -0.4375
  889loPI   PO413544  14.001  15.126   5.586 -0.3202  0.3093  0.3286
  889loPI   GL113545  14.003  14.885   6.009  0.4736 -0.2439 -0.3065
  889loPI   GL213546  13.857  14.675   6.117  0.0155 -0.3042  0.0568
  889loPI   C1A13547  14.292  14.965   6.406 -0.0753 -0.0841 -0.1999
  889loPI   C2A13548  14.272  14.784   6.833 -0.1707 -0.0346 -0.1380
  889loPI   C3A13549  14.262  15.030   7.210  0.2494 -0.0610 -0.0966
  889loPI   C4A13550  14.518  15.248   7.460  0.1650 -0.0419 -0.0556
  889loPI   C5A13551  14.834  15.322   7.697 -0.0238  0.1837  0.0571
  889loPI   C6A13552  15.351  15.352   7.725  0.0962 -0.0321 -0.2329
  889loPI   C1B13553  13.991  14.548   6.507 -0.0456  0.2537 -0.4306
  889loPI   C2B13554  13.865  14.540   6.895 -0.1662 -0.2842  0.1073
  889loPI   C3B13555  13.944  14.659   7.275 -0.0248 -0.0525 -0.1216
  889loPI   C4B13556  14.073  14.837   7.664 -0.0462 -0.0382 -0.0633
  890loPI    C113557   5.549   5.618   5.025 -0.1272 -0.1973 -0.1522
  890loPI    C213558   5.604   5.976   4.855 -0.1982 -0.0404  0.1476
  890loPI    C313559   5.564   5.650   4.627 -0.0209  0.1251 -0.1256
  890loPI   PO413560   5.420   5.669   5.193  0.1616  0.2522  0.2133
  890loPI   GL113561   5.418   5.758   5.586  0.2318  0.2129  0.3812
  890loPI   GL213562   5.169   5.834   5.601 -0.2144  0.2566 -0.1205
  890loPI   C1A13563   5.614   5.686   5.911  0.0426  0.0965  0.1529
  890loPI   C2A13564   5.529   5.729   6.349  0.0576 -0.1718  0.0458
  890loPI   C3A13565   5.526   5.810   6.758  0.1658 -0.1090  0.0993
  890loPI   C4A13566   5.237   5.864   7.161 -0.1062 -0.2769 -0.1002
  890loPI   C5A13567   4.978   6.054   7.416 -0.0691  0.0177 -0.1730
  890loPI   C6A13568   4.653   5.998   7.774  0.1063  0.1146  0.4959
  890loPI   C1B13569   5.180   5.937   6.045  0.2697  0.0570  0.0321
  890loPI   C2B13570   5.045   5.941   6.454 -0.2851  0.0502 -0.0799
  890loPI   C3B13571   5.094   6.144   6.730  0.1067 -0.0035 -0.3272
  890loPI   C4B13572   4.719   6.179   6.951  0.3903 -0.0423  0.2123
  891loPI    C113573  17.097   0.081   4.841 -0.1176  0.1939  0.1487
  891loPI    C213574  17.309  -0.142   4.585  0.0167  0.1332  0.3113
  891loPI    C313575  16.909  -0.148   4.571  0.0195 -0.0882  0.2882
  891loPI   PO413576  17.127   0.005   5.071 -0.0486  0.2744 -0.0017
  891loPI   GL113577  16.916   0.057   5.402 -0.1935  0.2419  0.2513
  891loPI   GL213578  17.217   0.217   5.527  0.0194 -0.3488  0.0173
  891loPI   C1A13579  16.801   0.186   5.906  0.2216  0.0405  0.2248
  891loPI   C2A13580  16.751  -0.002   6.303  0.2716  0.0334 -0.1322
  891loPI   C3A13581  16.737   0.106   6.740 -0.1053 -0.1078  0.0841
  891loPI   C4A13582  16.895   0.125   7.173  0.2650 -0.3413  0.0612
  891loPI   C5A13583  17.021  -0.192   7.318 -0.0830  0.1235 -0.1948
  891loPI   C6A13584  17.081  -0.534   7.554  0.0048 -0.0251 -0.0012
  891loPI   C1B13585  17.336   0.355   5.900  0.3601  0.0310 -0.2499
  891loPI   C2B13586  17.559   0.490   6.202  0.3818  0.3830  0.0361
  891loPI   C3B13587  17.814   0.686   6.468  0.1753  0.1035 -0.1858
  891loPI   C4B13588  17.970   0.822   6.933 -0.0621  0.1531  0.0279
  892loPI    C113589  16.313  15.272   4.961 -0.0002 -0.0110  0.1215
  892loPI    C213590  16.281  15.004   4.666 -0.0530  0.0586  0.0635
  892loPI    C313591  16.379  15.382   4.583  0.0697  0.0464  0.1503
  892loPI   PO413592  16.139  15.159   5.148  0.0377 -0.2937 -0.1493
  892loPI   GL113593  16.159  15.139   5.599  0.3216 -0.0881  0.1897
  892loPI   GL213594  15.940  15.315   5.661  0.0520 -0.0036 -0.0689
  892loPI   C1A13595  16.178  14.979   5.987 -0.1025 -0.0655  0.2404
  892loPI   C2A13596  16.156  14.909   6.333 -0.2161  0.3651 -0.1803
  892loPI   C3A13597  16.124  14.771   6.799 -0.0286 -0.2554  0.1858
  892loPI   C4A13598  16.219  14.886   7.210 -0.2397 -0.0598 -0.0293
  892loPI   C5A13599  16.099  14.845   7.613  0.0211 -0.0145  0.0112
  892loPI   C6A13600  16.217  14.832   8.005 -0.4013 -0.3029 -0.3211
  892loPI   C1B13601  15.651  15.398   5.993  0.0800  0.1070  0.0589
  892loPI   C2B13602  15.583  15.550   6.426 -0.0185  0.0963  0.1586
  892loPI   C3B13603  15.508  15.543   6.804 -0.2470 -0.3847  0.1676
  892loPI   C4B13604  15.447  15.496   7.223 -0.2700 -0.0552  0.2332
  893loPI    C113605  18.258  12.148   4.815  0.0272  0.3242  0.0776
  893loPI    C213606  18.010  11.887   4.642  0.1487  0.0707  0.2781
  893loPI    C313607  17.889  12.263   4.712  0.0900  0.1745 -0.3291
  893loPI   PO413608  18.338  12.043   5.027 -0.2147  0.3167  0.0562
  893loPI   GL113609  18.423  11.833   5.471 -0.0375  0.1369 -0.3991
  893loPI   GL213610  18.415  11.652   5.706 -0.0469  0.0358 -0.2902
  893loPI   C1A13611  18.708  12.031   5.763  0.0635  0.2547  0.2073
  893loPI   C2A13612  18.864  12.122   6.135  0.0404  0.0413 -0.2399
  893loPI   C3A13613  18.830  12.077   6.502  0.0836 -0.0682 -0.2906
  893loPI   C4A13614  19.031  12.045   6.882 -0.0386 -0.0386 -0.1261
  893loPI   C5A13615  19.230  11.654   6.936 -0.1244  0.2557 -0.0266
  893loPI   C6A13616  19.194  11.409   7.324 -0.3813  0.2348 -0.4094
  893loPI   C1B13617  18.508  11.711   6.085 -0.1844  0.0009 -0.2281
  893loPI   C2B13618  18.608  11.532   6.485 -0.0942 -0.3562 -0.1756
  893loPI   C3B13619  18.729  11.585   6.902  0.0981 -0.2453 -0.0879
  893loPI   C4B13620  18.766  11.741   7.352  0.2235 -0.3796  0.0307
  894loPI    C113621   2.299   6.317   5.104 -0.0585 -0.0116 -0.2280
  894loPI    C213622   2.189   6.110   4.780 -0.3507 -0.0225 -0.1248
  894loPI    C313623   2.007   6.045   5.130 -0.0166 -0.0327  0.0511
  894loPI   PO413624   2.558   6.243   5.180  0.2261  0.0257  0.2330
  894loPI   GL113625   2.796   6.464   5.395 -0.0966 -0.0412 -0.0780
  894loPI   GL213626   2.863   6.681   5.663 -0.0798 -0.0210  0.1120
  894loPI   C1A13627   2.412   6.534   5.711 -0.0303 -0.1124 -0.3798
  894loPI   C2A13628   2.449   6.583   6.140  0.0643 -0.4016 -0.4652
  894loPI   C3A13629   2.216   6.557   6.595  0.0778  0.3421  0.0527
  894loPI   C4A13630   2.239   6.442   6.947 -0.0324 -0.0475 -0.2240
  894loPI   C5A13631   2.335   6.530   7.397  0.0234 -0.2375  0.0446
  894loPI   C6A13632   2.527   6.257   7.638 -0.0613 -0.0058 -0.4093
  894loPI   C1B13633   2.923   6.538   6.045 -0.4342 -0.0142  0.0344
  894loPI   C2B13634   2.891   6.611   6.507  0.4862 -0.0249  0.0082
  894loPI   C3B13635   2.792   6.583   6.839 -0.0189  0.0757 -0.3636
  894loPI   C4B13636   2.828   6.475   7.221  0.0142 -0.1849 -0.2060
  895loPI    C113637   9.639  15.015   5.453  0.1228  0.0856 -0.1456
  895loPI    C213638   9.469  15.306   5.238 -0.0270  0.2231  0.1541
  895loPI    C313639   9.254  14.986   5.347  0.0843  0.0913 -0.0087
  895loPI   PO413640   9.758  15.228   5.675 -0.0458 -0.0442  0.1158
  895loPI   GL113641   9.743  15.452   5.959  0.2315 -0.2613  0.2343
  895loPI   GL213642   9.557  15.772   5.980  0.0071 -0.1594  0.0444
  895loPI   C1A13643   9.910  15.542   6.376 -0.0060  0.1200 -0.3024
  895loPI   C2A13644   9.612  15.430   6.692 -0.0653  0.1889 -0.1460
  895loPI   C3A13645   9.357  15.376   7.110 -0.0828  0.2712  0.0005
  895loPI   C4A13646   9.195  15.366   7.518  0.3956  0.1184 -0.0248
  895loPI   C5A13647   9.006  15.693   7.684  0.1715 -0.2607  0.0416
  895loPI   C6A13648   8.785  15.985   7.600 -0.0674 -0.0043  0.0045
  895loPI   C1B13649   9.381  15.690   6.304 -0.0604  0.0859  0.0191
  895loPI   C2B13650   9.090  15.545   6.737 -0.4936 -0.2871 -0.0961
  895loPI   C3B13651   9.045  15.770   7.187  0.0020 -0.0916 -0.0921
  895loPI   C4B13652   9.263  16.025   7.339  0.1400 -0.0578  0.1037
  896loPI    C113653  10.654  17.895   5.470 -0.0219  0.2381  0.0564
  896loPI    C213654  10.505  18.054   5.135  0.2199  0.0234 -0.1582
  896loPI    C313655  10.580  17.661   5.154  0.1469  0.0224  0.1728
  896loPI   PO413656  10.791  18.106   5.648  0.0921  0.0410  0.2899
  896loPI   GL113657  10.710  17.880   6.006  0.4359 -0.1214 -0.3185
  896loPI   GL213658  10.795  17.631   5.972  0.0276 -0.1110 -0.3855
  896loPI   C1A13659  10.773  18.159   6.313  0.1300  0.1178 -0.0938
  896loPI   C2A13660  10.819  18.092   6.757 -0.0441  0.0375 -0.3175
  896loPI   C3A13661  10.990  18.239   7.250  0.0053 -0.2096  0.0696
  896loPI   C4A13662  10.804  18.070   7.650 -0.0603 -0.0458 -0.0209
  896loPI   C5A13663  10.559  17.707   7.685 -0.1393  0.4738 -0.1367
  896loPI   C6A13664  10.274  17.598   7.954  0.0996  0.0052  0.0870
  896loPI   C1B13665  10.748  17.675   6.529  0.1274  0.1526  0.0472
  896loPI   C2B13666  10.728  17.479   6.899 -0.0153 -0.1539 -0.1593
  896loPI   C3B13667  10.819  17.709   7.227 -0.3739 -0.1463  0.0886
  896loPI   C4B13668  11.204  17.713   7.391  0.3657 -0.0725 -0.2228
  897loPI    C113669  11.915   7.892   4.981 -0.2233 -0.0524  0.1091
  897loPI    C213670  12.143   7.645   4.764  0.0193 -0.1190  0.4320
  897loPI    C313671  12.227   8.036   4.776 -0.2310 -0.0505  0.0988
  897loPI   PO413672  11.911   7.781   5.169  0.2232  0.1279 -0.0240
  897loPI   GL113673  11.895   7.841   5.665 -0.1425 -0.0585 -0.1253
  897loPI   GL213674  11.735   7.527   5.825 -0.3037 -0.2553  0.0313
  897loPI   C1A13675  11.828   7.961   6.129 -0.0191 -0.1702  0.0747
  897loPI   C2A13676  11.913   8.181   6.530  0.0514  0.2134 -0.0694
  897loPI   C3A13677  11.856   8.200   6.894 -0.0411  0.0274  0.0909
  897loPI   C4A13678  11.784   8.064   7.287 -0.1976 -0.0607 -0.0006
  897loPI   C5A13679  12.002   7.772   7.637 -0.1833 -0.0252 -0.0224
  897loPI   C6A13680  12.090   7.388   7.597  0.0438  0.3407 -0.2481
  897loPI   C1B13681  11.855   7.516   6.339 -0.0802 -0.0265  0.0338
  897loPI   C2B13682  12.000   7.503   6.745  0.0156 -0.0506 -0.0105
  897loPI   C3B13683  11.845   7.493   7.126  0.1711 -0.4346 -0.0906
  897loPI   C4B13684  11.621   7.209   7.466 -0.2263  0.3398  0.1901
  898loPI    C113685  17.934  16.935   4.801  0.0509  0.3284  0.0092
  898loPI    C213686  17.676  17.091   4.539  0.0281  0.2498 -0.0155
  898loPI    C313687  18.052  17.015   4.427  0.0124  0.1962 -0.0318
  898loPI   PO413688  18.027  16.950   5.087  0.1369  0.1042  0.1036
  898loPI   GL113689  18.221  16.834   5.515  0.0823 -0.0062  0.3202
  898loPI   GL213690  18.368  17.126   5.523  0.2526  0.3475 -0.0243
  898loPI   C1A13691  18.104  16.715   5.913 -0.1258 -0.0581 -0.0030
  898loPI   C2A13692  18.153  16.728   6.405  0.0433 -0.1095 -0.0232
  898loPI   C3A13693  18.131  16.687   6.861  0.2280 -0.3773  0.2650
  898loPI   C4A13694  17.901  16.922   7.097 -0.2648 -0.0829  0.0671
  898loPI   C5A13695  17.427  17.233   6.957 -0.1337  0.0847 -0.1066
  898loPI   C6A13696  17.300  17.580   7.226 -0.2110 -0.4927 -0.1611
  898loPI   C1B13697  18.113  17.332   5.780 -0.2880 -0.0590 -0.1135
  898loPI   C2B13698  17.983  17.274   6.204 -0.1049 -0.0024 -0.1706
  898loPI   C3B13699  17.594  17.419   6.454 -0.0052 -0.1481  0.0898
  898loPI   C4B13700  17.281  17.610   6.725  0.3705 -0.0098  0.2907
  899loPI    C113701   2.223  17.544   4.538 -0.0412 -0.0715  0.1704
  899loPI    C213702   2.296  17.382   4.179 -0.0578  0.2309  0.0282
  899loPI    C313703   1.919  17.418   4.310 -0.0665  0.3204 -0.0201
  899loPI   PO413704   2.342  17.390   4.716 -0.0118  0.3538  0.2267
  899loPI   GL113705   2.281  17.363   5.082  0.1822 -0.0618  0.1436
  899loPI   GL213706   2.190  17.055   5.113  0.0752 -0.2743  0.0839
  899loPI   C1A13707   2.295  17.346   5.598  0.1519  0.2357 -0.3406
  899loPI   C2A13708   2.400  17.057   5.950 -0.2565  0.0649  0.1569
  899loPI   C3A13709   2.413  17.070   6.309 -0.0214  0.0639 -0.2041
  899loPI   C4A13710   2.387  17.316   6.680 -0.0865 -0.0534  0.2120
  899loPI   C5A13711   2.364  17.480   7.156 -0.3270 -0.0894 -0.0715
  899loPI   C6A13712   2.123  17.444   7.518  0.0143 -0.0297  0.0500
  899loPI   C1B13713   2.518  16.881   5.467 -0.5625 -0.2665  0.1707
  899loPI   C2B13714   2.559  16.554   5.735 -0.1362 -0.2766  0.0354
  899loPI   C3B13715   2.651  16.622   6.081 -0.1219 -0.0662 -0.4221
  899loPI   C4B13716   2.822  16.743   6.442 -0.1014 -0.1260  0.2395
  900loPI    C113717   5.857   2.469   4.858 -0.0754 -0.0691  0.0565
  900loPI    C213718   5.967   2.740   4.584  0.0448 -0.0404  0.1328
  900loPI    C313719   5.911   2.358   4.477 -0.0538 -0.0000  0.0393
  900loPI   PO413720   5.762   2.559   5.069  0.0875  0.3224 -0.0448
  900loPI   GL113721   5.918   2.369   5.536 -0.1842 -0.0398  0.2731
  900loPI   GL213722   5.890   2.022   5.613 -0.0143 -0.1084  0.2444
  900loPI   C1A13723   5.733   2.381   5.998  0.0025 -0.0793 -0.0866
  900loPI   C2A13724   5.783   2.426   6.379 -0.0243  0.2770 -0.3993
  900loPI   C3A13725   5.769   2.527   6.753  0.0577 -0.1860 -0.1046
  900loPI   C4A13726   5.783   2.456   7.163  0.1352 -0.2784  0.3499
  900loPI   C5A13727   5.856   2.555   7.541  0.0415  0.1471 -0.3464
  900loPI   C6A13728   6.026   2.255   7.885 -0.0334 -0.0113  0.1431
  900loPI   C1B13729   5.959   1.892   6.012  0.1535  0.1502 -0.2314
  900loPI   C2B13730   5.903   1.856   6.457  0.0468 -0.1316 -0.1482
  900loPI   C3B13731   5.831   1.925   6.881  0.0995  0.0540 -0.0152
  900loPI   C4B13732   5.858   2.045   7.400 -0.0911  0.2130 -0.0331
  901loPI    C113733  15.317  12.100   5.548  0.1137  0.1330  0.2223
  901loPI    C213734  15.266  12.104   5.152 -0.0626  0.1929  0.2447
  901loPI    C313735  15.634  12.077   5.305 -0.0060 -0.0144  0.0777
  901loPI   PO413736  15.028  12.251   5.637 -0.0917  0.2250 -0.0355
  901loPI   GL113737  14.912  12.420   5.949  0.0552  0.2589  0.0456
  901loPI   GL213738  14.897  12.746   6.041 -0.0118 -0.0761 -0.0439
  901loPI   C1A13739  14.765  12.230   6.306 -0.0089 -0.0557  0.1181
  901loPI   C2A13740  14.588  12.302   6.657 -0.0979 -0.2029  0.1665
  901loPI   C3A13741  14.563  12.338   7.094 -0.1775  0.2427 -0.2262
  901loPI   C4A13742  14.772  12.453   7.500 -0.0598 -0.0222  0.0481
  901loPI   C5A13743  14.835  12.552   7.861  0.0203 -0.0402  0.0997
  901loPI   C6A13744  15.108  12.490   8.263  0.1756  0.0489 -0.2481
  901loPI   C1B13745  14.769  12.686   6.403  0.2572  0.2525  0.0136
  901loPI   C2B13746  14.751  12.814   6.782 -0.2789  0.0725 -0.0356
  901loPI   C3B13747  14.937  12.748   7.136 -0.0519  0.2593 -0.0228
  901loPI   C4B13748  15.245  12.641   7.381  0.0501 -0.1418  0.3037
  902loPI    C113749   2.429   3.846   5.211  0.0627  0.1552 -0.3211
  902loPI    C213750   2.616   3.877   4.858  0.2831 -0.0869 -0.2289
  902loPI    C313751   2.710   3.580   5.109 -0.1025 -0.1079 -0.1025
  902loPI   PO413752   2.387   4.128   5.225  0.0927  0.2916  0.2310
  902loPI   GL113753   2.556   4.465   5.415  0.1395 -0.2278 -0.1302
  902loPI   GL213754   2.540   4.765   5.198  0.3148  0.0904 -0.1700
  902loPI   C1A13755   2.444   4.574   5.823 -0.2260  0.3492 -0.0901
  902loPI   C2A13756   2.444   4.558   6.179 -0.0705 -0.0300 -0.1677
  902loPI   C3A13757   2.338   4.392   6.536 -0.3178  0.0901  0.1306
  902loPI   C4A13758   2.385   4.586   6.894  0.1091 -0.2521  0.1483
  902loPI   C5A13759   2.219   4.550   7.295  0.0328 -0.0823  0.0016
  902loPI   C6A13760   2.374   4.677   7.605 -0.0246 -0.0474 -0.1491
  902loPI   C1B13761   2.449   4.990   5.501 -0.2016 -0.2684 -0.1002
  902loPI   C2B13762   2.512   5.055   5.898 -0.1313 -0.0577 -0.1963
  902loPI   C3B13763   2.733   5.177   6.271 -0.1858  0.1451  0.0806
  902loPI   C4B13764   2.745   5.240   6.705  0.2028  0.1817  0.0766
  903loPI    C113765   8.802   2.831   5.318  0.1996  0.2105  0.1283
  903loPI    C213766   9.088   2.626   5.127  0.1163  0.0955  0.1259
  903loPI    C313767   8.788   2.790   4.920  0.0262 -0.0290  0.1565
  903loPI   PO413768   8.912   2.949   5.490 -0.1916  0.0326  0.0070
  903loPI   GL113769   8.898   2.908   5.905 -0.1582  0.1454 -0.0976
  903loPI   GL213770   8.873   2.988   6.235 -0.3959 -0.0904 -0.0232
  903loPI   C1A13771   8.530   2.686   6.010  0.1166 -0.1267 -0.2492
  903loPI   C2A13772   8.134   2.782   6.374 -0.1196  0.1904 -0.0443
  903loPI   C3A13773   7.906   2.658   6.738 -0.1805  0.3734 -0.0539
  903loPI   C4A13774   7.727   2.739   7.122 -0.0610  0.3688  0.2117
  903loPI   C5A13775   7.797   2.875   7.554  0.0477  0.5542 -0.2950
  903loPI   C6A13776   7.895   3.178   7.840 -0.2220  0.0437 -0.1153
  903loPI   C1B13777   8.563   2.989   6.652  0.4227 -0.0402  0.0166
  903loPI   C2B13778   8.655   3.059   7.146  0.0913  0.0401  0.1528
  903loPI   C3B13779   8.738   3.267   7.567  0.1310 -0.1536 -0.1489
  903loPI   C4B13780   8.814   3.622   7.905 -0.2490 -0.3592  0.0354
  904loPI    C113781   9.837   1.331   5.513 -0.1657  0.0819  0.1644
  904loPI    C213782  10.020   1.564   5.782  0.1312 -0.1045  0.1284
  904loPI    C313783   9.729   1.714   5.552  0.1820  0.1754  0.2431
  904loPI   PO413784   9.797   1.171   5.594 -0.3129  0.2384 -0.0995
  904loPI   GL113785   9.961   0.935   5.926  0.1190 -0.1266 -0.1269
  904loPI   GL213786   9.537   0.833   6.071 -0.4190  0.3741 -0.2314
  904loPI   C1A13787  10.211   0.943   6.358 -0.2948  0.3183 -0.1216
  904loPI   C2A13788  10.091   0.910   6.739 -0.0686 -0.2494  0.0358
  904loPI   C3A13789  10.138   1.140   7.065  0.2186 -0.0375  0.0250
  904loPI   C4A13790  10.216   0.994   7.529  0.1305 -0.0180 -0.1319
  904loPI   C5A13791  10.354   0.877   7.919 -0.2188  0.2312 -0.1791
  904loPI   C6A13792  10.296   0.425   8.051  0.1046  0.0499 -0.0691
  904loPI   C1B13793   9.374   0.759   6.467  0.1285  0.0283  0.0771
  904loPI   C2B13794   9.248   0.789   6.886  0.0493  0.1944 -0.0677
  904loPI   C3B13795   9.345   0.582   7.299 -0.1982 -0.1440 -0.0425
  904loPI   C4B13796   9.522   0.376   7.692  0.3511 -0.2185  0.1001
  905loPI    C113797  18.441   6.617   4.918 -0.1893 -0.0487  0.0814
  905loPI    C213798  18.210   6.804   4.651  0.1108 -0.0696 -0.1989
  905loPI    C313799  18.605   6.872   4.657  0.1000 -0.0167  0.2890
  905loPI   PO413800  18.227   6.531   5.155 -0.1980  0.0348 -0.3158
  905loPI   GL113801  18.081   6.320   5.583 -0.1012  0.0001 -0.1639
  905loPI   GL213802  18.149   5.964   5.548  0.0547  0.0477 -0.1631
  905loPI   C1A13803  17.842   6.298   6.047 -0.0502 -0.0961  0.1028
  905loPI   C2A13804  17.659   6.430   6.431 -0.1795 -0.0989  0.1389
  905loPI   C3A13805  17.681   6.755   6.729  0.0731  0.1083  0.1821
  905loPI   C4A13806  17.744   6.668   7.201 -0.1181 -0.0776  0.2379
  905loPI   C5A13807  18.131   6.496   7.497 -0.2047 -0.2998 -0.0466
  905loPI   C6A13808  18.463   6.140   7.432 -0.0548  0.0061  0.1544
  905loPI   C1B13809  18.288   6.007   5.912 -0.2402 -0.0047  0.0843
  905loPI   C2B13810  18.620   6.125   6.258  0.0822  0.2111  0.1733
  905loPI   C3B13811  18.738   6.369   6.579 -0.3773  0.0171 -0.4050
  905loPI   C4B13812  18.891   6.590   6.887  0.0971 -0.0041 -0.0336
  906loPI    C113813  15.654   7.250   4.816 -0.0955 -0.1144 -0.0545
  906loPI    C213814  15.512   6.957   4.583 -0.0725 -0.0267 -0.1797
  906loPI    C313815  15.820   7.181   4.459 -0.0567  0.0175 -0.0626
  906loPI   PO413816  15.691   7.163   5.047 -0.0057  0.1212  0.1040
  906loPI   GL113817  15.580   7.209   5.479 -0.1507  0.0027  0.0492
  906loPI   GL213818  15.779   6.923   5.657 -0.1041  0.1551  0.1114
  906loPI   C1A13819  15.850   7.427   5.870  0.0281 -0.0799 -0.0299
  906loPI   C2A13820  15.946   7.440   6.238 -0.0828  0.0224  0.4008
  906loPI   C3A13821  15.926   7.589   6.535  0.0895 -0.2809 -0.3368
  906loPI   C4A13822  15.924   7.537   7.002 -0.2126 -0.3071 -0.1331
  906loPI   C5A13823  16.096   7.338   7.227  0.1196 -0.3495 -0.1365
  906loPI   C6A13824  16.164   7.246   7.693 -0.1329  0.2403 -0.1440
  906loPI   C1B13825  15.596   6.953   6.018  0.0810  0.0119  0.0770
  906loPI   C2B13826  15.526   6.881   6.423 -0.0267  0.0810 -0.0833
  906loPI   C3B13827  15.222   6.834   6.756  0.2776 -0.2403  0.1142
  906loPI   C4B13828  15.308   7.026   7.172 -0.1689  0.0139 -0.1239
  907loPI    C113829   0.719   8.722   4.942  0.0728 -0.2137 -0.1188
  907loPI    C213830   0.344   8.740   4.803  0.0389 -0.1031 -0.0142
  907loPI    C313831   0.652   8.729   4.548 -0.0207  0.1442 -0.0999
  907loPI   PO413832   0.800   8.865   5.048  0.0464 -0.0558  0.1062
  907loPI   GL113833   0.943   8.829   5.428 -0.1363  0.0419  0.1522
  907loPI   GL213834   0.958   9.216   5.455  0.1269  0.1095  0.0327
  907loPI   C1A13835   1.069   8.801   5.852  0.0937  0.3309  0.3478
  907loPI   C2A13836   0.915   8.538   6.185 -0.1522 -0.1130 -0.1595
  907loPI   C3A13837   0.676   8.329   6.449  0.0075  0.3430 -0.2557
  907loPI   C4A13838   0.550   8.030   6.868  0.0684 -0.0162 -0.3150
  907loPI   C5A13839   0.338   8.110   7.237  0.2696 -0.2585  0.3497
  907loPI   C6A13840   0.207   8.279   7.578 -0.0369  0.3203  0.3556
  907loPI   C1B13841   1.089   9.263   5.848 -0.2582  0.0413  0.0239
  907loPI   C2B13842   0.948   9.050   6.271  0.2908 -0.0972  0.0959
  907loPI   C3B13843   0.935   8.822   6.677 -0.1739  0.0790 -0.1148
  907loPI   C4B13844   0.855   8.472   6.893 -0.0870  0.2700  0.1050
  908loPI    C113845  13.274  13.138   5.237 -0.0971 -0.1001  0.0501
  908loPI    C213846  13.437  13.489   5.138 -0.0216 -0.1056  0.1534
  908loPI    C313847  13.428  13.190   4.872 -0.1217 -0.0132  0.0521
  908loPI   PO413848  13.387  13.142   5.479 -0.1736  0.3471 -0.0596
  908loPI   GL113849  13.224  13.055   5.902 -0.0666 -0.0807 -0.2857
  908loPI   GL213850  12.978  12.996   6.097  0.0306 -0.0387  0.1306
  908loPI   C1A13851  13.459  13.265   6.210  0.4151  0.2721  0.0889
  908loPI   C2A13852  13.848  13.390   6.531  0.2670  0.0565 -0.1646
  908loPI   C3A13853  13.876  13.289   6.998  0.0711  0.2104  0.1223
  908loPI   C4A13854  13.710  13.244   7.462  0.0139 -0.1214 -0.0063
  908loPI   C5A13855  13.349  13.085   7.785 -0.1693 -0.0910 -0.1019
  908loPI   C6A13856  13.116  12.737   7.891  0.1306 -0.1931 -0.4243
  908loPI   C1B13857  13.159  13.036   6.520  0.0360 -0.0448  0.2324
  908loPI   C2B13858  13.387  13.388   6.744 -0.3849 -0.1395  0.1314
  908loPI   C3B13859  13.430  13.673   7.117 -0.0435 -0.1431  0.0663
  908loPI   C4B13860  13.467  13.918   7.541  0.1051  0.2478 -0.3460
  909loPI    C113861  14.985   2.859   5.262  0.0199  0.0004  0.0643
  909loPI    C213862  15.128   3.184   5.079  0.1055  0.0095  0.1467
  909loPI    C313863  14.738   3.098   5.058  0.1121  0.0187 -0.0268
  909loPI   PO413864  15.032   2.814   5.545 -0.0775 -0.1396  0.2392
  909loPI   GL113865  14.849   2.631   5.849 -0.1914 -0.2974 -0.0527
  909loPI   GL213866  14.840   2.333   5.988  0.1466 -0.2654 -0.1949
  909loPI   C1A13867  14.838   2.783   6.249 -0.1141 -0.0249  0.1229
  909loPI   C2A13868  15.091   2.906   6.518  0.1865 -0.1202  0.3527
  909loPI   C3A13869  15.086   2.955   7.008 -0.1552  0.1185 -0.2437
  909loPI   C4A13870  15.158   2.800   7.426 -0.3590  0.0201  0.3906
  909loPI   C5A13871  14.978   2.580   7.769 -0.0602 -0.0607  0.1011
  909loPI   C6A13872  14.994   2.428   8.135  0.2503  0.0361 -0.5435
  909loPI   C1B13873  15.182   2.405   6.329  0.0036 -0.0174 -0.2921
  909loPI   C2B13874  15.324   2.508   6.783 -0.1274 -0.2009 -0.0095
  909loPI   C3B13875  15.462   2.555   7.191 -0.0143 -0.0370  0.2900
  909loPI   C4B13876  15.374   2.380   7.637 -0.1294 -0.1819 -0.0033
  910loPI    C113877   9.132  17.139   5.192 -0.1152  0.0468 -0.1097
  910loPI    C213878   8.816  16.926   5.072  0.0026 -0.1564 -0.0635
  910loPI    C313879   9.156  16.916   4.861 -0.0766  0.2058 -0.2150
  910loPI   PO413880   9.204  17.092   5.475 -0.1323  0.0548  0.1412
  910loPI   GL113881   8.948  17.207   5.820  0.0156 -0.0626  0.2659
  910loPI   GL213882   8.929  16.891   6.024  0.1638  0.2683 -0.0235
  910loPI   C1A13883   8.690  17.372   6.086 -0.0501  0.0729  0.0466
  910loPI   C2A13884   8.686  17.520   6.520 -0.1723  0.0787  0.0660
  910loPI   C3A13885   8.678  17.485   7.027 -0.0821  0.0224  0.1277
  910loPI   C4A13886   8.616  17.559   7.478 -0.1930 -0.2835  0.0654
  910loPI   C5A13887   9.049  17.495   7.551 -0.1781  0.3576  0.2780
  910loPI   C6A13888   9.344  17.674   7.974 -0.1236 -0.1311  0.1384
  910loPI   C1B13889   8.663  16.857   6.396 -0.0034  0.3180 -0.0428
  910loPI   C2B13890   8.466  16.851   6.796 -0.6430  0.0526 -0.0408
  910loPI   C3B13891   8.356  17.115   7.120  0.0663  0.2160 -0.2878
  910loPI   C4B13892   8.200  17.272   7.556 -0.0580 -0.1912 -0.1660
  911loPI    C113893   9.283   3.451   5.251 -0.2673  0.1073 -0.0562
  911loPI    C213894   9.109   3.267   4.942 -0.0939  0.0466 -0.1188
  911loPI    C313895   9.457   3.457   4.891 -0.0599  0.0288  0.0412
  911loPI   PO413896   9.073   3.596   5.331 -0.1721  0.0963  0.1663
  911loPI   GL113897   8.959   3.855   5.534 -0.1330  0.0967 -0.1559
  911loPI   GL213898   8.850   3.769   5.764  0.0381  0.1513 -0.1382
  911loPI   C1A13899   9.258   4.052   5.840  0.2079 -0.1408  0.1651
  911loPI   C2A13900   9.395   3.791   6.219  0.3171 -0.1246 -0.3941
  911loPI   C3A13901   9.264   3.747   6.682 -0.1337  0.0518 -0.1582
  911loPI   C4A13902   9.104   3.861   7.166  0.2795 -0.2261  0.2080
  911loPI   C5A13903   9.128   3.952   7.626  0.2452  0.1724  0.0481
  911loPI   C6A13904   9.181   3.938   8.045  0.1556  0.1159 -0.0024
  911loPI   C1B13905   8.881   3.644   6.132 -0.0224  0.1408 -0.1369
  911loPI   C2B13906   8.777   3.583   6.507  0.2665 -0.1459  0.1380
  911loPI   C3B13907   8.682   3.564   6.955 -0.1448  0.2589 -0.0574
  911loPI   C4B13908   8.640   3.752   7.426 -0.1706 -0.4272 -0.1627
  912loPI    C113909  13.380   1.923   5.230 -0.0831 -0.2112 -0.0474
  912loPI    C213910  12.982   1.963   5.220 -0.0885 -0.2645 -0.0525
  912loPI    C313911  13.203   2.081   4.908 -0.0913 -0.1391 -0.0079
  912loPI   PO413912  13.433   2.062   5.504  0.2697  0.2624 -0.0743
  912loPI   GL113913  13.664   1.946   5.928 -0.0655 -0.0133  0.2088
  912loPI   GL213914  13.492   1.930   6.153 -0.0291 -0.0788 -0.1210
  912loPI   C1A13915  14.126   2.045   6.173 -0.0241  0.2946 -0.1039
  912loPI   C2A13916  14.172   2.206   6.660 -0.0614 -0.0803  0.0566
  912loPI   C3A13917  13.913   2.186   7.069 -0.1010 -0.0915 -0.2929
  912loPI   C4A13918  13.739   2.164   7.474  0.0931 -0.0164  0.0321
  912loPI   C5A13919  13.406   2.372   7.585  0.2025  0.2922  0.1803
  912loPI   C6A13920  13.154   2.482   8.015 -0.3058 -0.1832 -0.2418
  912loPI   C1B13921  13.774   1.857   6.555 -0.0100 -0.3030 -0.0255
  912loPI   C2B13922  13.868   1.647   6.974  0.1341  0.1630  0.1091
  912loPI   C3B13923  13.929   1.661   7.373  0.3714 -0.3128 -0.1139
  912loPI   C4B13924  14.064   1.606   7.823 -0.0434  0.1976  0.2773
  913loPI    C113925   6.835  14.874   4.773 -0.2972  0.0203 -0.1912
  913loPI    C213926   7.116  15.045   4.546 -0.1325  0.0561  0.0360
  913loPI    C313927   6.754  15.213   4.577 -0.1679  0.0319 -0.2256
  913loPI   PO413928   6.805  14.917   5.048  0.0963 -0.1936  0.0668
  913loPI   GL113929   6.405  14.868   5.298 -0.1422 -0.3004  0.1637
  913loPI   GL213930   6.164  15.011   5.333  0.2084  0.2544 -0.1298
  913loPI   C1A13931   6.557  14.883   5.742  0.0302  0.2129  0.2012
  913loPI   C2A13932   6.345  14.932   6.099 -0.1539 -0.1380  0.0119
  913loPI   C3A13933   6.255  15.039   6.516 -0.0369 -0.0092  0.0482
  913loPI   C4A13934   6.261  15.140   6.962 -0.4050 -0.4327 -0.0423
  913loPI   C5A13935   6.178  14.888   7.286 -0.3644  0.0592 -0.0665
  913loPI   C6A13936   6.443  14.769   7.690 -0.1657  0.0015  0.2634
  913loPI   C1B13937   6.085  15.207   5.720 -0.0059  0.0845 -0.0615
  913loPI   C2B13938   5.960  15.291   6.100 -0.1667 -0.2161 -0.1069
  913loPI   C3B13939   5.893  15.407   6.563  0.0977  0.1725 -0.0197
  913loPI   C4B13940   5.774  15.432   6.951 -0.2711 -0.0600 -0.0963
  914loPI    C113941   3.753  11.215   4.756 -0.1201  0.0512  0.1521
  914loPI    C213942   3.689  11.437   5.083 -0.2477  0.1998  0.0280
  914loPI    C313943   3.388  11.361   4.830 -0.1846 -0.0428  0.0231
  914loPI   PO413944   3.848  10.994   4.926 -0.0506 -0.3755 -0.0575
  914loPI   GL113945   4.007  11.058   5.359 -0.1733 -0.0476 -0.0015
  914loPI   GL213946   4.041  10.769   5.492  0.0483  0.2608  0.1161
  914loPI   C1A13947   3.852  11.208   5.727  0.0986  0.0528  0.1632
  914loPI   C2A13948   3.920  11.286   6.154  0.2397  0.0387  0.3602
  914loPI   C3A13949   3.916  11.410   6.556 -0.4052 -0.0446  0.0435
  914loPI   C4A13950   3.902  11.335   6.996 -0.0197 -0.4234  0.0807
  914loPI   C5A13951   4.119  11.485   7.375 -0.1314  0.3537 -0.3266
  914loPI   C6A13952   4.390  11.728   7.697 -0.1423 -0.0715 -0.0240
  914loPI   C1B13953   4.234  10.957   5.953 -0.1336  0.2234 -0.0754
  914loPI   C2B13954   4.255  10.910   6.382 -0.0984 -0.0852  0.0811
  914loPI   C3B13955   4.113  10.900   6.838 -0.0523  0.0869 -0.3304
  914loPI   C4B13956   4.322  10.916   7.299  0.2161  0.0599  0.0769
  915loPI    C113957  15.887  10.775   5.172 -0.1194 -0.1164  0.0738
  915loPI    C213958  15.782  10.520   4.882  0.0371 -0.3653  0.2318
  915loPI    C313959  15.943  10.874   4.789 -0.2878 -0.2714  0.0075
  915loPI   PO413960  15.992  10.608   5.312  0.0419 -0.2120 -0.0197
  915loPI   GL113961  15.734  10.403   5.593  0.2255  0.3098 -0.5698
  915loPI   GL213962  15.766  10.601   5.837 -0.1351 -0.1057  0.0218
  915loPI   C1A13963  15.389  10.248   5.861  0.3603 -0.1068 -0.0984
  915loPI   C2A13964  15.431  10.179   6.332  0.1721  0.0207 -0.0087
  915loPI   C3A13965  15.306  10.315   6.785  0.2736  0.0173  0.1036
  915loPI   C4A13966  14.995  10.352   7.113  0.0243 -0.0616 -0.1965
  915loPI   C5A13967  14.989  10.232   7.617  0.0189 -0.0038 -0.2682
  915loPI   C6A13968  15.131   9.985   8.003 -0.2800 -0.1153  0.0295
  915loPI   C1B13969  15.787  10.564   6.223 -0.0960  0.1058 -0.2934
  915loPI   C2B13970  15.974  10.617   6.597  0.2091  0.0392 -0.1245
  915loPI   C3B13971  16.242  10.764   6.916 -0.1405  0.0361  0.0210
  915loPI   C4B13972  16.624  10.595   7.003  0.1517  0.1354  0.1021
  916loPI    C113973   5.010   5.648   4.892 -0.2710  0.0325  0.0517
  916loPI    C213974   5.193   5.294   4.928  0.1784  0.2551  0.0238
  916loPI    C313975   4.948   5.362   4.620 -0.2666 -0.1787  0.2684
  916loPI   PO413976   4.887   5.662   5.193  0.4230 -0.2956 -0.2732
  916loPI   GL113977   4.472   5.596   5.382 -0.0774  0.3364  0.0856
  916loPI   GL213978   4.281   5.816   5.428 -0.2952  0.0883  0.1140
  916loPI   C1A13979   4.674   5.717   5.789  0.4442  0.1115  0.4230
  916loPI   C2A13980   4.689   5.838   6.189  0.0824 -0.1882  0.0686
  916loPI   C3A13981   4.588   5.821   6.627  0.0305 -0.1241  0.3993
  916loPI   C4A13982   4.402   5.611   6.875  0.2644  0.0959 -0.1823
  916loPI   C5A13983   4.199   5.403   7.224 -0.0690 -0.1057  0.3201
  916loPI   C6A13984   4.055   5.496   7.604  0.1302 -0.0496  0.1657
  916loPI   C1B13985   4.202   5.716   5.908  0.0075  0.2894 -0.0097
  916loPI   C2B13986   4.185   5.823   6.311 -0.0603  0.0689  0.0528
  916loPI   C3B13987   3.900   5.695   6.666 -0.0789 -0.2358 -0.1684
  916loPI   C4B13988   3.854   5.763   7.137 -0.2813 -0.1574 -0.1708
  917loPI    C113989   3.811  10.513   5.012  0.1021 -0.1251  0.0616
  917loPI    C213990   3.970  10.581   4.651  0.0676  0.0164  0.0726
  917loPI    C313991   3.573  10.554   4.693  0.0721 -0.0087  0.0986
  917loPI   PO413992   4.034  10.386   5.100 -0.1576  0.0785 -0.1232
  917loPI   GL113993   4.077  10.192   5.475 -0.0381 -0.1168 -0.0022
  917loPI   GL213994   4.169   9.986   5.642  0.3440 -0.1033 -0.0034
  917loPI   C1A13995   3.942  10.400   5.796  0.4487  0.4966 -0.0415
  917loPI   C2A13996   3.956  10.420   6.187  0.1104 -0.1177 -0.0946
  917loPI   C3A13997   4.080  10.423   6.626  0.1092 -0.0481  0.1088
  917loPI   C4A13998   4.184  10.456   7.055  0.0465  0.0636  0.0400
  917loPI   C5A13999   4.229  10.308   7.460  0.1321  0.1636 -0.0747
  917loPI   C6A14000   4.383  10.242   7.845 -0.1512 -0.2576 -0.2021
  917loPI   C1B14001   4.249  10.063   6.005  0.0058 -0.1738 -0.1200
  917loPI   C2B14002   4.382  10.075   6.472 -0.1314 -0.1732 -0.1490
  917loPI   C3B14003   4.529  10.111   6.909  0.2453  0.0582 -0.0123
  917loPI   C4B14004   4.612  10.047   7.376 -0.3717  0.0972 -0.2088
  918loPI    C114005   7.535  12.768   4.892  0.2222 -0.1244 -0.1779
  918loPI    C214006   7.384  12.426   4.750 -0.1505  0.0198 -0.1403
  918loPI    C314007   7.567  12.682   4.503 -0.1657 -0.0544 -0.2289
  918loPI   PO414008   7.302  12.810   5.124  0.2392 -0.0107  0.1967
  918loPI   GL114009   7.367  12.788   5.529  0.0009  0.4921 -0.2823
  918loPI   GL214010   7.376  13.119   5.757  0.1425  0.1183  0.1123
  918loPI   C1A14011   7.353  12.540   6.027 -0.2683  0.3469 -0.1849
  918loPI   C2A14012   7.085  12.547   6.449 -0.0220 -0.2752 -0.2682
  918loPI   C3A14013   7.077  12.604   6.809 -0.0856  0.1200 -0.0501
  918loPI   C4A14014   7.061  12.811   7.190  0.0788 -0.0101  0.4759
  918loPI   C5A14015   7.308  12.660   7.465  0.1917  0.0687  0.1555
  918loPI   C6A14016   7.773  12.692   7.696 -0.0335 -0.0857 -0.1711
  918loPI   C1B14017   7.202  13.005   6.228 -0.1709 -0.1955  0.2144
  918loPI   C2B14018   7.245  13.079   6.672  0.1150 -0.1182 -0.0022
  918loPI   C3B14019   7.465  12.909   6.932 -0.2750 -0.0691 -0.0717
  918loPI   C4B14020   7.590  13.063   7.320  0.0806  0.1907  0.3775
  919loPI    C114021   9.825  13.857   5.633 -0.1485  0.0637  0.0034
  919loPI    C214022   9.654  13.979   5.292 -0.0219  0.0256 -0.0746
  919loPI    C314023   9.428  13.898   5.612 -0.1195  0.3289 -0.0639
  919loPI   PO414024   9.965  14.015   5.763 -0.2642 -0.3324 -0.0113
  919loPI   GL114025   9.927  14.318   6.133  0.0400 -0.1152  0.1411
  919loPI   GL214026  10.183  14.105   6.237 -0.1729 -0.3836 -0.0728
  919loPI   C1A14027   9.760  14.232   6.528  0.1006 -0.0366 -0.1894
  919loPI   C2A14028   9.667  14.115   6.946  0.0267 -0.0865 -0.1176
  919loPI   C3A14029   9.660  13.900   7.397  0.0796 -0.0646 -0.0993
  919loPI   C4A14030   9.738  13.695   7.738 -0.1202 -0.3191 -0.1971
  919loPI   C5A14031   9.831  13.264   7.831 -0.2567  0.1027  0.0747
  919loPI   C6A14032   9.865  12.869   7.882 -0.4100 -0.0222  0.0069
  919loPI   C1B14033  10.512  14.253   6.601  0.0552  0.3331  0.2624
  919loPI   C2B14034  10.600  14.134   7.033 -0.0155 -0.1246 -0.2335
  919loPI   C3B14035  10.528  14.141   7.443 -0.0848  0.1751 -0.1221
  919loPI   C4B14036  10.418  14.485   7.725  0.4835 -0.2851 -0.1502
  920loPI    C114037  12.927   3.726   5.170 -0.1731  0.1907 -0.1176
  920loPI    C214038  13.034   3.976   4.876  0.0221  0.4026  0.1292
  920loPI    C314039  12.650   3.943   4.980 -0.0848  0.1257 -0.3245
  920loPI   PO414040  13.119   3.800   5.451  0.1852 -0.1703 -0.2842
  920loPI   GL114041  12.894   4.081   5.833  0.2118  0.0350 -0.2872
  920loPI   GL214042  13.182   3.872   5.951  0.2189 -0.2504 -0.0113
  920loPI   C1A14043  12.797   4.109   6.150 -0.0306  0.1513  0.0407
  920loPI   C2A14044  12.762   4.244   6.482  0.0988  0.1612 -0.0055
  920loPI   C3A14045  12.865   4.095   6.845  0.2114  0.0747  0.2207
  920loPI   C4A14046  12.787   3.850   7.197 -0.0276  0.1479  0.3270
  920loPI   C5A14047  12.452   3.792   7.484  0.0105  0.2488  0.2130
  920loPI   C6A14048  12.249   4.033   7.834  0.0015  0.0466  0.1280
  920loPI   C1B14049  13.121   3.836   6.348 -0.1841  0.1732 -0.0617
  920loPI   C2B14050  13.149   3.619   6.818  0.0194 -0.1488  0.2095
  920loPI   C3B14051  13.270   3.634   7.225  0.1299  0.0007 -0.0587
  920loPI   C4B14052  13.258   3.398   7.645  0.0610  0.2229  0.0880
  921loPI    C114053  12.445  13.230   5.051 -0.1282 -0.2516 -0.2281
  921loPI    C214054  12.809  13.390   5.009 -0.1592 -0.1076  0.0330
  921loPI    C314055  12.487  13.586   4.875 -0.2019  0.0797  0.3972
  921loPI   PO414056  12.431  13.112   5.368 -0.3041  0.1269 -0.0995
  921loPI   GL114057  12.533  13.152   5.837 -0.2482  0.1523  0.0189
  921loPI   GL214058  12.264  12.998   5.892  0.0107  0.0276  0.2428
  921loPI   C1A14059  12.499  13.263   6.342 -0.2492 -0.0389 -0.0145
  921loPI   C2A14060  12.680  13.030   6.638 -0.2771  0.2364 -0.0036
  921loPI   C3A14061  12.889  12.854   6.945  0.1450 -0.2497  0.4531
  921loPI   C4A14062  12.962  12.984   7.379  0.1731  0.2868  0.2306
  921loPI   C5A14063  12.653  12.901   7.733 -0.2263  0.0817  0.0633
  921loPI   C6A14064  12.202  12.815   7.727  0.0228  0.1142 -0.1691
  921loPI   C1B14065  12.084  12.985   6.264  0.1443 -0.3576 -0.1505
  921loPI   C2B14066  11.925  12.845   6.641  0.2422  0.2349 -0.4897
  921loPI   C3B14067  11.971  13.067   6.934 -0.2563 -0.1611 -0.0972
  921loPI   C4B14068  12.259  13.086   7.313 -0.2464  0.3000 -0.0742
  922loPI    C114069  17.327   2.513   5.190  0.1349  0.3071 -0.1564
  922loPI    C214070  17.338   2.291   4.858 -0.3530  0.0412 -0.0046
  922loPI    C314071  17.040   2.551   4.914 -0.1738  0.2169  0.1456
  922loPI   PO414072  17.299   2.411   5.380 -0.1509 -0.3056  0.1385
  922loPI   GL114073  17.544   2.393   5.694  0.0790 -0.1454 -0.1285
  922loPI   GL214074  17.317   2.316   5.906  0.1106 -0.0446  0.0878
  922loPI   C1A14075  17.950   2.198   5.933 -0.0661 -0.0915 -0.0383
  922loPI   C2A14076  18.252   2.144   6.358 -0.1982 -0.0041 -0.0999
  922loPI   C3A14077  18.127   2.053   6.794  0.1163  0.0664 -0.1475
  922loPI   C4A14078  18.091   1.767   7.099  0.2847  0.1334  0.2427
  922loPI   C5A14079  18.079   1.458   7.295 -0.0307 -0.0422 -0.1431
  922loPI   C6A14080  18.082   1.032   7.384  0.0248 -0.5128  0.1054
  922loPI   C1B14081  17.036   2.328   6.156 -0.1572 -0.2421 -0.1762
  922loPI   C2B14082  16.940   2.263   6.682 -0.0770 -0.2891 -0.0915
  922loPI   C3B14083  16.881   2.329   7.106  0.0309 -0.0476  0.2225
  922loPI   C4B14084  17.025   2.539   7.516  0.2650  0.1604  0.3686
  923loPI    C114085   5.632  13.676   4.989  0.0100  0.0938 -0.1489
  923loPI    C214086   5.373  13.398   4.864  0.0649  0.0230 -0.1062
  923loPI    C314087   5.658  13.531   4.617  0.1831 -0.1284 -0.0527
  923loPI   PO414088   5.672  13.662   5.252 -0.2158 -0.3496 -0.1244
  923loPI   GL114089   5.472  13.686   5.576  0.0449 -0.0971  0.0877
  923loPI   GL214090   5.206  13.519   5.681  0.2471  0.2931 -0.1819
  923loPI   C1A14091   5.730  13.519   5.900 -0.1760 -0.0695  0.0004
  923loPI   C2A14092   5.666  13.494   6.384  0.0961  0.2005  0.2999
  923loPI   C3A14093   5.882  13.272   6.791  0.0111 -0.0513  0.2259
  923loPI   C4A14094   6.070  13.009   7.072  0.2117  0.2698  0.3017
  923loPI   C5A14095   6.484  12.879   7.262 -0.1314 -0.0928 -0.3343
  923loPI   C6A14096   6.740  12.558   7.474  0.0475  0.0977  0.0773
  923loPI   C1B14097   5.288  13.483   6.065  0.1183  0.0317  0.1965
  923loPI   C2B14098   5.189  13.301   6.398  0.0018  0.1064  0.0587
  923loPI   C3B14099   5.379  13.262   6.784  0.2026 -0.0790  0.0513
  923loPI   C4B14100   5.149  13.273   7.211  0.0037 -0.1516 -0.0762
  924loPI    C114101   3.481   7.451   5.165 -0.0816 -0.0562  0.1178
  924loPI    C214102   3.365   7.716   4.888 -0.4019 -0.2307  0.0798
  924loPI    C314103   3.604   7.411   4.787  0.0425  0.0865  0.1419
  924loPI   PO414104   3.531   7.628   5.343 -0.1739  0.0576 -0.1793
  924loPI   GL114105   3.523   7.635   5.717  0.0975 -0.0829  0.0337
  924loPI   GL214106   3.313   7.470   5.957  0.0221  0.0961  0.0156
  924loPI   C1A14107   3.610   7.716   6.192  0.1472 -0.0534 -0.2784
  924loPI   C2A14108   3.599   7.823   6.535  0.3261  0.0841  0.0232
  924loPI   C3A14109   3.627   7.890   7.013 -0.0848 -0.2209  0.2115
  924loPI   C4A14110   3.497   7.916   7.478  0.2240 -0.0089 -0.0611
  924loPI   C5A14111   3.178   8.109   7.562 -0.4111  0.4122 -0.1960
  924loPI   C6A14112   2.752   7.947   7.836 -0.3799 -0.0521  0.1713
  924loPI   C1B14113   3.328   7.384   6.437  0.0842 -0.0386  0.0758
  924loPI   C2B14114   3.350   7.462   6.859 -0.0622  0.2013 -0.0027
  924loPI   C3B14115   3.362   7.488   7.278 -0.0543  0.0680  0.2866
  924loPI   C4B14116   3.470   7.207   7.619 -0.2864  0.0479  0.1075
  925loPI    C114117  17.859   9.776   5.049  0.1368  0.0496 -0.0318
  925loPI    C214118  17.941  10.122   4.867 -0.1189  0.0945 -0.0650
  925loPI    C314119  17.806   9.811   4.654 -0.0545  0.0282 -0.0091
  925loPI   PO414120  17.893   9.911   5.347 -0.4246 -0.1709  0.0252
  925loPI   GL114121  17.561  10.031   5.594 -0.1642 -0.0137 -0.0396
  925loPI   GL214122  17.830   9.912   5.901  0.0812  0.1351 -0.2038
  925loPI   C1A14123  17.392   9.664   5.813 -0.5534 -0.6257 -0.3959
  925loPI   C2A14124  17.424   9.666   6.268  0.1325  0.0042  0.0162
  925loPI   C3A14125  17.405   9.766   6.683  0.0685 -0.2929 -0.1198
  925loPI   C4A14126  17.639   9.797   7.057 -0.2025  0.0031  0.1157
  925loPI   C5A14127  17.841   9.809   7.447  0.3419 -0.1459  0.0079
  925loPI   C6A14128  17.626   9.912   7.863 -0.3116 -0.1055 -0.1735
  925loPI   C1B14129  17.846   9.920   6.339  0.2088 -0.1758 -0.0543
  925loPI   C2B14130  17.975  10.125   6.788 -0.1105 -0.2821  0.4070
  925loPI   C3B14131  18.109  10.206   7.274  0.1249 -0.1551  0.2449
  925loPI   C4B14132  18.214  10.436   7.518 -0.1916 -0.0296 -0.3162
  926loPI    C114133   6.327  14.676   4.793 -0.2631 -0.0122 -0.1293
  926loPI    C214134   6.340  15.073   4.845  0.4223 -0.0319 -0.0702
  926loPI    C314135   6.385  14.917   4.479 -0.1997 -0.0525 -0.1485
  926loPI   PO414136   6.155  14.610   5.004  0.2103 -0.3761  0.0927
  926loPI   GL114137   5.830  14.553   5.223  0.2259 -0.0551 -0.2065
  926loPI   GL214138   5.469  14.422   5.282 -0.0218 -0.1244  0.1213
  926loPI   C1A14139   5.771  14.834   5.606 -0.1613 -0.0923  0.1760
  926loPI   C2A14140   5.806  14.827   6.002  0.0059 -0.1604 -0.0206
  926loPI   C3A14141   5.694  14.908   6.372 -0.0721 -0.0027 -0.1455
  926loPI   C4A14142   5.763  14.940   6.755  0.1972 -0.0530  0.0654
  926loPI   C5A14143   5.621  15.028   7.180  0.0216  0.3784 -0.0514
  926loPI   C6A14144   5.829  15.271   7.473 -0.0205  0.2833  0.1556
  926loPI   C1B14145   5.437  14.461   5.733 -0.0579  0.1256  0.0606
  926loPI   C2B14146   5.392  14.407   6.204  0.2016 -0.0622 -0.1637
  926loPI   C3B14147   5.625  14.465   6.677  0.1178 -0.0082 -0.2606
  926loPI   C4B14148   5.853  14.564   7.080 -0.2410 -0.4141  0.1230
  927loPI    C114149  11.831   4.907   5.249  0.2650 -0.1876  0.0187
  927loPI    C214150  12.161   5.101   5.366  0.0346  0.2581 -0.0480
  927loPI    C314151  12.087   5.049   4.976  0.0428  0.1260 -0.0325
  927loPI   PO414152  11.765   4.728   5.443 -0.0653 -0.1143  0.0028
  927loPI   GL114153  11.559   4.482   5.827  0.2076 -0.1059  0.2553
  927loPI   GL214154  11.267   4.383   5.784  0.3335 -0.0301 -0.1915
  927loPI   C1A14155  11.532   4.399   6.215  0.0916 -0.0876  0.0143
  927loPI   C2A14156  11.386   4.361   6.616  0.0240 -0.0005  0.1168
  927loPI   C3A14157  11.447   4.331   6.950  0.0685 -0.1695 -0.0083
  927loPI   C4A14158  11.593   4.388   7.347  0.1722  0.0571  0.1308
  927loPI   C5A14159  11.668   4.423   7.753 -0.0137 -0.5484 -0.2074
  927loPI   C6A14160  11.947   4.331   8.103 -0.2436 -0.0348 -0.0859
  927loPI   C1B14161  10.945   4.150   5.949 -0.2799  0.0772 -0.2145
  927loPI   C2B14162  10.829   4.125   6.415  0.3661  0.5449 -0.2427
  927loPI   C3B14163  10.982   4.153   6.909  0.0936 -0.0219 -0.0936
  927loPI   C4B14164  10.947   4.053   7.417  0.1238 -0.1182  0.3247
  928loPI    C114165   1.149  13.312   4.825 -0.2086 -0.2661 -0.2146
  928loPI    C214166   1.002  13.668   4.934 -0.0630 -0.2604 -0.0307
  928loPI    C314167   1.228  13.637   4.605 -0.0704 -0.1820 -0.0434
  928loPI   PO414168   1.334  13.162   5.058 -0.0056 -0.0740  0.1425
  928loPI   GL114169   1.425  13.310   5.393  0.1312 -0.0173 -0.0574
  928loPI   GL214170   1.139  13.392   5.448  0.3905 -0.0432  0.0612
  928loPI   C1A14171   1.433  13.076   5.830 -0.0420 -0.1800  0.2249
  928loPI   C2A14172   1.294  13.084   6.189 -0.1942  0.1303 -0.0163
  928loPI   C3A14173   1.246  13.033   6.649 -0.2677 -0.0277 -0.2876
  928loPI   C4A14174   1.345  13.203   7.080  0.2433 -0.2083  0.1226
  928loPI   C5A14175   1.376  12.891   7.390 -0.1227  0.0063  0.1058
  928loPI   C6A14176   1.700  12.557   7.556 -0.0329  0.1205  0.0329
  928loPI   C1B14177   1.185  13.514   5.851 -0.0845  0.0239 -0.1735
  928loPI   C2B14178   1.339  13.560   6.232  0.1674  0.0623  0.2152
  928loPI   C3B14179   1.380  13.673   6.600  0.0926 -0.0581 -0.0841
  928loPI   C4B14180   1.343  13.862   7.005  0.2070 -0.0850  0.0045
  929loPI    C114181   4.344  10.027   5.007  0.0805  0.0710  0.1715
  929loPI    C214182   4.664   9.997   4.769 -0.2122 -0.1552 -0.2054
  929loPI    C314183   4.341  10.197   4.645 -0.2606 -0.0197  0.1285
  929loPI   PO414184   4.540   9.967   5.311 -0.0401  0.0303 -0.2048
  929loPI   GL114185   4.729  10.203   5.686  0.2048  0.1160 -0.0127
  929loPI   GL214186   4.448  10.429   5.672 -0.1225  0.2183 -0.2254
  929loPI   C1A14187   4.847  10.113   6.091 -0.0111  0.0688 -0.1301
  929loPI   C2A14188   4.893  10.097   6.514 -0.1024 -0.0844 -0.2259
  929loPI   C3A14189   5.034  10.056   6.952  0.0648  0.2398  0.2861
  929loPI   C4A14190   5.133  10.094   7.401 -0.0326 -0.0002 -0.1572
  929loPI   C5A14191   5.056   9.902   7.765  0.0603  0.1441 -0.1209
  929loPI   C6A14192   4.662   9.900   7.971  0.1688  0.4675  0.0393
  929loPI   C1B14193   4.514  10.518   6.129 -0.0570  0.0364  0.1716
  929loPI   C2B14194   4.577  10.516   6.619 -0.0557 -0.2030 -0.2746
  929loPI   C3B14195   4.627  10.698   7.000  0.0834  0.0005  0.0029
  929loPI   C4B14196   4.652  10.568   7.394  0.2095  0.0594 -0.0557
  930loPI    C114197  15.546  18.355   4.939 -0.1595 -0.4157 -0.0237
  930loPI    C214198  15.598  18.691   4.727 -0.1306 -0.1082  0.4543
  930loPI    C314199  15.826  18.370   4.653 -0.2463 -0.0742 -0.0958
  930loPI   PO414200  15.522  18.609   5.185  0.2588 -0.1438 -0.1522
  930loPI   GL114201  15.461  18.567   5.576  0.0379 -0.2777 -0.0788
  930loPI   GL214202  15.647  18.415   5.706 -0.0453 -0.1610 -0.1232
  930loPI   C1A14203  15.197  18.642   5.951 -0.2186  0.1408  0.3647
  930loPI   C2A14204  15.336  18.627   6.398 -0.1047 -0.0570  0.4803
  930loPI   C3A14205  15.496  18.617   6.866 -0.1415  0.2399  0.2286
  930loPI   C4A14206  15.569  18.676   7.260  0.2003 -0.0864 -0.0421
  930loPI   C5A14207  15.384  18.776   7.655  0.1332  0.0022  0.2549
  930loPI   C6A14208  15.151  18.583   7.945 -0.0763  0.0002  0.0701
  930loPI   C1B14209  15.745  18.626   6.077 -0.2397  0.1480  0.2993
  930loPI   C2B14210  15.812  18.728   6.513 -0.2270 -0.0938  0.0145
  930loPI   C3B14211  15.969  18.737   6.936  0.0739 -0.0368 -0.0621
  930loPI   C4B14212  16.039  18.769   7.454 -0.2254  0.1346  0.3010
  931loPI    C114213  13.197   1.590   5.847 -0.0696  0.3387 -0.1770
  931loPI    C214214  13.247   1.500   5.460 -0.0877 -0.2019 -0.0606
  931loPI    C314215  13.561   1.497   5.709 -0.1150 -0.0864 -0.0242
  931loPI   PO414216  13.034   1.748   5.836 -0.0877 -0.2709 -0.1070
  931loPI   GL114217  13.015   2.055   6.134  0.1519  0.0029  0.2377
  931loPI   GL214218  12.668   2.161   6.037 -0.3217  0.0472  0.1953
  931loPI   C1A14219  13.016   2.155   6.641  0.2176 -0.1133 -0.0444
  931loPI   C2A14220  12.915   2.086   7.100 -0.1184  0.0105 -0.1497
  931loPI   C3A14221  12.956   2.055   7.622  0.0524 -0.1579  0.0130
  931loPI   C4A14222  13.271   1.996   7.904  0.4082  0.2173  0.1001
  931loPI   C5A14223  13.595   1.860   7.922  0.2646 -0.1285  0.0602
  931loPI   C6A14224  13.840   1.908   8.283 -0.2082  0.0338  0.0896
  931loPI   C1B14225  12.638   2.359   6.356 -0.0870  0.2219  0.1615
  931loPI   C2B14226  12.586   2.405   6.775  0.0365  0.1765  0.2557
  931loPI   C3B14227  12.464   2.272   7.298  0.0835  0.2404  0.1916
  931loPI   C4B14228  12.504   2.281   7.826  0.1532  0.0721  0.2506
  932loPI    C114229  14.632   6.031   5.000  0.2579 -0.2738 -0.0199
  932loPI    C214230  14.319   5.783   4.978  0.0968 -0.0754  0.0125
  932loPI    C314231  14.455   5.964   4.648 -0.0169  0.0744  0.0463
  932loPI   PO414232  14.643   6.128   5.261  0.3782  0.3267  0.0111
  932loPI   GL114233  14.488   6.182   5.738  0.2380 -0.1123  0.1286
  932loPI   GL214234  14.061   5.994   5.896 -0.1153  0.3018  0.0077
  932loPI   C1A14235  14.398   6.239   6.136 -0.1626  0.0686  0.0604
  932loPI   C2A14236  14.573   6.189   6.573  0.1677 -0.1868 -0.1118
  932loPI   C3A14237  14.628   6.272   6.958  0.1061  0.0422  0.0518
  932loPI   C4A14238  14.734   6.192   7.513  0.0577  0.1037  0.2030
  932loPI   C5A14239  15.123   6.206   7.817  0.2266  0.2539 -0.0329
  932loPI   C6A14240  15.533   6.253   7.823 -0.0304 -0.0246  0.0041
  932loPI   C1B14241  14.268   5.788   6.318 -0.0843 -0.2598  0.1081
  932loPI   C2B14242  14.469   5.654   6.703  0.1310  0.1602 -0.2195
  932loPI   C3B14243  14.539   5.833   7.227  0.0993  0.0812  0.0867
  932loPI   C4B14244  14.461   5.788   7.639  0.0612  0.1689 -0.0786
  933loPI    C114245   9.027   4.940   5.108 -0.0730 -0.1086  0.0484
  933loPI    C214246   8.836   5.204   5.340 -0.2249 -0.2178  0.0490
  933loPI    C314247   9.023   5.328   5.008 -0.1596 -0.0873  0.1338
  933loPI   PO414248   9.232   4.856   5.327  0.1546  0.0924 -0.0612
  933loPI   GL114249   9.244   4.930   5.736 -0.0243 -0.3977 -0.0481
  933loPI   GL214250   9.595   4.941   5.735  0.0949 -0.0358  0.1777
  933loPI   C1A14251   9.042   4.766   6.074 -0.0965 -0.2331  0.1177
  933loPI   C2A14252   8.793   4.616   6.326 -0.0343  0.1399  0.1182
  933loPI   C3A14253   8.617   4.502   6.651 -0.0067 -0.3879 -0.4096
  933loPI   C4A14254   8.506   4.615   7.110  0.0635  0.0037  0.3851
  933loPI   C5A14255   8.554   4.466   7.572 -0.4052  0.1725  0.3295
  933loPI   C6A14256   8.704   4.133   7.875 -0.0874 -0.2943 -0.0594
  933loPI   C1B14257   9.617   4.897   6.171  0.1544  0.0088  0.0413
  933loPI   C2B14258   9.655   4.869   6.648 -0.1308 -0.0570 -0.1789
  933loPI   C3B14259   9.718   4.999   7.116  0.0574 -0.1031  0.0494
  933loPI   C4B14260  10.050   5.025   7.288 -0.2102  0.2388 -0.1732
  934loPI    C114261  16.017   3.472   5.294  0.1087 -0.2490 -0.0218
  934loPI    C214262  16.287   3.600   5.028 -0.0473  0.0460 -0.0417
  934loPI    C314263  15.981   3.371   4.909  0.0361 -0.0526 -0.0675
  934loPI   PO414264  16.167   3.354   5.465  0.1566  0.3910 -0.4343
  934loPI   GL114265  16.201   3.202   5.927 -0.0789 -0.2830 -0.0987
  934loPI   GL214266  15.782   3.282   5.803 -0.1469  0.0249  0.0097
  934loPI   C1A14267  15.877   3.134   6.227 -0.1496  0.1481 -0.0753
  934loPI   C2A14268  15.909   3.239   6.625  0.1191 -0.0230  0.1572
  934loPI   C3A14269  15.980   3.537   7.028  0.0360 -0.2063  0.1432
  934loPI   C4A14270  16.065   3.799   7.484 -0.0254 -0.1960 -0.1266
  934loPI   C5A14271  16.475   3.831   7.664 -0.0688 -0.2046 -0.1926
  934loPI   C6A14272  16.705   3.912   8.077 -0.2951 -0.0969 -0.2591
  934loPI   C1B14273  15.591   3.574   5.980  0.2492  0.0654  0.0438
  934loPI   C2B14274  15.256   3.789   6.222 -0.1940  0.2306  0.0078
  934loPI   C3B14275  15.201   3.777   6.740  0.1512 -0.0270  0.0296
  934loPI   C4B14276  15.198   3.849   7.152  0.2180  0.0792  0.0894
  935loPI    C114277  17.321   6.729   4.975  0.0237  0.0724 -0.0295
  935loPI    C214278  17.092   6.780   4.651 -0.0457  0.1369  0.0291
  935loPI    C314279  17.414   7.011   4.707 -0.0821  0.1831  0.0488
  935loPI   PO414280  17.186   6.762   5.233 -0.2458 -0.3523 -0.0134
  935loPI   GL114281  17.276   6.928   5.701  0.1647  0.0532 -0.0324
  935loPI   GL214282  17.574   7.046   5.730 -0.0707 -0.0916 -0.2613
  935loPI   C1A14283  17.343   6.746   6.157  0.0641 -0.2976  0.1144
  935loPI   C2A14284  17.206   6.885   6.591 -0.1559  0.0742  0.1575
  935loPI   C3A14285  17.138   6.744   7.012 -0.2339  0.1984 -0.1696
  935loPI   C4A14286  16.904   6.660   7.370 -0.0598 -0.1564 -0.2266
  935loPI   C5A14287  16.631   6.559   7.743 -0.1740  0.2643 -0.2397
  935loPI   C6A14288  16.360   6.456   7.831 -0.1677  0.1314 -0.0773
  935loPI   C1B14289  17.870   7.021   6.009  0.1016  0.0285 -0.1144
  935loPI   C2B14290  18.012   6.829   6.344  0.0731 -0.0815  0.2055
  935loPI   C3B14291  18.177   6.536   6.578  0.1855  0.0813 -0.1649
  935loPI   C4B14292  18.370   6.404   7.039  0.1499 -0.0887  0.0336
  936loPI    C114293  11.380  17.978   5.469 -0.0525 -0.2417  0.1769
  936loPI    C214294  11.114  17.699   5.575 -0.1938 -0.1672  0.0236
  936loPI    C314295  11.135  17.820   5.195  0.0453 -0.1564  0.0390
  936loPI   PO414296  11.574  17.936   5.679  0.1554  0.1555  0.2836
  936loPI   GL114297  11.637  17.932   6.125 -0.1169  0.0150 -0.0434
  936loPI   GL214298  11.636  18.266   6.170 -0.1157  0.0110  0.0587
  936loPI   C1A14299  11.228  17.925   6.388 -0.0721  0.1903 -0.2010
  936loPI   C2A14300  11.233  17.762   6.849 -0.3445  0.2522  0.1019
  936loPI   C3A14301  11.180  17.369   7.069  0.1128 -0.1070  0.0719
  936loPI   C4A14302  11.421  17.281   7.467 -0.1526 -0.0741  0.0548
  936loPI   C5A14303  11.326  17.054   7.761  0.1462  0.0352 -0.2586
  936loPI   C6A14304  11.141  16.887   8.209  0.1479  0.0954 -0.2592
  936loPI   C1B14305  12.019  18.223   6.467 -0.1960  0.1455 -0.0390
  936loPI   C2B14306  11.988  18.017   6.944  0.1460 -0.0168 -0.4163
  936loPI   C3B14307  11.892  18.099   7.415 -0.0135  0.3039 -0.0082
  936loPI   C4B14308  11.900  18.221   7.785  0.3308 -0.3080  0.0022
  937loPI    C114309  13.004   0.151   5.434  0.1692 -0.2944  0.2329
  937loPI    C214310  12.644   0.317   5.489  0.2865  0.0371  0.0269
  937loPI    C314311  12.693   0.030   5.214  0.1288 -0.1888  0.2313
  937loPI   PO414312  13.020   0.096   5.679 -0.1770  0.1480 -0.0263
  937loPI   GL114313  13.126   0.295   6.035  0.0589 -0.0313 -0.1061
  937loPI   GL214314  13.000   0.665   6.103 -0.0145  0.1708 -0.0092
  937loPI   C1A14315  13.282  -0.060   6.295  0.0969  0.1929 -0.2206
  937loPI   C2A14316  13.493   0.005   6.647  0.1228  0.3995  0.0069
  937loPI   C3A14317  13.481  -0.039   7.001  0.3007 -0.0929 -0.2954
  937loPI   C4A14318  13.643   0.045   7.454  0.1774 -0.1316  0.2174
  937loPI   C5A14319  13.411   0.360   7.617 -0.1537  0.2562 -0.0088
  937loPI   C6A14320  13.198   0.645   7.445 -0.0016  0.0581 -0.1415
  937loPI   C1B14321  13.213   0.979   6.420  0.3504 -0.1107  0.1354
  937loPI   C2B14322  13.381   1.212   6.840 -0.1514 -0.0557 -0.2355
  937loPI   C3B14323  13.424   1.264   7.262 -0.1157  0.3785 -0.2367
  937loPI   C4B14324  13.258   1.078   7.745  0.0221 -0.0636 -0.1692
  938loPI    C114325  16.297   2.549   5.329  0.0217  0.0725  0.1991
  938loPI    C214326  16.185   2.914   5.209 -0.1585 -0.0717 -0.0845
  938loPI    C314327  16.501   2.736   5.040 -0.0152 -0.0117  0.1176
  938loPI   PO414328  16.356   2.614   5.622 -0.0717  0.2564  0.1348
  938loPI   GL114329  16.437   2.796   6.005 -0.1548 -0.3444  0.1806
  938loPI   GL214330  16.763   2.757   5.913  0.0072 -0.5390 -0.2296
  938loPI   C1A14331  16.452   2.468   6.290 -0.1000 -0.3163 -0.1493
  938loPI   C2A14332  16.338   2.340   6.715  0.0607 -0.1488 -0.0612
  938loPI   C3A14333  16.387   2.389   7.197  0.0605  0.2802 -0.1184
  938loPI   C4A14334  16.493   2.533   7.515  0.3274  0.0408  0.2458
  938loPI   C5A14335  16.197   2.805   7.723  0.0659 -0.1012  0.0922
  938loPI   C6A14336  16.420   3.111   7.876  0.1162 -0.1496  0.0232
  938loPI   C1B14337  16.796   2.824   6.350 -0.0689 -0.0903 -0.5765
  938loPI   C2B14338  16.665   2.792   6.744 -0.1484 -0.3853 -0.3824
  938loPI   C3B14339  16.675   2.855   7.154  0.0144 -0.1280  0.4102
  938loPI   C4B14340  16.870   3.005   7.529 -0.2863 -0.1989  0.2024
  939loPI    C114341  17.889   3.275   5.011  0.1959  0.2790 -0.1171
  939loPI    C214342  17.593   3.356   4.754  0.0256  0.0469  0.0019
  939loPI    C314343  17.837   3.046   4.687 -0.1937 -0.1865  0.2580
  939loPI   PO414344  17.876   3.412   5.207 -0.1314  0.2723 -0.0847
  939loPI   GL114345  18.057   3.321   5.608  0.2787  0.1729  0.1780
  939loPI   GL214346  17.823   3.524   5.705 -0.0192  0.5289 -0.0836
  939loPI   C1A14347  18.305   3.277   6.028  0.0267  0.1075 -0.0281
  939loPI   C2A14348  18.525   3.219   6.451 -0.1613  0.4052 -0.3476
  939loPI   C3A14349  18.837   3.223   6.667  0.2103  0.0684  0.2161
  939loPI   C4A14350  18.961   3.300   7.049 -0.1208 -0.0258  0.0425
  939loPI   C5A14351  19.309   2.920   7.243  0.1723 -0.1142  0.0890
  939loPI   C6A14352  19.098   2.533   7.437 -0.0308  0.1210 -0.1723
  939loPI   C1B14353  17.923   3.537   6.191  0.1068 -0.0454 -0.2434
  939loPI   C2B14354  17.877   3.646   6.589  0.1176 -0.3510 -0.2282
  939loPI   C3B14355  18.010   3.481   6.910 -0.2476 -0.0575  0.0259
  939loPI   C4B14356  18.357   3.285   7.070 -0.1186 -0.1800  0.0069
  940loPI    C114357   6.265   5.699   5.236  0.3908  0.1799 -0.3163
  940loPI    C214358   6.039   5.722   4.907 -0.3766  0.0556  0.1773
  940loPI    C314359   6.336   5.455   4.927 -0.3129  0.0690 -0.4067
  940loPI   PO414360   6.154   5.643   5.376  0.0554 -0.3178 -0.0991
  940loPI   GL114361   6.114   5.635   5.789 -0.0717 -0.0233  0.0762
  940loPI   GL214362   6.247   5.337   5.805 -0.0146 -0.2192  0.1033
  940loPI   C1A14363   6.002   5.622   6.238 -0.0855  0.1451 -0.0620
  940loPI   C2A14364   5.938   5.574   6.697 -0.0523 -0.0267 -0.1298
  940loPI   C3A14365   5.762   5.536   7.177 -0.0395 -0.0048  0.0353
  940loPI   C4A14366   5.409   5.447   7.366  0.0005  0.2356  0.1046
  940loPI   C5A14367   5.120   5.621   7.710 -0.0576 -0.1289 -0.0122
  940loPI   C6A14368   5.214   6.086   7.898  0.0514 -0.1679  0.2182
  940loPI   C1B14369   6.435   5.331   6.214 -0.1204  0.1084  0.0620
  940loPI   C2B14370   6.434   5.432   6.591 -0.3462 -0.0055  0.0225
  940loPI   C3B14371   6.442   5.576   6.977  0.2462 -0.2004 -0.1792
  940loPI   C4B14372   6.170   5.666   7.352  0.0534 -0.1249  0.0310
  941loPI    C114373   1.690   2.840   4.913 -0.0544  0.0282  0.4168
  941loPI    C214374   1.673   3.236   4.859  0.0488  0.0315  0.4078
  941loPI    C314375   1.551   2.990   4.569  0.1555  0.0548  0.3423
  941loPI   PO414376   1.898   2.810   5.067  0.0308 -0.1251  0.0115
  941loPI   GL114377   1.964   2.771   5.435  0.0102  0.0225 -0.1885
  941loPI   GL214378   2.282   2.865   5.372  0.0944  0.0644  0.1120
  941loPI   C1A14379   2.102   2.579   5.857  0.0285 -0.1312  0.2380
  941loPI   C2A14380   2.027   2.230   6.154  0.1010  0.3275 -0.0900
  941loPI   C3A14381   1.874   2.098   6.544 -0.1430  0.0259 -0.1813
  941loPI   C4A14382   1.637   1.852   6.893 -0.1786  0.1738  0.1467
  941loPI   C5A14383   1.402   1.725   7.153 -0.1382  0.3356  0.2210
  941loPI   C6A14384   1.154   1.533   7.509  0.1482  0.0872 -0.2461
  941loPI   C1B14385   1.994   3.107   5.776  0.0947  0.1608  0.1639
  941loPI   C2B14386   1.689   2.949   6.143  0.2563  0.1964  0.0802
  941loPI   C3B14387   1.528   2.910   6.587 -0.0191  0.0544 -0.1825
  941loPI   C4B14388   1.273   2.824   6.896  0.2889 -0.0538 -0.2895
  942loPI    C114389   6.621  18.399   4.810 -0.2429 -0.0011  0.1788
  942loPI    C214390   6.554  18.569   4.454  0.1111 -0.1408  0.0417
  942loPI    C314391   6.353  18.240   4.560 -0.1419  0.0166  0.0586
  942loPI   PO414392   6.645  18.509   4.933  0.0393  0.1397  0.3040
  942loPI   GL114393   6.480  18.647   5.351  0.1718  0.0661 -0.3582
  942loPI   GL214394   6.411  18.958   5.505  0.2214  0.2182  0.1382
  942loPI   C1A14395   6.392  18.457   5.804 -0.0090 -0.0376 -0.1895
  942loPI   C2A14396   6.411  18.489   6.269  0.0409  0.0725  0.0199
  942loPI   C3A14397   6.178  18.508   6.701  0.0471 -0.2254 -0.0255
  942loPI   C4A14398   6.180  18.504   7.142 -0.3288 -0.0323  0.1679
  942loPI   C5A14399   6.040  18.526   7.583 -0.0386 -0.0390 -0.0610
  942loPI   C6A14400   5.731  18.230   7.825 -0.0464  0.0855  0.0766
  942loPI   C1B14401   6.322  18.984   6.003 -0.0209  0.0295 -0.0139
  942loPI   C2B14402   6.254  18.966   6.456  0.2260 -0.4873  0.0713
  942loPI   C3B14403   6.072  19.008   6.904  0.0800 -0.2035  0.0166
  942loPI   C4B14404   5.972  18.976   7.378 -0.2503 -0.0559  0.0855
  943loPI    C114405   6.183   0.166   4.719 -0.1193 -0.0333 -0.0929
  943loPI    C214406   5.874   0.296   4.501 -0.1638 -0.0116 -0.0169
  943loPI    C314407   5.917  -0.095   4.573 -0.0975 -0.0278 -0.1423
  943loPI   PO414408   6.254   0.308   4.969  0.1306 -0.0860  0.2019
  943loPI   GL114409   5.972   0.230   5.434  0.0501  0.0727  0.3573
  943loPI   GL214410   5.945   0.040   5.748 -0.0641  0.2073  0.2764
  943loPI   C1A14411   5.871   0.525   5.708  0.1279  0.0946  0.0817
  943loPI   C2A14412   5.856   0.570   6.138 -0.1728  0.4444 -0.1394
  943loPI   C3A14413   5.740   0.639   6.526 -0.1675  0.2961 -0.1109
  943loPI   C4A14414   5.610   0.579   7.000 -0.1050  0.3373 -0.0270
  943loPI   C5A14415   5.515   0.597   7.429 -0.0515 -0.1053  0.2732
  943loPI   C6A14416   5.391   0.472   7.855 -0.0200  0.3054 -0.1571
  943loPI   C1B14417   5.977   0.048   6.222  0.1591 -0.1312 -0.0970
  943loPI   C2B14418   5.727   0.111   6.544 -0.0609 -0.2658  0.2702
  943loPI   C3B14419   5.693   0.105   6.988 -0.0662 -0.1372 -0.0015
  943loPI   C4B14420   5.576   0.092   7.544 -0.1910 -0.1961  0.1855
  944loPI    C114421  16.443  11.240   5.354  0.0173 -0.1013  0.1402
  944loPI    C214422  16.099  11.239   5.150  0.0509 -0.0937  0.0835
  944loPI    C314423  16.353  10.932   5.114  0.2961  0.1466 -0.2940
  944loPI   PO414424  16.366  11.275   5.610 -0.0590 -0.3007  0.4549
  944loPI   GL114425  16.381  11.053   5.955  0.0057  0.2609  0.1002
  944loPI   GL214426  16.163  10.820   5.990  0.0643 -0.3069 -0.0585
  944loPI   C1A14427  16.258  11.080   6.426  0.2413 -0.0823 -0.1708
  944loPI   C2A14428  16.444  11.205   6.777  0.1300 -0.3450 -0.0715
  944loPI   C3A14429  16.813  11.078   6.946  0.1852 -0.1144  0.1123
  944loPI   C4A14430  17.185  11.178   7.194  0.3148  0.2673  0.2195
  944loPI   C5A14431  17.511  11.083   7.400 -0.1292 -0.2349  0.0562
  944loPI   C6A14432  17.627  11.198   7.794  0.0393  0.0979  0.0392
  944loPI   C1B14433  16.300  10.463   6.217 -0.0188  0.1118 -0.1849
  944loPI   C2B14434  16.608  10.669   6.448  0.0732 -0.1113  0.2713
  944loPI   C3B14435  16.825  11.066   6.367 -0.2465  0.2742  0.0820
  944loPI   C4B14436  17.031  11.413   6.657  0.1125 -0.0253  0.2656
  945loPI    C114437  15.984   2.284   5.578  0.3210 -0.0197 -0.1447
  945loPI    C214438  16.045   2.146   5.207  0.1753  0.0906 -0.2108
  945loPI    C314439  15.672   2.211   5.338  0.2135 -0.1728  0.0388
  945loPI   PO414440  16.113   2.125   5.695 -0.0436 -0.0843  0.0243
  945loPI   GL114441  16.323   1.975   5.985  0.0999  0.1502  0.0445
  945loPI   GL214442  16.542   2.146   5.945  0.0313 -0.2748 -0.2322
  945loPI   C1A14443  16.079   2.053   6.344  0.1294 -0.0127  0.1191
  945loPI   C2A14444  15.971   2.004   6.741 -0.4478 -0.0134 -0.0452
  945loPI   C3A14445  15.810   2.245   7.081  0.2614 -0.3692  0.1874
  945loPI   C4A14446  15.922   2.447   7.436 -0.3866 -0.0888  0.2999
  945loPI   C5A14447  16.057   2.883   7.282 -0.1475  0.1974  0.3002
  945loPI   C6A14448  16.260   3.110   6.929  0.4407 -0.0480 -0.1484
  945loPI   C1B14449  16.595   1.986   6.487 -0.3444  0.3746 -0.2019
  945loPI   C2B14450  16.626   1.939   6.930 -0.1586  0.1638  0.4500
  945loPI   C3B14451  16.653   1.970   7.461 -0.0579 -0.0273  0.2979
  945loPI   C4B14452  16.572   1.819   7.841  0.2313  0.3117  0.0535
  946loPI    C114453   2.055   0.960   4.758  0.0312 -0.1303 -0.2876
  946loPI    C214454   2.187   0.583   4.777  0.2334 -0.0482 -0.0009
  946loPI    C314455   2.445   0.887   4.806  0.0569  0.1144 -0.1081
  946loPI   PO414456   1.872   1.037   4.969 -0.0345 -0.0420  0.1505
  946loPI   GL114457   1.657   1.066   5.344  0.0318 -0.4456  0.1837
  946loPI   GL214458   1.592   0.763   5.329  0.1752  0.3368 -0.0108
  946loPI   C1A14459   1.913   0.860   5.732  0.1388  0.2284  0.0549
  946loPI   C2A14460   1.751   0.610   6.040  0.3654 -0.2390 -0.2579
  946loPI   C3A14461   1.690   0.518   6.542 -0.1135  0.1516 -0.2743
  946loPI   C4A14462   1.674   0.224   6.846 -0.1093  0.2180  0.3155
  946loPI   C5A14463   1.737  -0.106   7.078  0.2936  0.2664  0.1077
  946loPI   C6A14464   1.537  -0.453   7.253  0.2433 -0.1747  0.0023
  946loPI   C1B14465   1.673   0.358   5.598  0.1940  0.0670  0.2552
  946loPI   C2B14466   1.586   0.184   6.088 -0.2206 -0.2077  0.2031
  946loPI   C3B14467   1.582  -0.026   6.415  0.1581 -0.0757 -0.0298
  946loPI   C4B14468   1.470  -0.383   6.666  0.2857  0.1258 -0.1534
  947loPI    C114469   5.289   2.397   4.920 -0.2119  0.0111  0.0313
  947loPI    C214470   5.213   2.004   4.932  0.1595 -0.0670 -0.0397
  947loPI    C314471   5.554   2.137   4.770  0.0664  0.2823  0.0425
  947loPI   PO414472   5.104   2.485   5.164  0.0178 -0.0909 -0.0917
  947loPI   GL114473   5.330   2.756   5.471  0.1554 -0.1256 -0.1852
  947loPI   GL214474   5.347   2.549   5.648  0.0860  0.2335 -0.2301
  947loPI   C1A14475   5.162   2.999   5.794  0.3082 -0.1373 -0.2477
  947loPI   C2A14476   5.086   3.032   6.159  0.0236 -0.0819  0.2881
  947loPI   C3A14477   5.179   3.032   6.630 -0.2952 -0.2091 -0.0328
  947loPI   C4A14478   5.267   3.179   6.986  0.2563  0.2964 -0.1710
  947loPI   C5A14479   5.269   3.368   7.369  0.3321  0.0788  0.0495
  947loPI   C6A14480   5.183   3.378   7.778 -0.2471  0.0551 -0.2044
  947loPI   C1B14481   5.258   2.545   6.049  0.1248 -0.2337  0.0495
  947loPI   C2B14482   5.267   2.583   6.397 -0.0630  0.0046 -0.0883
  947loPI   C3B14483   5.276   2.646   6.855  0.0973  0.0300 -0.0273
  947loPI   C4B14484   5.274   2.758   7.322  0.0289 -0.1324 -0.0037
  948loPI    C114485   4.445   7.742   5.145 -0.0796  0.1325 -0.0062
  948loPI    C214486   4.701   7.663   5.442 -0.1089  0.0733  0.0036
  948loPI    C314487   4.745   7.995   5.222  0.0615 -0.0085 -0.0876
  948loPI   PO414488   4.240   7.734   5.284 -0.0276  0.0782 -0.0515
  948loPI   GL114489   4.104   7.550   5.684  0.0675 -0.2977  0.0710
  948loPI   GL214490   4.399   7.330   5.687  0.1562  0.0893  0.0158
  948loPI   C1A14491   4.083   7.707   6.078 -0.2916 -0.0190  0.2787
  948loPI   C2A14492   4.034   7.629   6.470 -0.0999 -0.1337  0.0506
  948loPI   C3A14493   3.948   7.464   6.865  0.0349 -0.0525  0.0768
  948loPI   C4A14494   4.157   7.276   7.172  0.0603  0.1941 -0.0741
  948loPI   C5A14495   4.324   7.104   7.456 -0.0921  0.3486 -0.0453
  948loPI   C6A14496   4.722   7.043   7.576  0.0731  0.1571 -0.1449
  948loPI   C1B14497   4.303   7.266   6.067 -0.3512  0.1512  0.0866
  948loPI   C2B14498   4.439   7.165   6.452  0.1432 -0.1852 -0.0333
  948loPI   C3B14499   4.151   6.998   6.753  0.0309 -0.0661  0.0822
  948loPI   C4B14500   3.907   6.621   6.847 -0.0430 -0.0675 -0.0227
  949loPI    C114501  10.225  10.646   5.043  0.1407 -0.0105 -0.1030
  949loPI    C214502  10.209  10.599   4.646  0.2815  0.4360 -0.1677
  949loPI    C314503  10.214  10.967   4.804 -0.1576  0.2661  0.2686
  949loPI   PO414504  10.012  10.556   5.187 -0.2101  0.2510  0.1219
  949loPI   GL114505   9.893  10.580   5.605 -0.0177  0.2180  0.1309
  949loPI   GL214506   9.521  10.689   5.671  0.3310  0.1064 -0.1705
  949loPI   C1A14507   9.895  10.596   6.052  0.1538 -0.3629 -0.0767
  949loPI   C2A14508   9.852  10.680   6.518 -0.0524 -0.0076  0.0237
  949loPI   C3A14509   9.949  10.763   6.942 -0.0989 -0.0382  0.0190
  949loPI   C4A14510  10.182  10.551   7.218 -0.2364  0.0119 -0.2121
  949loPI   C5A14511  10.551  10.699   7.458  0.1469 -0.1487  0.1112
  949loPI   C6A14512  10.673  10.349   7.581  0.2558  0.2086  0.0047
  949loPI   C1B14513   9.376  10.529   6.054 -0.1215 -0.0871 -0.2570
  949loPI   C2B14514   9.234  10.364   6.505  0.0644 -0.0975  0.2079
  949loPI   C3B14515   9.107  10.301   6.918  0.0564  0.2337 -0.2239
  949loPI   C4B14516   9.003  10.513   7.333 -0.0074  0.1532 -0.1105
  950loPI    C114517   5.466  15.420   5.043  0.0788  0.0237  0.0966
  950loPI    C214518   5.456  15.687   4.745  0.1854 -0.1692 -0.0826
  950loPI    C314519   5.614  15.787   5.099 -0.2838  0.1830  0.0364
  950loPI   PO414520   5.176  15.328   5.107  0.1011  0.1057  0.2150
  950loPI   GL114521   5.179  15.048   5.413  0.0222  0.0812  0.0343
  950loPI   GL214522   5.136  14.847   5.514  0.1311  0.4962  0.3550
  950loPI   C1A14523   4.981  15.234   5.785  0.1856  0.1672  0.2571
  950loPI   C2A14524   4.918  15.258   6.263  0.1273  0.2049 -0.1313
  950loPI   C3A14525   4.800  15.193   6.674  0.1968  0.0516 -0.0136
  950loPI   C4A14526   4.733  15.116   7.059 -0.1959  0.1723  0.0628
  950loPI   C5A14527   5.037  14.979   7.413  0.0046  0.4851 -0.3334
  950loPI   C6A14528   5.333  14.852   7.681  0.1611  0.1901  0.1205
  950loPI   C1B14529   5.277  14.853   5.964  0.1461  0.1654 -0.0954
  950loPI   C2B14530   5.211  14.847   6.353  0.4469 -0.0182  0.2457
  950loPI   C3B14531   5.238  14.867   6.858 -0.0654  0.0548  0.2358
  950loPI   C4B14532   5.342  14.557   7.216  0.0682  0.2834  0.2887
  951loPI    C114533   4.498   3.614   4.852  0.2385 -0.0450  0.1593
  951loPI    C214534   4.805   3.731   4.624  0.1381  0.0050  0.0489
  951loPI    C314535   4.832   3.394   4.837  0.1187 -0.2070 -0.2770
  951loPI   PO414536   4.365   3.753   4.998 -0.1434 -0.2843  0.1367
  951loPI   GL114537   4.012   3.860   5.264 -0.0657 -0.2172 -0.1108
  951loPI   GL214538   3.679   4.038   5.242  0.1816 -0.1475  0.2891
  951loPI   C1A14539   4.033   3.668   5.747  0.1689 -0.2003 -0.1728
  951loPI   C2A14540   4.067   3.417   6.082 -0.2326 -0.1277  0.2900
  951loPI   C3A14541   4.097   3.261   6.573  0.1208  0.0648 -0.1319
  951loPI   C4A14542   4.178   3.240   7.103 -0.2077  0.0837  0.0041
  951loPI   C5A14543   4.440   3.432   7.399  0.2059 -0.0171 -0.2987
  951loPI   C6A14544   4.842   3.600   7.475  0.2498 -0.1450 -0.1222
  951loPI   C1B14545   3.706   4.018   5.663 -0.2276 -0.0549  0.2732
  951loPI   C2B14546   3.781   3.840   6.089 -0.0299 -0.0814 -0.0606
  951loPI   C3B14547   3.970   3.805   6.432 -0.2201 -0.0457 -0.0068
  951loPI   C4B14548   3.878   3.743   6.851 -0.0821  0.0697  0.0017
  952loPI    C114549   3.310  10.141   4.834  0.1702  0.3503 -0.0926
  952loPI    C214550   3.299   9.930   4.494 -0.1011  0.0233  0.1123
  952loPI    C314551   3.438   9.762   4.830 -0.1617  0.2277  0.2418
  952loPI   PO414552   3.169  10.298   4.977 -0.0384 -0.1251 -0.0874
  952loPI   GL114553   3.009  10.297   5.404 -0.1356  0.0038 -0.2378
  952loPI   GL214554   2.912  10.562   5.402  0.4753  0.1446 -0.0206
  952loPI   C1A14555   2.992  10.334   5.965 -0.3063  0.0946  0.5610
  952loPI   C2A14556   3.019  10.347   6.418  0.2303  0.2000 -0.0353
  952loPI   C3A14557   3.108  10.330   6.886  0.0727 -0.0450  0.0970
  952loPI   C4A14558   3.026  10.275   7.335  0.4186  0.0459 -0.1896
  952loPI   C5A14559   3.185  10.458   7.741  0.4287  0.0081 -0.1147
  952loPI   C6A14560   3.536  10.644   8.116  0.2722 -0.1306  0.1939
  952loPI   C1B14561   3.103  10.764   5.699  0.1828 -0.0520 -0.1059
  952loPI   C2B14562   3.223  10.790   6.129  0.0837 -0.0317 -0.0617
  952loPI   C3B14563   3.201  10.791   6.620 -0.1170 -0.0353  0.0966
  952loPI   C4B14564   3.296  10.676   7.208 -0.0660 -0.2317  0.1969
  953loPI    C114565  15.696  17.070   5.345  0.0064 -0.0256 -0.1422
  953loPI    C214566  15.304  17.148   5.373  0.0181 -0.0424  0.0897
  953loPI    C314567  15.491  17.183   5.021 -0.1807  0.0155 -0.0113
  953loPI   PO414568  15.710  16.927   5.534 -0.0308 -0.0582 -0.3019
  953loPI   GL114569  15.686  17.014   5.929  0.2412  0.0654  0.0555
  953loPI   GL214570  15.954  16.787   5.946 -0.2157 -0.5742  0.3500
  953loPI   C1A14571  15.758  17.052   6.375  0.2262  0.0203  0.0224
  953loPI   C2A14572  15.682  17.120   6.789  0.1491 -0.0456 -0.1137
  953loPI   C3A14573  15.718  17.303   7.154  0.1534 -0.1829 -0.0130
  953loPI   C4A14574  15.589  17.373   7.472 -0.1323  0.1149 -0.2884
  953loPI   C5A14575  15.429  17.214   7.970  0.0290  0.1717 -0.1634
  953loPI   C6A14576  15.247  17.121   8.299  0.1813 -0.1395 -0.4737
  953loPI   C1B14577  16.134  16.759   6.327 -0.0828 -0.1235 -0.0741
  953loPI   C2B14578  16.077  16.763   6.825 -0.1335  0.0888 -0.4250
  953loPI   C3B14579  15.931  16.821   7.277  0.1526  0.0420 -0.1522
  953loPI   C4B14580  15.458  16.878   7.513 -0.1150 -0.2247 -0.2979
  954loPI    C114581  11.995   6.049   5.281  0.1757  0.4116 -0.2020
  954loPI    C214582  11.706   6.199   5.049 -0.0102  0.0122 -0.2374
  954loPI    C314583  11.802   5.812   5.023  0.2181  0.0423  0.0973
  954loPI   PO414584  11.980   6.139   5.630 -0.1654 -0.4459  0.0332
  954loPI   GL114585  11.784   6.326   5.982 -0.0191 -0.1143  0.1119
  954loPI   GL214586  11.660   6.631   6.040 -0.1787  0.0081 -0.0298
  954loPI   C1A14587  11.582   6.254   6.416 -0.2772 -0.3244 -0.1179
  954loPI   C2A14588  11.511   6.254   6.831 -0.0543 -0.1439  0.0462
  954loPI   C3A14589  11.499   6.108   7.244 -0.3261  0.0874 -0.0895
  954loPI   C4A14590  11.478   5.809   7.602  0.5154 -0.2878  0.2459
  954loPI   C5A14591  11.417   5.406   7.844  0.0248 -0.0783 -0.0254
  954loPI   C6A14592  11.054   5.163   8.097  0.3784  0.2355 -0.0186
  954loPI   C1B14593  11.945   6.753   6.332  0.1068 -0.1450  0.1852
  954loPI   C2B14594  11.947   6.993   6.838 -0.1337 -0.1239  0.1113
  954loPI   C3B14595  12.016   7.004   7.263 -0.0567  0.4659  0.1373
  954loPI   C4B14596  11.905   6.855   7.696  0.0274 -0.0338 -0.0131
  955loPI    C114597   2.896   9.463   5.378 -0.0854 -0.1245 -0.1849
  955loPI    C214598   2.771   9.836   5.448 -0.0769 -0.1243 -0.1707
  955loPI    C314599   2.524   9.571   5.278 -0.1275 -0.1503 -0.0575
  955loPI   PO414600   3.167   9.474   5.559  0.2471 -0.2069 -0.2269
  955loPI   GL114601   3.223   9.796   5.827  0.0026 -0.3086 -0.0543
  955loPI   GL214602   2.920   9.866   5.910 -0.1559 -0.0171  0.1213
  955loPI   C1A14603   3.317   9.891   6.248  0.0810 -0.1368 -0.1017
  955loPI   C2A14604   3.351   9.787   6.642  0.0755  0.0314 -0.1821
  955loPI   C3A14605   3.357   9.948   7.097 -0.0281  0.1591  0.2589
  955loPI   C4A14606   3.256   9.841   7.496  0.0768 -0.3714 -0.1326
  955loPI   C5A14607   3.500   9.549   7.733  0.1182 -0.2142 -0.0193
  955loPI   C6A14608   3.941   9.405   7.711  0.3313  0.0213  0.1847
  955loPI   C1B14609   2.795   9.816   6.314 -0.2776  0.0492  0.1205
  955loPI   C2B14610   2.813   9.819   6.783 -0.0495 -0.4684  0.0302
  955loPI   C3B14611   2.776   9.687   7.222  0.1646 -0.2435 -0.0589
  955loPI   C4B14612   2.590   9.505   7.586 -0.0863 -0.0745 -0.3730
  956loPI    C114613   3.026   3.192   4.948 -0.1641  0.1188 -0.0864
  956loPI    C214614   2.949   2.868   4.726 -0.0859 -0.0158  0.0801
  956loPI    C314615   3.217   3.137   4.601 -0.0279 -0.1006  0.0204
  956loPI   PO414616   3.159   3.183   5.184 -0.3071 -0.0427 -0.1859
  956loPI   GL114617   3.251   3.345   5.555  0.2835 -0.0592 -0.0636
  956loPI   GL214618   3.347   3.006   5.681 -0.5227  0.0991  0.1751
  956loPI   C1A14619   3.609   3.386   5.923 -0.0755 -0.1487 -0.0647
  956loPI   C2A14620   3.672   3.394   6.384 -0.3083 -0.0270  0.2584
  956loPI   C3A14621   3.677   3.267   6.844 -0.0283 -0.0088 -0.2085
  956loPI   C4A14622   3.744   3.473   7.275  0.1165  0.0116 -0.2162
  956loPI   C5A14623   4.065   3.744   7.462 -0.0138 -0.0540 -0.5387
  956loPI   C6A14624   4.452   3.867   7.735 -0.0005 -0.0932 -0.1374
  956loPI   C1B14625   2.913   2.894   6.028 -0.0240 -0.1581 -0.0477
  956loPI   C2B14626   2.793   2.854   6.304 -0.0918  0.0153  0.2495
  956loPI   C3B14627   2.906   2.780   6.673 -0.4137 -0.2140  0.0497
  956loPI   C4B14628   2.728   2.546   6.970 -0.1510  0.0419  0.0817
  957loPI    C114629   9.340  13.459   5.103  0.2929  0.0548  0.3113
  957loPI    C214630   9.192  13.089   5.141 -0.0446  0.1591  0.0550
  957loPI    C314631   9.153  13.286   4.795  0.1220  0.4410  0.1928
  957loPI   PO414632   9.510  13.499   5.313 -0.0759  0.2783 -0.0225
  957loPI   GL114633   9.591  13.437   5.822  0.1675  0.0286 -0.1082
  957loPI   GL214634   9.671  13.233   6.138  0.0930  0.2160 -0.1200
  957loPI   C1A14635   9.227  13.489   6.149  0.2520 -0.1991  0.2130
  957loPI   C2A14636   9.226  13.375   6.546 -0.0700  0.1861 -0.2288
  957loPI   C3A14637   9.278  13.337   7.004 -0.1034 -0.0650  0.1609
  957loPI   C4A14638   9.260  13.475   7.433 -0.0631 -0.1902  0.0349
  957loPI   C5A14639   9.327  13.210   7.731  0.3028 -0.1624  0.1483
  957loPI   C6A14640   9.305  12.791   7.926  0.0942 -0.1708 -0.1576
  957loPI   C1B14641   9.698  13.376   6.520  0.5452  0.0839  0.0444
  957loPI   C2B14642   9.736  13.573   6.941 -0.0234  0.0192 -0.2715
  957loPI   C3B14643   9.796  13.403   7.344  0.0321  0.0706  0.2627
  957loPI   C4B14644   9.490  12.972   7.315  0.1864 -0.3083 -0.1250
  958loPI    C114645   6.818  10.759   5.468  0.0396  0.1759 -0.0549
  958loPI    C214646   6.974  10.468   5.243 -0.3516 -0.1054  0.0266
  958loPI    C314647   6.889  10.823   5.080  0.0635 -0.0547 -0.0898
  958loPI   PO414648   6.671  10.683   5.605  0.2266  0.4538  0.4422
  958loPI   GL114649   6.720  10.731   5.975  0.2189  0.1270  0.0884
  958loPI   GL214650   6.592  10.325   5.990 -0.2972 -0.0247  0.0300
  958loPI   C1A14651   6.583  10.714   6.364 -0.3326  0.3591 -0.1294
  958loPI   C2A14652   6.603  10.616   6.839 -0.0749  0.0212 -0.2409
  958loPI   C3A14653   6.562  10.387   7.110  0.1094 -0.0769 -0.0427
  958loPI   C4A14654   6.357   9.995   7.463  0.2075  0.0111  0.2188
  958loPI   C5A14655   6.131   9.845   7.848  0.3222 -0.0911  0.1935
  958loPI   C6A14656   5.865   9.862   8.149 -0.1101  0.0631 -0.0448
  958loPI   C1B14657   6.441  10.204   6.438  0.0574  0.2348  0.3003
  958loPI   C2B14658   6.305   9.880   6.699  0.0008  0.0493  0.0257
  958loPI   C3B14659   6.474   9.498   6.830 -0.0219 -0.0095 -0.1644
  958loPI   C4B14660   6.627   9.288   7.103 -0.0925  0.0991  0.0239
  959loPI    C114661   0.899   6.470   4.948  0.0229  0.0904 -0.4812
  959loPI    C214662   1.076   6.187   4.727 -0.1653 -0.3030 -0.1438
  959loPI    C314663   0.723   6.114   4.900 -0.2484  0.1667 -0.0994
  959loPI   PO414664   1.064   6.448   5.145  0.5287 -0.1584  0.0201
  959loPI   GL114665   0.909   6.641   5.582 -0.3572 -0.2186 -0.2368
  959loPI   GL214666   0.536   6.637   5.664 -0.2674 -0.0080  0.0273
  959loPI   C1A14667   0.811   6.630   6.119 -0.0093  0.1041  0.3306
  959loPI   C2A14668   1.078   6.241   6.355 -0.0116 -0.0103 -0.1014
  959loPI   C3A14669   1.090   6.000   6.717 -0.0899 -0.0936 -0.0463
  959loPI   C4A14670   1.078   5.893   7.118 -0.3250  0.0134  0.1179
  959loPI   C5A14671   0.984   5.928   7.469  0.0509  0.0093 -0.1222
  959loPI   C6A14672   1.125   5.649   7.724  0.1102  0.0665  0.2335
  959loPI   C1B14673   0.344   6.318   5.943  0.1780  0.1229  0.0828
  959loPI   C2B14674   0.587   6.217   6.324  0.3544 -0.0414 -0.0147
  959loPI   C3B14675   0.600   5.945   6.702  0.2743 -0.0609  0.0566
  959loPI   C4B14676   0.559   5.753   7.064  0.0469 -0.0464 -0.1343
  960loPI    C114677   6.897   5.497   5.075 -0.1481  0.2158  0.0300
  960loPI    C214678   7.127   5.722   4.837 -0.0128  0.2200  0.1639
  960loPI    C314679   6.831   5.504   4.680  0.1847  0.0879 -0.0312
  960loPI   PO414680   6.778   5.588   5.204 -0.3907  0.2663  0.1877
  960loPI   GL114681   7.081   5.553   5.721  0.1381  0.1524  0.0572
  960loPI   GL214682   6.766   5.440   5.811 -0.0027 -0.1324 -0.0870
  960loPI   C1A14683   7.312   5.491   6.035  0.0766  0.0842 -0.2268
  960loPI   C2A14684   7.381   5.700   6.488 -0.3983  0.5353 -0.2772
  960loPI   C3A14685   7.532   5.744   6.913  0.2195  0.1252  0.2207
  960loPI   C4A14686   7.580   5.581   7.411 -0.3341  0.4608 -0.0707
  960loPI   C5A14687   7.269   5.503   7.674 -0.0093  0.2815 -0.0012
  960loPI   C6A14688   6.978   5.892   7.743 -0.2464  0.3297  0.1076
  960loPI   C1B14689   6.890   5.532   6.173  0.1521 -0.1862 -0.0100
  960loPI   C2B14690   6.893   5.598   6.577  0.2097 -0.1027  0.2379
  960loPI   C3B14691   6.963   5.658   6.933  0.4050 -0.1597 -0.2444
  960loPI   C4B14692   6.761   5.719   7.340  0.1453 -0.1605 -0.3087
  961loPI    C114693   0.713   9.791   5.104  0.0731 -0.0401  0.0651
  961loPI    C214694   0.956   9.918   5.394  0.1214 -0.1306  0.0646
  961loPI    C314695   1.043   9.996   5.012  0.0962 -0.0749  0.0701
  961loPI   PO414696   0.727   9.556   5.116  0.1153  0.4248 -0.1699
  961loPI   GL114697   0.498   9.303   5.414 -0.2477  0.2199  0.2005
  961loPI   GL214698   0.412   9.019   5.356  0.0421 -0.0865 -0.2733
  961loPI   C1A14699   0.667   9.461   5.766 -0.0602 -0.0907 -0.0760
  961loPI   C2A14700   0.702   9.575   6.232  0.0886  0.0743 -0.2579
  961loPI   C3A14701   0.704   9.393   6.604  0.0665 -0.0304 -0.0807
  961loPI   C4A14702   0.874   9.370   7.032  0.0718 -0.0287  0.1802
  961loPI   C5A14703   0.908   9.557   7.407 -0.0478  0.2412 -0.0749
  961loPI   C6A14704   1.126   9.602   7.737  0.0560  0.2601 -0.1488
  961loPI   C1B14705   0.592   8.941   5.743 -0.1809  0.2752  0.0273
  961loPI   C2B14706   0.431   9.145   6.088 -0.0726  0.3497  0.0668
  961loPI   C3B14707   0.230   9.286   6.466 -0.0513 -0.2444  0.1905
  961loPI   C4B14708   0.197   9.427   6.898  0.2635 -0.1348 -0.1013
  962loPI    C114709  12.852  10.385   5.104 -0.3743  0.0140 -0.0816
  962loPI    C214710  13.004  10.046   4.957 -0.1186  0.0322  0.1349
  962loPI    C314711  12.926  10.352   4.712 -0.1069 -0.0910 -0.0244
  962loPI   PO414712  12.716  10.296   5.315 -0.0046 -0.3902  0.5341
  962loPI   GL114713  12.558  10.488   5.658 -0.1193  0.0621 -0.0204
  962loPI   GL214714  12.726  10.744   5.866 -0.3542 -0.1806  0.0023
  962loPI   C1A14715  12.687  10.281   6.033  0.0090 -0.0633  0.3489
  962loPI   C2A14716  12.649  10.307   6.519 -0.0197 -0.0305  0.1333
  962loPI   C3A14717  12.559  10.260   6.924 -0.3396  0.2335  0.1139
  962loPI   C4A14718  12.586  10.246   7.469  0.1880  0.2655 -0.0042
  962loPI   C5A14719  12.624  10.563   7.884 -0.3361  0.0302  0.0464
  962loPI   C6A14720  12.813  10.761   8.254 -0.1638 -0.0751  0.1917
  962loPI   C1B14721  12.588  10.732   6.282 -0.1855  0.0354  0.0478
  962loPI   C2B14722  12.483  10.716   6.748 -0.3491 -0.5121  0.2392
  962loPI   C3B14723  12.385  10.668   7.160 -0.0190 -0.0495  0.0770
  962loPI   C4B14724  12.281  10.722   7.502 -0.1225 -0.2618 -0.2734
  963loPI    C114725  14.015   9.611   5.263 -0.0412 -0.1971  0.3363
  963loPI    C214726  13.663   9.773   5.363 -0.0902 -0.1504  0.0938
  963loPI    C314727  13.699   9.570   5.021  0.1327 -0.1093  0.0915
  963loPI   PO414728  14.131   9.552   5.443  0.0865 -0.1893  0.0305
  963loPI   GL114729  14.169   9.768   5.809 -0.0807  0.0712  0.1081
  963loPI   GL214730  14.338   9.402   5.874 -0.0155 -0.0776  0.2668
  963loPI   C1A14731  14.308  10.137   5.950 -0.1105 -0.0416  0.0539
  963loPI   C2A14732  14.421  10.295   6.300  0.1167  0.1791 -0.2497
  963loPI   C3A14733  14.578  10.237   6.823 -0.0906 -0.2988 -0.0119
  963loPI   C4A14734  14.529  10.377   7.233  0.0184 -0.3030 -0.1780
  963loPI   C5A14735  14.461  10.230   7.716 -0.2010 -0.0411  0.1243
  963loPI   C6A14736  14.685  10.259   8.048  0.3409 -0.1246  0.1241
  963loPI   C1B14737  14.323   9.326   6.320  0.1399 -0.1034 -0.2935
  963loPI   C2B14738  14.322   8.979   6.645 -0.2429 -0.1206 -0.4577
  963loPI   C3B14739  14.411   8.906   7.065 -0.1929 -0.0055 -0.1459
  963loPI   C4B14740  14.837   8.875   7.224  0.1504 -0.1426  0.0024
  964loPI    C114741  15.738   8.554   5.097  0.0808 -0.0242 -0.0015
  964loPI    C214742  15.906   8.821   4.851  0.1395  0.0460  0.1138
  964loPI    C314743  15.879   8.438   4.741  0.0562  0.0985 -0.0520
  964loPI   PO414744  15.769   8.667   5.300  0.0233 -0.4585 -0.2006
  964loPI   GL114745  15.877   8.937   5.675 -0.1802 -0.2687 -0.0671
  964loPI   GL214746  16.169   8.995   5.763 -0.0827 -0.6044  0.1463
  964loPI   C1A14747  15.635   8.822   5.991 -0.3281  0.4850 -0.3407
  964loPI   C2A14748  15.438   8.818   6.347 -0.0799 -0.3953  0.3227
  964loPI   C3A14749  15.583   8.872   6.811 -0.1057 -0.0460 -0.2915
  964loPI   C4A14750  15.412   8.921   7.231 -0.1919  0.3432  0.0145
  964loPI   C5A14751  15.133   9.248   7.488 -0.1900  0.1043  0.0187
  964loPI   C6A14752  15.092   9.707   7.557  0.0550 -0.0801  0.0162
  964loPI   C1B14753  16.109   9.109   6.192  0.1885 -0.2244 -0.1178
  964loPI   C2B14754  15.808   9.209   6.390  0.0689  0.1242  0.0395
  964loPI   C3B14755  15.731   9.411   6.785 -0.3689 -0.1757 -0.1450
  964loPI   C4B14756  15.750   9.359   7.275 -0.0715  0.1603 -0.1505
  965loPI    C114757   9.996  16.611   5.954 -0.0856 -0.3132  0.1644
  965loPI    C214758  10.307  16.390   6.075  0.0878 -0.2116 -0.0877
  965loPI    C314759  10.305  16.550   5.708  0.0368  0.3325  0.1395
  965loPI   PO414760   9.752  16.560   5.915 -0.0465  0.0758 -0.0128
  965loPI   GL114761   9.387  16.778   5.977 -0.1466  0.2067  0.1173
  965loPI   GL214762   9.617  16.896   6.227  0.3823  0.1464 -0.1173
  965loPI   C1A14763   9.238  16.646   6.356  0.1330  0.1052  0.0240
  965loPI   C2A14764   9.344  16.713   6.806 -0.0992  0.2034  0.0503
  965loPI   C3A14765   9.527  16.853   7.222 -0.1996 -0.0227  0.1652
  965loPI   C4A14766   9.541  16.781   7.658  0.1574 -0.0418 -0.2198
  965loPI   C5A14767   9.451  16.658   8.085 -0.0317  0.0836  0.4256
  965loPI   C6A14768   9.351  16.625   8.513 -0.0894  0.1750 -0.1586
  965loPI   C1B14769   9.511  17.143   6.678 -0.0910  0.1366  0.0376
  965loPI   C2B14770   9.836  17.259   7.050  0.1872  0.1848  0.1454
  965loPI   C3B14771   9.978  17.073   7.425  0.3437  0.3282  0.0394
  965loPI   C4B14772  10.091  16.950   7.828  0.0594  0.1757  0.0956
  966loPI    C114773   1.546   8.655   4.651 -0.1420 -0.0270 -0.1162
  966loPI    C214774   1.162   8.649   4.540 -0.2038 -0.4771  0.0964
  966loPI    C314775   1.415   8.374   4.398  0.0585 -0.1496 -0.0863
  966loPI   PO414776   1.634   8.697   4.889  0.1246  0.0113  0.0641
  966loPI   GL114777   1.668   8.694   5.360  0.1068 -0.4410 -0.2233
  966loPI   GL214778   1.350   8.551   5.472  0.0362  0.1457 -0.0922
  966loPI   C1A14779   1.567   8.756   5.833 -0.4555  0.0599  0.6078
  966loPI   C2A14780   1.553   8.716   6.256 -0.0981 -0.1534 -0.1199
  966loPI   C3A14781   1.523   8.750   6.644 -0.0692 -0.5279 -0.1517
  966loPI   C4A14782   1.336   8.848   7.034  0.1571  0.1977  0.0640
  966loPI   C5A14783   0.917   8.896   7.215 -0.0188  0.1357  0.2780
  966loPI   C6A14784   0.752   9.049   7.538 -0.0409 -0.0581 -0.2278
  966loPI   C1B14785   1.294   8.376   5.860  0.1037  0.1276  0.0824
  966loPI   C2B14786   1.380   8.277   6.292  0.2097 -0.0035 -0.1815
  966loPI   C3B14787   1.294   8.257   6.702  0.0245 -0.1573  0.0329
  966loPI   C4B14788   1.251   8.253   7.125 -0.0810  0.1408  0.0405
  967loPI    C114789  15.727   0.462   5.146 -0.1155  0.0174  0.0202
  967loPI    C214790  15.439   0.556   4.885 -0.1012  0.1697  0.0586
  967loPI    C314791  15.823   0.610   4.787 -0.0889  0.0575  0.0438
  967loPI   PO414792  15.728   0.635   5.438 -0.0435 -0.2660 -0.1106
  967loPI   GL114793  15.907   0.627   5.829 -0.1385 -0.2453  0.1989
  967loPI   GL214794  15.995   0.898   5.917  0.1533  0.1724 -0.1309
  967loPI   C1A14795  16.048   0.506   6.201 -0.2493  0.1789  0.3125
  967loPI   C2A14796  15.958   0.669   6.611  0.0663 -0.1786  0.0342
  967loPI   C3A14797  16.036   0.625   7.049  0.2072  0.0257 -0.1422
  967loPI   C4A14798  16.102   0.805   7.413 -0.1448 -0.1337 -0.2710
  967loPI   C5A14799  16.041   1.181   7.778 -0.0758  0.3263  0.0240
  967loPI   C6A14800  16.132   1.218   8.216  0.1862  0.0731 -0.1498
  967loPI   C1B14801  16.073   1.015   6.275 -0.0535  0.0720  0.2427
  967loPI   C2B14802  16.157   1.160   6.688  0.2347  0.0631 -0.3252
  967loPI   C3B14803  16.010   1.237   7.165 -0.0624 -0.1212 -0.2787
  967loPI   C4B14804  15.776   1.509   7.443 -0.0359 -0.0949 -0.0562
  968loPI    C114805  13.746   3.931   4.937 -0.0400  0.3873 -0.1943
  968loPI    C214806  13.575   3.797   4.602 -0.2542  0.1040  0.0229
  968loPI    C314807  13.957   3.917   4.597 -0.1256 -0.2917 -0.2339
  968loPI   PO414808  13.514   3.798   5.152 -0.1862 -0.0051 -0.0508
  968loPI   GL114809  13.568   3.773   5.696 -0.0682 -0.0104  0.1529
  968loPI   GL214810  13.386   3.483   5.761 -0.0681  0.2029 -0.0253
  968loPI   C1A14811  13.792   4.117   5.896  0.2143  0.0713 -0.0360
  968loPI   C2A14812  13.670   3.994   6.384 -0.4928 -0.0385  0.0820
  968loPI   C3A14813  13.727   3.801   6.816  0.1279 -0.1312 -0.4836
  968loPI   C4A14814  13.831   3.645   7.213  0.4203 -0.1355 -0.2816
  968loPI   C5A14815  13.608   3.742   7.675 -0.0992  0.3565  0.0475
  968loPI   C6A14816  13.194   3.955   7.711  0.0907  0.0321 -0.3516
  968loPI   C1B14817  13.472   3.562   6.209  0.1057 -0.1465 -0.0662
  968loPI   C2B14818  13.542   3.378   6.525 -0.1059 -0.0138 -0.0245
  968loPI   C3B14819  13.563   3.289   6.927  0.0918  0.2434  0.1002
  968loPI   C4B14820  13.644   3.194   7.327  0.1764  0.1659  0.0347
  969loPI    C114821   6.472  13.442   4.865  0.0764 -0.0010  0.0654
  969loPI    C214822   6.666  13.176   4.637 -0.0012 -0.1060  0.1211
  969loPI    C314823   6.790  13.556   4.650 -0.0650 -0.0718 -0.1852
  969loPI   PO414824   6.433  13.246   5.100 -0.0569 -0.2408  0.0694
  969loPI   GL114825   6.380  13.218   5.519  0.2613 -0.0432  0.2787
  969loPI   GL214826   6.591  13.100   5.761  0.0599  0.0881 -0.0324
  969loPI   C1A14827   6.190  13.309   5.931 -0.2254 -0.1121 -0.1510
  969loPI   C2A14828   6.166  13.332   6.366 -0.1344  0.0404  0.2388
  969loPI   C3A14829   6.363  13.291   6.769 -0.1000 -0.1993 -0.0842
  969loPI   C4A14830   6.355  13.358   7.254 -0.2928  0.0096 -0.0691
  969loPI   C5A14831   6.476  13.153   7.660 -0.0258  0.1045  0.2123
  969loPI   C6A14832   6.376  12.767   7.776 -0.0663 -0.0577  0.0504
  969loPI   C1B14833   6.595  13.074   6.231  0.3214  0.1833  0.0492
  969loPI   C2B14834   6.739  12.890   6.529  0.1940 -0.1499  0.1431
  969loPI   C3B14835   6.813  13.069   6.876  0.0980  0.0382  0.0288
  969loPI   C4B14836   6.850  13.218   7.313 -0.1639 -0.0250 -0.0554
  970loPI    C114837  12.929  14.705   5.432 -0.1268 -0.0627  0.0544
  970loPI    C214838  13.232  14.480   5.300  0.0240  0.2764 -0.1919
  970loPI    C314839  12.935  14.580   5.052 -0.0877  0.2752 -0.0599
  970loPI   PO414840  12.966  14.651   5.683  0.0528  0.0600  0.0589
  970loPI   GL114841  13.077  14.926   5.995  0.0044 -0.4702  0.1143
  970loPI   GL214842  13.060  15.275   6.029 -0.1622  0.1209 -0.3258
  970loPI   C1A14843  12.945  14.665   6.475  0.2723 -0.0663 -0.0107
  970loPI   C2A14844  12.850  14.417   6.864 -0.2089 -0.0722 -0.0004
  970loPI   C3A14845  12.686  14.225   7.310  0.0430 -0.0430 -0.0502
  970loPI   C4A14846  12.510  14.119   7.692 -0.1259  0.0044 -0.0343
  970loPI   C5A14847  12.201  14.382   7.828 -0.0722 -0.1903 -0.0339
  970loPI   C6A14848  11.749  14.215   7.907 -0.3229  0.1554  0.2904
  970loPI   C1B14849  13.142  15.118   6.417  0.0185 -0.1197 -0.0885
  970loPI   C2B14850  12.966  15.175   6.775 -0.1551  0.2096 -0.0683
  970loPI   C3B14851  12.801  14.980   7.122  0.5174 -0.4553 -0.3084
  970loPI   C4B14852  12.683  14.783   7.537  0.0446 -0.1008  0.3511
  971loPI    C114853   6.151   9.549   5.037  0.1218  0.1245 -0.1310
  971loPI    C214854   5.817   9.468   4.834  0.1762  0.0267 -0.1827
  971loPI    C314855   5.962   9.841   4.840 -0.0263  0.1055 -0.0190
  971loPI   PO414856   6.140   9.348   5.263 -0.0613 -0.1755 -0.1341
  971loPI   GL114857   6.074   9.491   5.700 -0.1322 -0.1710  0.1359
  971loPI   GL214858   5.821   9.437   5.746  0.0758  0.3554  0.0622
  971loPI   C1A14859   6.332   9.438   6.127  0.3736  0.3631 -0.2380
  971loPI   C2A14860   6.380   9.249   6.442  0.1558 -0.3204 -0.2927
  971loPI   C3A14861   6.373   9.005   6.745 -0.0342  0.0997 -0.3559
  971loPI   C4A14862   6.277   8.974   7.027  0.1091 -0.1170  0.1092
  971loPI   C5A14863   6.349   9.062   7.438  0.3655 -0.2761 -0.0951
  971loPI   C6A14864   6.474   8.964   7.757  0.1254 -0.2432  0.3512
  971loPI   C1B14865   5.894   9.155   6.127 -0.0522 -0.2819 -0.0110
  971loPI   C2B14866   6.178   8.776   6.282  0.1872  0.0099 -0.0746
  971loPI   C3B14867   6.279   8.468   6.460 -0.0970  0.1543 -0.0533
  971loPI   C4B14868   6.142   8.089   6.562  0.0159  0.0685 -0.3119
  972loPI    C114869  11.556   2.161   5.478  0.1667  0.1510  0.0199
  972loPI    C214870  11.693   2.336   5.145  0.0414  0.0660 -0.0771
  972loPI    C314871  11.662   1.937   5.164  0.1443  0.0644  0.0736
  972loPI   PO414872  11.679   2.282   5.666 -0.0912 -0.0614 -0.0294
  972loPI   GL114873  11.739   2.089   6.028  0.0881 -0.2499 -0.0263
  972loPI   GL214874  11.820   1.776   6.091  0.0031  0.2873  0.0060
  972loPI   C1A14875  11.816   2.419   6.361  0.1511 -0.3304 -0.0341
  972loPI   C2A14876  11.722   2.359   6.708 -0.0556 -0.1871 -0.5810
  972loPI   C3A14877  11.568   2.521   7.116 -0.0488  0.0010 -0.1707
  972loPI   C4A14878  11.554   2.658   7.503  0.1169  0.0428 -0.1163
  972loPI   C5A14879  11.617   2.253   7.768  0.1052  0.0381 -0.0020
  972loPI   C6A14880  11.611   1.849   8.005 -0.2133  0.1534  0.0398
  972loPI   C1B14881  11.634   1.922   6.466  0.0188  0.1449 -0.1499
  972loPI   C2B14882  11.616   1.913   6.895  0.0980  0.0743  0.0949
  972loPI   C3B14883  11.553   2.011   7.338 -0.1238  0.1363 -0.2828
  972loPI   C4B14884  11.201   1.870   7.650 -0.1103 -0.1257  0.3755
  973loPI    C114885   1.151   7.899   4.952  0.0336 -0.0405  0.1463
  973loPI    C214886   1.282   7.621   4.696 -0.0607  0.0795 -0.0341
  973loPI    C314887   1.132   7.966   4.558 -0.4993 -0.0227  0.1673
  973loPI   PO414888   1.039   7.757   5.091 -0.0583  0.1638 -0.1380
  973loPI   GL114889   0.690   7.688   5.299  0.3702  0.1361  0.0387
  973loPI   GL214890   0.574   7.342   5.284  0.1061 -0.0749  0.1575
  973loPI   C1A14891   0.711   7.499   5.738  0.1277  0.3634 -0.1670
  973loPI   C2A14892   0.782   7.541   6.047  0.1707 -0.0476 -0.0165
  973loPI   C3A14893   0.710   7.543   6.542  0.1230 -0.0142  0.1289
  973loPI   C4A14894   0.700   7.514   6.954  0.0517 -0.1887  0.0315
  973loPI   C5A14895   0.818   7.764   7.373 -0.0154  0.4900 -0.2820
  973loPI   C6A14896   0.983   7.786   7.690  0.0747  0.2418 -0.0339
  973loPI   C1B14897   0.371   7.127   5.585  0.0468  0.0327 -0.1284
  973loPI   C2B14898   0.404   6.954   6.027 -0.0329  0.0708 -0.0755
  973loPI   C3B14899   0.423   6.809   6.447  0.1210  0.1951 -0.1506
  973loPI   C4B14900   0.744   6.531   6.686 -0.5142  0.2142  0.1331
  974loPI    C114901  12.140   2.123   5.216 -0.2804 -0.1092  0.0384
  974loPI    C214902  12.463   1.900   5.137 -0.1300  0.0684  0.1468
  974loPI    C314903  12.202   1.984   4.846 -0.1075 -0.1201  0.0709
  974loPI   PO414904  12.081   2.065   5.480 -0.4116  0.0560  0.0330
  974loPI   GL114905  12.183   2.022   5.799 -0.0522 -0.2839  0.2209
  974loPI   GL214906  12.166   2.379   5.889  0.4563 -0.1345 -0.1151
  974loPI   C1A14907  12.236   2.103   6.237 -0.1802  0.2062  0.0357
  974loPI   C2A14908  12.156   2.184   6.674  0.2645 -0.0110  0.0407
  974loPI   C3A14909  12.052   2.005   7.187  0.1018 -0.1134  0.3185
  974loPI   C4A14910  11.898   1.751   7.528  0.1731  0.3170  0.1175
  974loPI   C5A14911  12.005   1.610   7.910  0.0056  0.0412  0.2054
  974loPI   C6A14912  12.281   1.296   8.043 -0.0334  0.0759  0.1652
  974loPI   C1B14913  12.226   2.697   6.207 -0.3985  0.3723  0.0333
  974loPI   C2B14914  12.158   2.740   6.643  0.0220 -0.0211 -0.1581
  974loPI   C3B14915  12.088   2.582   7.083  0.1110 -0.0720  0.1135
  974loPI   C4B14916  12.049   2.478   7.556 -0.1023  0.1492  0.2856
  975loPI    C114917   5.188  12.979   5.111 -0.0162 -0.1500 -0.0804
  975loPI    C214918   5.396  13.248   5.322 -0.2688 -0.0170  0.0044
  975loPI    C314919   5.587  12.965   5.113 -0.0018  0.1827 -0.0273
  975loPI   PO414920   5.057  12.899   5.284 -0.0783  0.1227  0.0195
  975loPI   GL114921   4.995  13.094   5.717  0.0597  0.1653  0.0525
  975loPI   GL214922   4.648  13.231   5.668 -0.1371 -0.1525 -0.2499
  975loPI   C1A14923   5.018  12.864   6.078 -0.2404 -0.0768 -0.2136
  975loPI   C2A14924   5.056  12.837   6.510 -0.0421  0.0898  0.0659
  975loPI   C3A14925   5.067  12.901   6.897  0.0593 -0.0050  0.0084
  975loPI   C4A14926   5.086  12.767   7.402 -0.1337 -0.1937  0.0852
  975loPI   C5A14927   5.051  12.812   7.869 -0.2729 -0.1072 -0.3756
  975loPI   C6A14928   4.993  12.747   8.277  0.0857  0.0672 -0.5777
  975loPI   C1B14929   4.811  13.351   6.046 -0.1152 -0.1073  0.1050
  975loPI   C2B14930   4.726  13.169   6.431  0.1290 -0.2498  0.2103
  975loPI   C3B14931   4.714  13.205   6.911 -0.1483  0.1590  0.1440
  975loPI   C4B14932   4.643  13.378   7.288 -0.0901 -0.0965 -0.2802
  976loPI    C114933  11.503   7.406   5.331 -0.0715 -0.0537 -0.1696
  976loPI    C214934  11.459   7.799   5.391 -0.0073 -0.0758  0.0307
  976loPI    C314935  11.456   7.652   5.019  0.0710  0.1263 -0.0517
  976loPI   PO414936  11.314   7.354   5.548 -0.4178  0.1746  0.1444
  976loPI   GL114937  11.316   7.239   5.914  0.1286  0.2107  0.1259
  976loPI   GL214938  11.475   7.080   6.073  0.1999 -0.1542 -0.1815
  976loPI   C1A14939  10.986   7.143   6.266  0.4535 -0.0345  0.3357
  976loPI   C2A14940  10.982   7.147   6.697 -0.1875  0.3485 -0.1807
  976loPI   C3A14941  10.929   6.861   7.128  0.1214 -0.2649 -0.1191
  976loPI   C4A14942  10.844   6.785   7.639 -0.0253 -0.2177  0.0089
  976loPI   C5A14943  11.018   6.603   8.027 -0.0378  0.0109 -0.2286
  976loPI   C6A14944  11.059   6.109   8.013  0.0492 -0.1473  0.0917
  976loPI   C1B14945  11.477   7.280   6.495 -0.0599 -0.0061  0.1627
  976loPI   C2B14946  11.405   7.244   6.961  0.0104 -0.0392  0.2735
  976loPI   C3B14947  11.153   7.279   7.274  0.1614 -0.2010  0.0091
  976loPI   C4B14948  11.158   7.332   7.647  0.3877  0.0306  0.1116
  977loPI    C114949  15.051  18.132   4.932  0.0808  0.1219  0.1569
  977loPI    C214950  15.159  18.368   4.627 -0.2298  0.1553  0.0701
  977loPI    C314951  15.321  18.004   4.666 -0.2277  0.1300 -0.1659
  977loPI   PO414952  15.109  18.276   5.174 -0.3124 -0.1460  0.1391
  977loPI   GL114953  15.006  18.263   5.543 -0.1175 -0.0891 -0.0492
  977loPI   GL214954  15.253  18.121   5.805 -0.1138 -0.0673 -0.1218
  977loPI   C1A14955  14.763  18.416   5.899 -0.2615  0.0161  0.1073
  977loPI   C2A14956  14.877  18.464   6.396 -0.0530 -0.0406 -0.3466
  977loPI   C3A14957  15.080  18.260   6.685  0.0396  0.0418  0.1493
  977loPI   C4A14958  14.974  17.972   6.908 -0.1002  0.0749 -0.1688
  977loPI   C5A14959  14.893  17.947   7.339  0.0800 -0.1486 -0.3464
  977loPI   C6A14960  14.764  18.310   7.621 -0.0489 -0.1660  0.2591
  977loPI   C1B14961  15.472  18.143   6.088 -0.2234  0.0315  0.0305
  977loPI   C2B14962  15.736  18.208   6.369 -0.0830 -0.1770 -0.3267
  977loPI   C3B14963  15.864  18.191   6.691 -0.0486 -0.2231 -0.0268
  977loPI   C4B14964  15.923  18.290   7.129 -0.0672 -0.1498 -0.2194
  978loPI    C114965   8.702   1.052   5.420  0.0372  0.0034 -0.1357
  978loPI    C214966   8.462   0.811   5.632 -0.0319  0.1545 -0.0405
  978loPI    C314967   8.329   0.979   5.294  0.0475 -0.0131 -0.1563
  978loPI   PO414968   8.805   1.191   5.591  0.1369  0.1183  0.0931
  978loPI   GL114969   8.858   1.073   6.010  0.0224 -0.0819  0.1564
  978loPI   GL214970   9.138   1.170   6.098  0.2729  0.1958 -0.2455
  978loPI   C1A14971   8.821   0.979   6.472 -0.0797 -0.0466 -0.0656
  978loPI   C2A14972   8.822   1.003   6.865 -0.1626  0.0329  0.1888
  978loPI   C3A14973   8.820   0.881   7.293  0.0649  0.0546 -0.1979
  978loPI   C4A14974   9.102   0.953   7.542 -0.0854  0.3893 -0.1731
  978loPI   C5A14975   9.267   1.155   7.926  0.1843  0.0200 -0.1917
  978loPI   C6A14976   9.714   1.207   7.950  0.1187  0.1192  0.2975
  978loPI   C1B14977   9.261   1.202   6.511  0.2408 -0.0697 -0.1009
  978loPI   C2B14978   9.188   1.286   6.915  0.0198  0.0923 -0.3655
  978loPI   C3B14979   9.051   1.368   7.311  0.3180 -0.3058  0.3026
  978loPI   C4B14980   8.785   1.288   7.697  0.1966 -0.0424  0.2056
  979loPI    C114981  16.215   1.206   5.519  0.0556  0.0717  0.0545
  979loPI    C214982  16.383   1.335   5.179 -0.0671 -0.0512 -0.0539
  979loPI    C314983  16.598   1.121   5.440  0.0788  0.1955  0.0314
  979loPI   PO414984  15.912   1.304   5.388  0.1624  0.0722 -0.0732
  979loPI   GL114985  15.718   1.277   5.772 -0.0723 -0.4288  0.0116
  979loPI   GL214986  15.544   0.956   5.763  0.3111  0.1051  0.0502
  979loPI   C1A14987  15.372   1.520   6.047  0.0664  0.2587  0.1295
  979loPI   C2A14988  15.064   1.908   6.162  0.0036 -0.3121 -0.0614
  979loPI   C3A14989  14.776   2.074   6.448  0.1048  0.2041  0.3294
  979loPI   C4A14990  14.592   1.959   6.795 -0.2190  0.0302 -0.0742
  979loPI   C5A14991  14.439   2.020   7.272 -0.0805  0.1477  0.0185
  979loPI   C6A14992  14.333   1.967   7.648 -0.5471 -0.0407  0.2760
  979loPI   C1B14993  15.497   1.055   6.209  0.3512 -0.2585  0.3288
  979loPI   C2B14994  15.647   1.093   6.603  0.0458  0.1331  0.1851
  979loPI   C3B14995  15.489   1.022   7.021 -0.0295 -0.2483 -0.1702
  979loPI   C4B14996  15.512   1.126   7.379  0.1059  0.0011 -0.0136
  980loPI    C114997   9.353   7.284   4.872  0.1341 -0.0664  0.1178
  980loPI    C214998   9.242   6.914   4.977  0.0713 -0.1564 -0.2517
  980loPI    C314999   9.011   7.130   4.732  0.0819  0.1502  0.0027
  980loPI   PO415000   9.503   7.360   5.072 -0.0750  0.0942 -0.0704
  980loPI   GL115001   9.445   7.294   5.492  0.1956 -0.0849  0.1007
  980loPI   GL215002   9.583   7.114   5.748 -0.2437 -0.1071  0.1169
  980loPI   C1A15003   9.322   7.515   5.898  0.0662 -0.0370 -0.2435
  980loPI   C2A15004   9.484   7.411   6.251 -0.2306 -0.2552 -0.1039
  980loPI   C3A15005   9.459   7.295   6.702 -0.1069 -0.0783 -0.0103
  980loPI   C4A15006   9.467   7.183   7.132 -0.0442  0.0514 -0.1347
  980loPI   C5A15007   9.209   7.020   7.487  0.0651 -0.0911  0.0932
  980loPI   C6A15008   8.700   7.108   7.386 -0.0819 -0.2645  0.1893
  980loPI   C1B15009   9.767   6.945   6.111 -0.2530 -0.2152 -0.0761
  980loPI   C2B15010   9.582   6.864   6.466  0.0422  0.3829  0.1876
  980loPI   C3B15011   9.193   6.841   6.701 -0.0838 -0.4076  0.2024
  980loPI   C4B15012   8.866   6.908   6.989 -0.1372  0.1492 -0.1156
  981loPI    C115013  10.012  12.835   5.305 -0.0360 -0.1873  0.0779
  981loPI    C215014   9.706  13.028   5.133 -0.0295 -0.1640  0.0926
  981loPI    C315015  10.081  13.096   5.009 -0.0243 -0.1437  0.1190
  981loPI   PO415016   9.948  12.804   5.545 -0.3673  0.2379  0.0485
  981loPI   GL115017  10.058  12.975   5.934 -0.1013  0.6615 -0.2494
  981loPI   GL215018   9.857  12.764   6.033 -0.2211  0.0714 -0.4307
  981loPI   C1A15019  10.058  12.998   6.433 -0.4805  0.1881 -0.0488
  981loPI   C2A15020  10.393  12.929   6.762  0.0726 -0.1050  0.0125
  981loPI   C3A15021  10.583  12.794   7.173  0.0805 -0.0239 -0.4841
  981loPI   C4A15022  10.897  12.756   7.575 -0.0931  0.3483 -0.1245
  981loPI   C5A15023  11.206  12.851   7.920 -0.1913  0.1212 -0.3229
  981loPI   C6A15024  11.311  13.224   8.204 -0.2791  0.1361 -0.0274
  981loPI   C1B15025   9.661  12.713   6.283  0.2565  0.0677  0.0170
  981loPI   C2B15026   9.445  12.450   6.583 -0.1429 -0.2160  0.0498
  981loPI   C3B15027   9.082  12.139   6.827  0.1051  0.3997 -0.1699
  981loPI   C4B15028   8.926  11.935   7.170 -0.0204 -0.2614  0.0835
  982loPI    C115029   3.475   6.169   4.779 -0.0329  0.2428 -0.1825
  982loPI    C215030   3.807   6.172   4.556  0.1565  0.0385  0.0886
  982loPI    C315031   3.468   6.018   4.409  0.1768  0.2532 -0.1919
  982loPI   PO415032   3.521   6.065   5.007 -0.0908 -0.0077 -0.1735
  982loPI   GL115033   3.736   5.633   5.260  0.1241 -0.4201  0.0229
  982loPI   GL215034   3.411   5.814   5.455  0.2153 -0.1393 -0.0274
  982loPI   C1A15035   3.970   5.479   5.570 -0.0763 -0.0877  0.0031
  982loPI   C2A15036   3.866   5.060   5.710  0.2937  0.0937 -0.2118
  982loPI   C3A15037   4.092   4.782   6.088  0.0381  0.0006  0.1302
  982loPI   C4A15038   4.248   4.713   6.473 -0.1294  0.3755  0.0647
  982loPI   C5A15039   4.326   4.785   6.986  0.0654 -0.0672  0.0035
  982loPI   C6A15040   4.479   5.016   7.326  0.1017 -0.0786 -0.2632
  982loPI   C1B15041   3.192   5.822   5.835 -0.2170  0.1510  0.1188
  982loPI   C2B15042   2.971   5.650   6.047  0.0983  0.0115  0.0703
  982loPI   C3B15043   2.986   5.665   6.538 -0.1474  0.1066 -0.0537
  982loPI   C4B15044   2.915   5.715   6.979  0.1449  0.2262  0.4211
  983loPI    C115045   6.608   8.428   5.082 -0.2137  0.1357  0.0378
  983loPI    C215046   6.398   8.087   5.074  0.0496 -0.0247 -0.1788
  983loPI    C315047   6.506   8.265   4.732  0.1339  0.1392 -0.0686
  983loPI   PO415048   6.638   8.461   5.335 -0.0098  0.0958  0.0010
  983loPI   GL115049   6.613   8.299   5.656  0.0727 -0.1515 -0.2220
  983loPI   GL215050   6.665   7.926   5.733  0.1104  0.1545  0.1052
  983loPI   C1A15051   6.609   8.337   6.128  0.1013  0.1022  0.1363
  983loPI   C2A15052   6.785   8.151   6.593  0.3229 -0.1739 -0.2681
  983loPI   C3A15053   6.502   8.059   6.961  0.0390 -0.1227  0.0097
  983loPI   C4A15054   6.414   8.303   7.308 -0.1579 -0.2186  0.1489
  983loPI   C5A15055   6.654   8.349   7.729  0.2260  0.0624 -0.1559
  983loPI   C6A15056   6.784   8.608   8.101  0.0633  0.1027 -0.0404
  983loPI   C1B15057   6.899   7.853   6.141  0.1367  0.0958  0.0657
  983loPI   C2B15058   7.012   7.567   6.583 -0.2343  0.1831  0.1856
  983loPI   C3B15059   7.003   7.449   6.978 -0.0580 -0.3399 -0.3061
  983loPI   C4B15060   6.936   7.375   7.444  0.3362 -0.1382  0.1388
  984loPI    C115061  15.491  10.094   4.613  0.0093  0.0684  0.2777
  984loPI    C215062  15.097  10.070   4.550 -0.0058  0.1264  0.3500
  984loPI    C315063  15.303  10.386   4.416  0.0168  0.0942  0.3086
  984loPI   PO415064  15.496  10.052   4.870 -0.2001 -0.1010  0.0120
  984loPI   GL115065  15.443   9.933   5.378 -0.1167 -0.1109 -0.0280
  984loPI   GL215066  15.580   9.670   5.371  0.1862 -0.0407 -0.1926
  984loPI   C1A15067  15.597   9.824   5.892  0.1632  0.2169  0.1530
  984loPI   C2A15068  15.569   9.669   6.347  0.1402 -0.2380  0.1763
  984loPI   C3A15069  15.403   9.768   6.710 -0.2739 -0.1952 -0.1431
  984loPI   C4A15070  15.497   9.780   7.150  0.1213  0.0321  0.2974
  984loPI   C5A15071  15.603   9.821   7.584  0.0242 -0.0423 -0.2288
  984loPI   C6A15072  15.932   9.461   7.780  0.5063 -0.0127 -0.0054
  984loPI   C1B15073  15.536   9.310   5.676 -0.0954  0.3339  0.0643
  984loPI   C2B15074  15.403   9.319   6.075  0.1299  0.6688 -0.0714
  984loPI   C3B15075  15.289   9.313   6.566 -0.1116  0.0724 -0.0394
  984loPI   C4B15076  15.283   9.306   6.980 -0.1555  0.0352  0.1233
  985loPI    C115077   8.290   8.132   5.225 -0.0819  0.0932  0.1140
  985loPI    C215078   8.317   7.889   5.541 -0.0248  0.0244  0.0566
  985loPI    C315079   8.646   7.990   5.338 -0.1104 -0.2802 -0.2424
  985loPI   PO415080   8.128   8.314   5.359 -0.0537 -0.2148  0.1594
  985loPI   GL115081   8.140   8.299   5.791  0.3837 -0.1979  0.1853
  985loPI   GL215082   8.227   8.554   5.827  0.0479  0.2102 -0.1243
  985loPI   C1A15083   8.111   8.147   6.155 -0.1084  0.3568 -0.0561
  985loPI   C2A15084   8.123   8.005   6.593 -0.1553  0.1139  0.1666
  985loPI   C3A15085   8.007   7.755   6.965  0.1642 -0.1757 -0.1011
  985loPI   C4A15086   7.789   7.778   7.359  0.1647  0.1110  0.0311
  985loPI   C5A15087   7.633   7.714   7.756  0.0725  0.0033 -0.0767
  985loPI   C6A15088   7.219   7.496   7.837  0.2609 -0.0089  0.1306
  985loPI   C1B15089   8.188   8.591   6.332 -0.0746  0.2703 -0.1279
  985loPI   C2B15090   8.482   8.772   6.599 -0.0454 -0.1508 -0.1129
  985loPI   C3B15091   8.501   8.771   7.085  0.1346 -0.1444  0.1954
  985loPI   C4B15092   8.356   8.565   7.448 -0.3719 -0.0126  0.1314
  986loPI    C115093  12.406   4.271   5.336  0.1701 -0.1049 -0.1621
  986loPI    C215094  12.234   4.620   5.240 -0.1633 -0.2468 -0.0967
  986loPI    C315095  12.396   4.392   4.954  0.0782 -0.0299 -0.1365
  986loPI   PO415096  12.484   4.305   5.572 -0.0757 -0.3194 -0.0164
  986loPI   GL115097  12.500   4.491   5.973 -0.2064 -0.1816  0.1016
  986loPI   GL215098  12.279   4.775   5.812 -0.4495 -0.1892 -0.3556
  986loPI   C1A15099  12.427   4.632   6.363  0.1689 -0.0230  0.0179
  986loPI   C2A15100  12.345   4.409   6.779 -0.0350  0.3544  0.0187
  986loPI   C3A15101  12.472   4.285   7.214 -0.2030  0.0058  0.0844
  986loPI   C4A15102  12.662   4.196   7.597  0.0703  0.1029  0.2417
  986loPI   C5A15103  12.840   4.188   8.016 -0.0152  0.0980 -0.0918
  986loPI   C6A15104  13.160   4.031   8.167 -0.0564 -0.2765  0.0890
  986loPI   C1B15105  12.009   4.844   6.120  0.1822  0.1621 -0.1741
  986loPI   C2B15106  11.962   5.007   6.553 -0.0686  0.0162  0.0644
  986loPI   C3B15107  11.773   5.280   6.734  0.3355  0.2607  0.1917
  986loPI   C4B15108  11.300   5.419   6.718 -0.1021 -0.1830  0.1186
  987loPI    C115109   6.799   3.046   5.180  0.0615  0.2394  0.2485
  987loPI    C215110   6.933   3.082   4.805 -0.2684 -0.2128  0.0789
  987loPI    C315111   7.137   2.862   5.070 -0.2054 -0.1615  0.0731
  987loPI   PO415112   6.655   3.349   5.217 -0.0187 -0.1998  0.3099
  987loPI   GL115113   6.691   3.459   5.637 -0.0794  0.0220  0.3691
  987loPI   GL215114   6.867   3.143   5.655  0.0603  0.1120  0.1065
  987loPI   C1A15115   6.797   3.628   6.082 -0.1469  0.1514  0.0807
  987loPI   C2A15116   6.628   3.467   6.437 -0.0008 -0.0959  0.1787
  987loPI   C3A15117   6.524   3.627   6.858  0.2414 -0.0067 -0.2825
  987loPI   C4A15118   6.487   3.655   7.322  0.1773 -0.1444  0.0302
  987loPI   C5A15119   6.415   4.005   7.664 -0.2993  0.1891  0.0931
  987loPI   C6A15120   6.411   4.454   7.822 -0.1906  0.2563 -0.0863
  987loPI   C1B15121   6.763   3.169   6.081  0.0743 -0.0073 -0.0113
  987loPI   C2B15122   6.689   3.005   6.460  0.0065 -0.3339  0.1136
  987loPI   C3B15123   6.568   3.134   6.785 -0.0779  0.0361 -0.2954
  987loPI   C4B15124   6.520   3.127   7.287 -0.5038 -0.1408 -0.2678
  988loPI    C115125  16.901   7.255   5.311 -0.0094 -0.1333  0.1999
  988loPI    C215126  16.981   7.185   4.925 -0.4036  0.4751 -0.0068
  988loPI    C315127  16.706   6.966   5.115 -0.1566  0.1252 -0.0444
  988loPI   PO415128  17.098   7.295   5.465 -0.1331 -0.0928 -0.1748
  988loPI   GL115129  17.213   7.401   5.852  0.2714  0.0132 -0.1682
  988loPI   GL215130  16.996   7.577   6.095 -0.0073 -0.3243 -0.0714
  988loPI   C1A15131  17.343   7.244   6.219  0.0962 -0.0581 -0.1211
  988loPI   C2A15132  17.625   7.140   6.474  0.0339 -0.1647 -0.2257
  988loPI   C3A15133  18.001   7.100   6.826 -0.2933  0.1779 -0.3015
  988loPI   C4A15134  17.993   7.150   7.312  0.1692 -0.1160 -0.2851
  988loPI   C5A15135  18.017   6.944   7.569  0.2003 -0.0328  0.2064
  988loPI   C6A15136  18.001   6.957   8.011 -0.2404  0.0489  0.0702
  988loPI   C1B15137  16.967   7.336   6.500  0.1648  0.0970 -0.2792
  988loPI   C2B15138  17.121   7.372   6.959 -0.0829  0.1634  0.1028
  988loPI   C3B15139  17.453   7.093   6.998 -0.0910  0.1283 -0.2697
  988loPI   C4B15140  17.558   7.367   7.378 -0.0900  0.1903  0.0010
  989loPI    C115141   8.496  18.009   5.259  0.1258 -0.0664  0.0735
  989loPI    C215142   8.346  17.644   5.191 -0.1525  0.0590 -0.0019
  989loPI    C315143   8.441  17.882   4.884 -0.0800  0.0941  0.0475
  989loPI   PO415144   8.313  18.165   5.429  0.1367  0.0201 -0.0689
  989loPI   GL115145   8.338  18.365   5.756  0.0182  0.1767  0.3097
  989loPI   GL215146   8.615  18.254   5.874  0.0204 -0.0561  0.1062
  989loPI   C1A15147   8.262  18.215   6.191  0.2278 -0.0294 -0.2323
  989loPI   C2A15148   8.399  18.207   6.677 -0.0872 -0.0767 -0.1275
  989loPI   C3A15149   8.115  18.305   7.084 -0.0845  0.1556 -0.4201
  989loPI   C4A15150   8.129  18.117   7.512 -0.2283 -0.0891  0.1790
  989loPI   C5A15151   8.156  18.317   7.881 -0.2802  0.2217  0.2003
  989loPI   C6A15152   8.545  18.520   8.077 -0.1945  0.1382  0.0019
  989loPI   C1B15153   8.762  18.036   6.330  0.0865  0.0643  0.2752
  989loPI   C2B15154   8.803  17.925   6.842 -0.1506 -0.0896  0.1520
  989loPI   C3B15155   9.056  17.882   7.281  0.0279 -0.0514  0.0343
  989loPI   C4B15156   9.213  17.973   7.616 -0.1442 -0.1933 -0.1153
  990loPI    C115157  12.644   6.721   5.450 -0.0072  0.0027 -0.1338
  990loPI    C215158  12.975   6.498   5.426 -0.1764 -0.2943  0.1825
  990loPI    C315159  12.932   6.820   5.192  0.2300 -0.3853 -0.0264
  990loPI   PO415160  12.613   6.763   5.634  0.1464 -0.3742  0.2904
  990loPI   GL115161  12.719   6.943   5.966  0.0293 -0.0694 -0.0101
  990loPI   GL215162  12.917   6.986   6.225  0.2600 -0.0335 -0.1928
  990loPI   C1A15163  12.500   6.679   6.269 -0.1122  0.3811  0.0840
  990loPI   C2A15164  12.612   6.372   6.534  0.0855 -0.0481  0.1364
  990loPI   C3A15165  12.579   6.214   6.937 -0.3376  0.0453 -0.2403
  990loPI   C4A15166  12.799   6.242   7.330 -0.0686 -0.0328  0.0771
  990loPI   C5A15167  13.176   6.378   7.557 -0.0072 -0.1169 -0.0088
  990loPI   C6A15168  13.384   6.521   7.927  0.1222 -0.2593  0.0147
  990loPI   C1B15169  13.022   6.681   6.608  0.1310 -0.2314  0.0440
  990loPI   C2B15170  13.163   6.485   7.020 -0.2395 -0.0512  0.0654
  990loPI   C3B15171  13.403   6.724   7.245  0.1475  0.0670  0.1454
  990loPI   C4B15172  13.261   7.088   7.385 -0.4039 -0.0388 -0.1634
  991loPI    C115173  12.017  15.836   5.467 -0.1456 -0.0571 -0.2253
  991loPI    C215174  12.098  16.213   5.362  0.0964 -0.1100 -0.2338
  991loPI    C315175  11.841  15.995   5.145 -0.2639  0.1386 -0.0663
  991loPI   PO415176  12.246  15.775   5.574 -0.0418  0.2768  0.1002
  991loPI   GL115177  12.495  15.872   5.981  0.0160 -0.0217 -0.4769
  991loPI   GL215178  12.773  16.065   6.147  0.3302  0.2607 -0.0487
  991loPI   C1A15179  12.322  16.135   6.304  0.0940  0.0542  0.1584
  991loPI   C2A15180  12.139  16.145   6.727 -0.0624  0.3796  0.0723
  991loPI   C3A15181  12.054  16.203   7.203  0.1924  0.3270  0.0998
  991loPI   C4A15182  12.015  16.536   7.390 -0.0223 -0.3440  0.0970
  991loPI   C5A15183  11.754  16.815   7.738  0.0015 -0.0332 -0.3148
  991loPI   C6A15184  11.826  16.907   8.158 -0.1089  0.0295 -0.3014
  991loPI   C1B15185  12.768  16.160   6.620  0.0891 -0.1050 -0.1084
  991loPI   C2B15186  12.997  16.241   6.996 -0.1185  0.0411 -0.2526
  991loPI   C3B15187  12.957  16.045   7.412  0.2424 -0.2733  0.1367
  991loPI   C4B15188  13.088  15.890   7.775  0.0100  0.1215 -0.0243
  992loPI    C115189  12.598   0.936   5.436  0.0877  0.0314  0.0779
  992loPI    C215190  12.974   1.050   5.361  0.2504 -0.5576 -0.0540
  992loPI    C315191  12.708   1.031   5.063  0.1197 -0.1770  0.0329
  992loPI   PO415192  12.675   0.798   5.700 -0.2425 -0.0972 -0.0052
  992loPI   GL115193  12.662   1.090   6.125 -0.0384 -0.2791  0.1791
  992loPI   GL215194  12.855   1.328   6.212 -0.0960  0.0362  0.2264
  992loPI   C1A15195  12.392   1.181   6.481 -0.0018 -0.1597 -0.1575
  992loPI   C2A15196  12.415   1.350   6.844  0.1147  0.3288 -0.1381
  992loPI   C3A15197  12.429   1.051   7.266  0.0419  0.1713 -0.1340
  992loPI   C4A15198  12.366   0.854   7.710  0.2619 -0.1386 -0.1868
  992loPI   C5A15199  12.489   0.803   8.132  0.1187 -0.1164 -0.0481
  992loPI   C6A15200  12.512   1.037   8.502  0.0900 -0.4197 -0.0583
  992loPI   C1B15201  12.884   1.301   6.645 -0.0243  0.0048 -0.1711
  992loPI   C2B15202  12.877   1.591   6.907 -0.1098 -0.2711 -0.1028
  992loPI   C3B15203  12.955   1.617   7.262  0.1548 -0.1011  0.0581
  992loPI   C4B15204  13.228   1.554   7.663  0.3167 -0.1099  0.1141
  993loPI    C115205  10.281  16.899   5.402  0.0274 -0.0903 -0.1257
  993loPI    C215206  10.032  17.046   5.126  0.0135  0.3204  0.0978
  993loPI    C315207  10.405  17.187   5.154  0.1375  0.0112  0.0453
  993loPI   PO415208  10.132  16.968   5.617  0.0251 -0.0004  0.0092
  993loPI   GL115209  10.299  17.049   5.960  0.0946 -0.1692 -0.3660
  993loPI   GL215210  10.030  17.191   6.068  0.1625 -0.2951  0.3447
  993loPI   C1A15211  10.159  16.797   6.399 -0.0180 -0.2241  0.1331
  993loPI   C2A15212  10.173  16.292   6.605  0.1451  0.1302 -0.1179
  993loPI   C3A15213  10.113  16.129   7.012  0.0169  0.1366 -0.0524
  993loPI   C4A15214  10.093  15.920   7.422 -0.0076 -0.1591  0.0555
  993loPI   C5A15215  10.208  16.071   7.895 -0.1768 -0.2277 -0.3994
  993loPI   C6A15216  10.145  16.265   8.304 -0.0254 -0.0184  0.2734
  993loPI   C1B15217   9.970  17.243   6.504  0.3301 -0.2511  0.2295
  993loPI   C2B15218   9.904  16.838   6.785  0.1808  0.1074  0.1343
  993loPI   C3B15219   9.998  16.664   7.126  0.0403 -0.1286  0.0077
  993loPI   C4B15220  10.226  16.445   7.529 -0.2705  0.0595 -0.1516
  994loPI    C115221   6.304  12.732   5.055 -0.1912 -0.0080 -0.0763
  994loPI    C215222   5.976  12.638   4.847 -0.1699  0.0160 -0.1207
  994loPI    C315223   6.289  12.806   4.662 -0.2170  0.1980 -0.0377
  994loPI   PO415224   6.098  12.837   5.313  0.1193 -0.3438  0.1852
  994loPI   GL115225   6.092  12.606   5.671 -0.1381  0.1947 -0.0555
  994loPI   GL215226   5.961  12.411   5.893  0.2866  0.0293 -0.2693
  994loPI   C1A15227   6.110  12.869   6.099  0.0345 -0.1092 -0.0493
  994loPI   C2A15228   6.162  12.832   6.527 -0.2221 -0.0846 -0.3600
  994loPI   C3A15229   6.368  12.692   6.861  0.2630 -0.2361 -0.2312
  994loPI   C4A15230   6.665  12.415   6.931  0.0511  0.0592  0.1102
  994loPI   C5A15231   7.059  12.276   7.209  0.1628 -0.0556  0.0416
  994loPI   C6A15232   7.158  12.221   7.676  0.2124 -0.2270  0.1029
  994loPI   C1B15233   5.886  12.437   6.289 -0.1282  0.0283  0.1918
  994loPI   C2B15234   5.904  12.478   6.688 -0.0787 -0.0936  0.0910
  994loPI   C3B15235   5.936  12.512   7.088  0.2962 -0.0134 -0.0197
  994loPI   C4B15236   5.939  12.734   7.524  0.3113 -0.0298 -0.0196
  995loPI    C115237   8.281   9.504   5.242  0.0720 -0.0759 -0.0024
  995loPI    C215238   7.979   9.462   4.983  0.0280  0.1092  0.0177
  995loPI    C315239   8.308   9.663   4.876  0.1297 -0.0600  0.0087
  995loPI   PO415240   8.269   9.248   5.409 -0.2906  0.3863 -0.0029
  995loPI   GL115241   7.996   8.965   5.729 -0.3232  0.2615  0.2460
  995loPI   GL215242   7.764   8.683   5.605  0.1995 -0.1706 -0.0008
  995loPI   C1A15243   7.944   9.111   6.137 -0.1172  0.1620  0.3890
  995loPI   C2A15244   8.030   9.063   6.583  0.1563 -0.0297  0.1502
  995loPI   C3A15245   7.965   9.067   7.031 -0.0835 -0.2713 -0.3278
  995loPI   C4A15246   7.902   8.882   7.383 -0.0018 -0.0833 -0.1346
  995loPI   C5A15247   7.891   8.735   7.839  0.1605 -0.0341  0.1357
  995loPI   C6A15248   7.513   8.854   8.002  0.1006  0.2838  0.1296
  995loPI   C1B15249   7.653   8.304   5.924  0.2462  0.0386  0.0437
  995loPI   C2B15250   7.286   8.212   6.107 -0.3078 -0.0439 -0.2916
  995loPI   C3B15251   7.295   8.001   6.541 -0.3486 -0.2019  0.1119
  995loPI   C4B15252   7.023   7.927   6.989 -0.0064  0.3020  0.0466
  996loPI    C115253  16.517   5.355   5.223  0.0763  0.0020 -0.2800
  996loPI    C215254  16.128   5.308   5.143  0.0619 -0.0668 -0.1720
  996loPI    C315255  16.403   5.172   4.886  0.0176 -0.4216 -0.0384
  996loPI   PO415256  16.489   5.476   5.451  0.1249  0.0496  0.1624
  996loPI   GL115257  16.392   5.398   5.830 -0.2568  0.2084  0.0895
  996loPI   GL215258  16.424   5.058   5.706  0.0544 -0.1690  0.0974
  996loPI   C1A15259  16.754   5.060   6.100  0.2607 -0.1694 -0.0382
  996loPI   C2A15260  17.144   5.017   6.365 -0.0076 -0.3007 -0.0920
  996loPI   C3A15261  17.488   4.869   6.509 -0.0674 -0.3644 -0.1416
  996loPI   C4A15262  17.632   5.122   6.818 -0.0612  0.1425 -0.1556
  996loPI   C5A15263  17.667   5.168   7.225  0.1523 -0.1199  0.1049
  996loPI   C6A15264  17.562   5.427   7.621  0.1970 -0.1146  0.0078
  996loPI   C1B15265  16.335   4.795   6.060  0.2426  0.0793  0.3155
  996loPI   C2B15266  16.163   4.588   6.484 -0.1299 -0.1454  0.0383
  996loPI   C3B15267  16.000   4.571   6.850  0.3021  0.1594 -0.1104
  996loPI   C4B15268  15.617   4.540   7.186  0.1374  0.0914 -0.4659
  997loPI    C115269  17.117   8.895   4.418 -0.2027 -0.0915 -0.0446
  997loPI    C215270  17.264   9.223   4.242 -0.3199  0.0252  0.0728
  997loPI    C315271  17.056   8.957   4.028  0.1270 -0.1839 -0.1139
  997loPI   PO415272  17.224   8.939   4.783 -0.0072  0.3161 -0.0512
  997loPI   GL115273  17.277   8.905   5.248 -0.1150  0.1829 -0.1480
  997loPI   GL215274  17.060   8.807   5.492  0.2293  0.0002  0.3179
  997loPI   C1A15275  17.222   9.215   5.617  0.0953 -0.4370  0.2819
  997loPI   C2A15276  16.959   9.503   5.819  0.0026  0.1819 -0.2614
  997loPI   C3A15277  16.908   9.761   6.163  0.0104 -0.2281  0.1227
  997loPI   C4A15278  16.674   9.718   6.577 -0.0617  0.0681 -0.0883
  997loPI   C5A15279  16.516   9.495   6.972  0.1769 -0.0213  0.0674
  997loPI   C6A15280  16.344   9.421   7.294 -0.1117  0.3958  0.0206
  997loPI   C1B15281  17.177   8.718   5.863 -0.1047 -0.0333  0.3278
  997loPI   C2B15282  17.119   8.697   6.299 -0.0339  0.0824 -0.0567
  997loPI   C3B15283  17.355   8.791   6.755 -0.1922 -0.0255  0.2934
  997loPI   C4B15284  17.536   8.812   7.188 -0.1351 -0.2083  0.2974
  998loPI    C115285   1.113  10.473   5.210  0.2165  0.0613 -0.0480
  998loPI    C215286   1.279  10.449   4.847  0.2726  0.1606 -0.0293
  998loPI    C315287   0.901  10.576   4.886  0.3168  0.2980 -0.0408
  998loPI   PO415288   1.255  10.583   5.308 -0.1426  0.1527 -0.2369
  998loPI   GL115289   1.577  10.481   5.666  0.4582 -0.0112 -0.0165
  998loPI   GL215290   1.438  10.194   5.594  0.0453  0.0276 -0.2920
  998loPI   C1A15291   1.612  10.598   6.032  0.1742  0.3017  0.3013
  998loPI   C2A15292   1.646  10.480   6.505 -0.3725 -0.0786 -0.3167
  998loPI   C3A15293   1.751  10.598   6.935 -0.1337  0.0293 -0.0591
  998loPI   C4A15294   1.679  10.903   7.310  0.1242 -0.1304  0.1823
  998loPI   C5A15295   1.583  11.239   7.573 -0.1853 -0.1235 -0.2355
  998loPI   C6A15296   1.828  11.500   7.878  0.0850  0.1360 -0.1504
  998loPI   C1B15297   1.523  10.103   6.046 -0.2005  0.2091 -0.0339
  998loPI   C2B15298   1.471  10.009   6.462 -0.1430  0.1105 -0.3278
  998loPI   C3B15299   1.384  10.292   6.882  0.0953 -0.1365 -0.1160
  998loPI   C4B15300   1.357  10.548   7.302 -0.2382  0.0739 -0.2333
  999loPI    C115301  12.032   3.262   5.211 -0.0329  0.0893 -0.0980
  999loPI    C215302  11.936   2.923   5.021 -0.3233  0.0274  0.1521
  999loPI    C315303  11.953   3.267   4.818  0.0234 -0.1405 -0.1139
  999loPI   PO415304  11.962   3.111   5.509  0.2490  0.0279 -0.0137
  999loPI   GL115305  11.933   3.277   5.924 -0.0561 -0.2704  0.1290
  999loPI   GL215306  11.961   3.565   5.960  0.0167 -0.3539  0.0786
  999loPI   C1A15307  11.840   2.950   6.356 -0.3861 -0.2099 -0.1707
  999loPI   C2A15308  11.716   2.859   6.761 -0.1409 -0.1628  0.1599
  999loPI   C3A15309  11.519   3.016   7.090  0.2711  0.0865 -0.1652
  999loPI   C4A15310  11.335   3.107   7.545  0.0049  0.0141  0.1308
  999loPI   C5A15311  10.942   3.212   7.742 -0.1065  0.2326 -0.0096
  999loPI   C6A15312  10.454   3.226   7.613 -0.3312 -0.0162  0.1885
  999loPI   C1B15313  12.078   3.531   6.385 -0.4381 -0.0846 -0.2589
  999loPI   C2B15314  12.128   3.296   6.638  0.0516  0.2956 -0.0402
  999loPI   C3B15315  12.098   3.108   7.062  0.0153 -0.0315  0.1040
  999loPI   C4B15316  11.939   2.944   7.367 -0.0177 -0.0444 -0.1741
 1000loPI    C115317  16.370  15.757   5.212  0.0318  0.0310  0.0276
 1000loPI    C215318  16.122  15.750   4.898 -0.0362  0.2066  0.0763
 1000loPI    C315319  16.516  15.788   4.841 -0.0347  0.0879  0.0059
 1000loPI   PO415320  16.232  15.615   5.380  0.0706  0.0284  0.0865
 1000loPI   GL115321  16.368  15.555   5.806 -0.0598  0.1699 -0.0770
 1000loPI   GL215322  16.371  15.898   5.849 -0.1582  0.0328 -0.0388
 1000loPI   C1A15323  16.323  15.386   6.238 -0.0788 -0.2660 -0.2947
 1000loPI   C2A15324  16.273  15.265   6.651  0.3701  0.0436 -0.0509
 1000loPI   C3A15325  16.524  15.376   7.031  0.1828  0.0915  0.0295
 1000loPI   C4A15326  16.503  15.625   7.418 -0.0018 -0.0392  0.0224
 1000loPI   C5A15327  16.930  15.708   7.724  0.0074  0.1154  0.0721
 1000loPI   C6A15328  17.231  15.735   8.087 -0.1066 -0.1234 -0.1497
 1000loPI   C1B15329  16.447  15.950   6.292  0.1525  0.0240 -0.2881
 1000loPI   C2B15330  16.419  15.918   6.751  0.2317  0.2127  0.2960
 1000loPI   C3B15331  16.431  16.246   7.051  0.1099  0.0449 -0.1253
 1000loPI   C4B15332  16.366  16.590   7.353 -0.1440  0.1616  0.1643
 1001loPI    C115333   7.296   0.869   5.154  0.2855  0.0523  0.0370
 1001loPI    C215334   7.140   1.231   5.220 -0.1280 -0.1219  0.0409
 1001loPI    C315335   7.435   1.187   4.954 -0.0062  0.2307  0.1117
 1001loPI   PO415336   7.243   0.670   5.371 -0.1085  0.3406  0.1234
 1001loPI   GL115337   7.159   0.639   5.811  0.5043  0.0781  0.2743
 1001loPI   GL215338   6.904   0.405   5.644  0.1784  0.1775 -0.0282
 1001loPI   C1A15339   7.115   0.556   6.297 -0.0394 -0.0523  0.0509
 1001loPI   C2A15340   7.097   0.601   6.659  0.1474  0.3484  0.0291
 1001loPI   C3A15341   6.966   0.685   7.122  0.0491  0.4171  0.0776
 1001loPI   C4A15342   6.906   0.490   7.516 -0.0377  0.1985  0.1059
 1001loPI   C5A15343   6.714   0.198   7.767 -0.1854  0.0086  0.1116
 1001loPI   C6A15344   6.305   0.369   7.798  0.2922 -0.0800  0.1418
 1001loPI   C1B15345   6.794   0.253   6.092  0.0292 -0.1011  0.0274
 1001loPI   C2B15346   6.721   0.267   6.522  0.0074 -0.2036 -0.1096
 1001loPI   C3B15347   6.531   0.212   6.919  0.0399  0.0766  0.0380
 1001loPI   C4B15348   6.507   0.287   7.282  0.2013  0.0241 -0.0162
 1002loPI    C115349   0.360  16.357   4.719 -0.0721 -0.2434 -0.1908
 1002loPI    C215350   0.096  16.405   4.422  0.0054  0.1022 -0.2085
 1002loPI    C315351   0.489  16.416   4.345  0.0255  0.0893 -0.1085
 1002loPI   PO415352   0.318  16.483   4.969 -0.1845  0.2934 -0.2516
 1002loPI   GL115353   0.068  16.533   5.325  0.1443  0.0134  0.1888
 1002loPI   GL215354   0.340  16.312   5.412 -0.0455  0.0696 -0.1862
 1002loPI   C1A15355   0.110  16.762   5.706  0.1901 -0.0183 -0.0227
 1002loPI   C2A15356   0.101  16.692   6.198  0.1270 -0.2920 -0.2835
 1002loPI   C3A15357   0.089  16.588   6.564 -0.0669 -0.0707  0.0985
 1002loPI   C4A15358   0.133  16.569   7.030 -0.1033 -0.0016  0.2931
 1002loPI   C5A15359   0.307  16.520   7.379  0.0243  0.2306  0.1488
 1002loPI   C6A15360   0.536  16.788   7.604 -0.2574  0.0007 -0.1687
 1002loPI   C1B15361   0.271  16.303   5.799  0.0228 -0.0699  0.0063
 1002loPI   C2B15362   0.244  16.222   6.241 -0.3774  0.2240  0.0830
 1002loPI   C3B15363   0.233  16.142   6.673  0.0819  0.1288  0.1041
 1002loPI   C4B15364   0.286  16.115   7.096 -0.0581 -0.2134  0.1011
 1003loPI    C115365   1.402   5.730   4.847 -0.0809  0.0238 -0.1749
 1003loPI    C215366   1.283   5.749   4.466 -0.1592 -0.0365 -0.1538
 1003loPI    C315367   1.215   5.418   4.680 -0.0106 -0.0471 -0.1219
 1003loPI   PO415368   1.641   5.755   4.900  0.1834 -0.1748  0.0371
 1003loPI   GL115369   1.672   5.716   5.334  0.1953  0.1330  0.1788
 1003loPI   GL215370   1.870   5.858   5.565 -0.4142  0.2351  0.0696
 1003loPI   C1A15371   1.555   5.392   5.642 -0.2514 -0.2007 -0.1002
 1003loPI   C2A15372   1.552   5.246   6.081 -0.1602  0.1328 -0.1802
 1003loPI   C3A15373   1.634   5.107   6.450  0.3213 -0.1815 -0.1426
 1003loPI   C4A15374   1.666   5.136   6.882 -0.3206  0.1750  0.4703
 1003loPI   C5A15375   1.825   5.101   7.229  0.2635  0.1668 -0.2028
 1003loPI   C6A15376   2.154   5.055   7.336  0.1892  0.0523  0.2024
 1003loPI   C1B15377   1.802   5.775   6.001 -0.2081  0.3215  0.0488
 1003loPI   C2B15378   1.892   5.692   6.384  0.1810  0.0760 -0.1505
 1003loPI   C3B15379   1.934   5.508   6.715  0.1923  0.2073 -0.2921
 1003loPI   C4B15380   1.998   5.540   7.124  0.1336  0.0327 -0.0474
 1004loPI    C115381  17.227  13.463   5.177  0.0518  0.1767 -0.0828
 1004loPI    C215382  17.074  13.193   4.924  0.0891  0.0238  0.0563
 1004loPI    C315383  17.296  13.495   4.784  0.1098 -0.0597 -0.0935
 1004loPI   PO415384  17.353  13.324   5.386 -0.0519  0.0782 -0.0559
 1004loPI   GL115385  17.572  13.413   5.613 -0.0167 -0.0577 -0.0383
 1004loPI   GL215386  17.897  13.440   5.598  0.0175  0.2112  0.2481
 1004loPI   C1A15387  17.602  13.320   6.041 -0.2387  0.1054 -0.1541
 1004loPI   C2A15388  17.757  13.165   6.482 -0.0055 -0.2353 -0.1046
 1004loPI   C3A15389  17.839  12.982   6.876  0.0365 -0.3580  0.0093
 1004loPI   C4A15390  17.766  12.883   7.268 -0.0050 -0.0679  0.1089
 1004loPI   C5A15391  17.817  12.935   7.700 -0.3857  0.1591  0.2826
 1004loPI   C6A15392  17.616  12.673   8.075  0.0292 -0.0697  0.0572
 1004loPI   C1B15393  18.065  13.589   5.924 -0.0442 -0.0379  0.1299
 1004loPI   C2B15394  18.031  13.573   6.328 -0.0511  0.4043  0.0425
 1004loPI   C3B15395  17.992  13.554   6.720 -0.0637  0.1823  0.1394
 1004loPI   C4B15396  17.956  13.466   7.035 -0.1417  0.1054 -0.2528
 1005loPI    C115397   7.680  14.531   5.340  0.1158 -0.1061 -0.3013
 1005loPI    C215398   7.934  14.604   5.641 -0.1329 -0.1209 -0.0844
 1005loPI    C315399   7.840  14.895   5.383  0.1683 -0.1387 -0.2172
 1005loPI   PO415400   7.513  14.339   5.514 -0.1061  0.0466  0.0387
 1005loPI   GL115401   7.728  14.042   5.778 -0.1903  0.2970  0.0535
 1005loPI   GL215402   8.041  14.201   5.868 -0.0043 -0.1327  0.0326
 1005loPI   C1A15403   7.528  14.164   6.157 -0.2273 -0.1260  0.1972
 1005loPI   C2A15404   7.544  14.253   6.624  0.1394 -0.0610 -0.1141
 1005loPI   C3A15405   7.348  14.294   7.009  0.0955 -0.1618 -0.2297
 1005loPI   C4A15406   7.230  14.097   7.420  0.2157 -0.1059 -0.4171
 1005loPI   C5A15407   7.151  13.926   7.874  0.1052  0.1053  0.0397
 1005loPI   C6A15408   6.786  13.901   8.158  0.0491 -0.0799 -0.0872
 1005loPI   C1B15409   7.989  14.287   6.399 -0.0618  0.1742  0.0113
 1005loPI   C2B15410   8.106  14.454   6.763  0.1287  0.2140  0.2293
 1005loPI   C3B15411   8.446  14.320   6.961  0.2418  0.0608 -0.4193
 1005loPI   C4B15412   8.741  14.226   7.214 -0.0011 -0.0183  0.1409
 1006loPI    C115413  10.017  17.434   5.435 -0.0360  0.2716  0.0321
 1006loPI    C215414  10.114  17.806   5.325  0.1167  0.1503 -0.2555
 1006loPI    C315415  10.012  17.536   5.048 -0.1032  0.0068 -0.0391
 1006loPI   PO415416   9.887  17.507   5.648  0.4021  0.2598 -0.3542
 1006loPI   GL115417   9.491  17.630   5.899 -0.0209  0.0320  0.1472
 1006loPI   GL215418   9.399  17.344   5.954 -0.0864 -0.0302 -0.1773
 1006loPI   C1A15419   9.696  17.632   6.342 -0.0551  0.0779  0.1211
 1006loPI   C2A15420   9.666  17.753   6.810 -0.2616  0.1462  0.2374
 1006loPI   C3A15421   9.595  17.771   7.213 -0.0739  0.0748  0.0054
 1006loPI   C4A15422   9.667  17.755   7.586  0.0933 -0.0380  0.2797
 1006loPI   C5A15423   9.799  17.419   7.874  0.3987 -0.1498  0.2985
 1006loPI   C6A15424   9.665  17.160   7.954 -0.3298 -0.2939 -0.0466
 1006loPI   C1B15425   9.158  17.213   6.309 -0.0963  0.2422 -0.1094
 1006loPI   C2B15426   8.974  17.092   6.714 -0.2838  0.1663  0.4474
 1006loPI   C3B15427   8.903  17.024   7.185 -0.1428  0.0031  0.1499
 1006loPI   C4B15428   8.671  17.046   7.512  0.0548 -0.2352 -0.1216
 1007loPI    C115429   1.388  12.467   4.749  0.0718  0.0915 -0.0966
 1007loPI    C215430   1.755  12.369   4.874 -0.0425  0.0052  0.1780
 1007loPI    C315431   1.709  12.620   4.566  0.2462 -0.0540  0.0837
 1007loPI   PO415432   1.257  12.547   5.036 -0.2303 -0.1333 -0.1703
 1007loPI   GL115433   1.140  12.686   5.261 -0.0890 -0.1130  0.1889
 1007loPI   GL215434   0.852  12.794   5.329 -0.1965  0.2265 -0.0754
 1007loPI   C1A15435   1.332  12.664   5.659 -0.1179  0.0458 -0.1514
 1007loPI   C2A15436   1.545  12.597   6.052 -0.0021  0.2046  0.2327
 1007loPI   C3A15437   1.573  12.720   6.503  0.0364 -0.0667 -0.2000
 1007loPI   C4A15438   1.645  12.784   6.977 -0.1683  0.2745  0.0491
 1007loPI   C5A15439   2.051  12.795   7.265  0.1992  0.1230 -0.0537
 1007loPI   C6A15440   2.267  13.063   7.595  0.2297  0.2791 -0.1588
 1007loPI   C1B15441   0.894  13.046   5.737  0.1224  0.2170  0.1919
 1007loPI   C2B15442   0.800  13.292   6.086 -0.0174  0.4908 -0.1211
 1007loPI   C3B15443   0.797  12.977   6.364  0.0975  0.0961 -0.1973
 1007loPI   C4B15444   0.725  12.985   6.776  0.0494  0.1517 -0.0175
 1008loPI    C115445   2.852  11.325   4.633 -0.1340 -0.0430 -0.3198
 1008loPI    C215446   2.466  11.273   4.540 -0.2405  0.2133 -0.0383
 1008loPI    C315447   2.608  11.641   4.607  0.0364  0.1130 -0.0615
 1008loPI   PO415448   2.893  11.162   4.802  0.1808  0.2077  0.0164
 1008loPI   GL115449   3.065  11.160   5.181  0.0393  0.2057 -0.1068
 1008loPI   GL215450   2.821  11.089   5.326  0.4692  0.0320 -0.0029
 1008loPI   C1A15451   3.383  11.181   5.425 -0.2631  0.0530  0.3588
 1008loPI   C2A15452   3.384  11.160   5.826 -0.0307 -0.1317  0.1534
 1008loPI   C3A15453   3.385  11.279   6.179 -0.0066  0.3404  0.0405
 1008loPI   C4A15454   3.415  11.336   6.674 -0.1612 -0.0047 -0.2016
 1008loPI   C5A15455   3.358  11.313   6.987  0.0375  0.1798  0.0454
 1008loPI   C6A15456   3.110  11.350   7.275  0.3432 -0.0616 -0.1545
 1008loPI   C1B15457   2.923  11.210   5.680 -0.0573  0.3160 -0.1259
 1008loPI   C2B15458   2.825  11.205   6.052  0.1020  0.1902  0.0538
 1008loPI   C3B15459   2.948  11.172   6.420 -0.0229  0.1175 -0.0117
 1008loPI   C4B15460   2.900  11.198   6.813 -0.0842  0.0635  0.2039
 1009loPI    C115461  14.853  13.438   5.460  0.0658  0.2960 -0.0227
 1009loPI    C215462  15.111  13.459   5.156  0.0345 -0.1056 -0.0820
 1009loPI    C315463  14.721  13.516   5.091  0.0454 -0.0382 -0.0890
 1009loPI   PO415464  15.016  13.517   5.670 -0.0756 -0.0817 -0.1225
 1009loPI   GL115465  14.980  13.618   6.062  0.2898  0.2685 -0.2356
 1009loPI   GL215466  14.754  13.395   6.240  0.1952  0.2865  0.1340
 1009loPI   C1A15467  15.276  13.682   6.281  0.1706  0.1300  0.0713
 1009loPI   C2A15468  15.361  13.648   6.684  0.1944 -0.4035  0.1180
 1009loPI   C3A15469  15.355  13.521   7.002 -0.1114  0.0258 -0.0616
 1009loPI   C4A15470  15.593  13.602   7.466  0.0766  0.0086  0.2343
 1009loPI   C5A15471  15.647  13.887   7.827 -0.0818  0.2716 -0.0295
 1009loPI   C6A15472  15.686  13.964   8.198 -0.2831 -0.0374  0.0705
 1009loPI   C1B15473  14.796  13.337   6.671  0.1815 -0.1897 -0.0912
 1009loPI   C2B15474  14.730  13.352   7.171 -0.0904 -0.1569  0.1407
 1009loPI   C3B15475  15.052  13.316   7.355  0.1501  0.1806  0.0505
 1009loPI   C4B15476  15.372  13.112   7.545  0.0058  0.2769  0.3207
 1010loPI    C115477   4.855   1.806   5.268 -0.0880 -0.0774  0.2213
 1010loPI    C215478   5.031   1.533   5.034 -0.1530 -0.1030  0.2020
 1010loPI    C315479   4.653   1.643   4.963 -0.0559  0.1556  0.0734
 1010loPI   PO415480   5.009   1.950   5.374 -0.1031 -0.4008  0.0323
 1010loPI   GL115481   5.027   2.179   5.820  0.0131  0.1263  0.0914
 1010loPI   GL215482   5.399   1.925   5.802  0.1667 -0.2847 -0.1472
 1010loPI   C1A15483   4.909   2.182   6.193 -0.2855  0.4890  0.0273
 1010loPI   C2A15484   4.473   2.276   6.356  0.2825  0.1428 -0.0054
 1010loPI   C3A15485   4.262   2.332   6.689 -0.0899  0.1344 -0.2062
 1010loPI   C4A15486   4.148   2.334   7.189  0.0502 -0.2961  0.0453
 1010loPI   C5A15487   4.194   2.260   7.587 -0.1491 -0.2436  0.0646
 1010loPI   C6A15488   4.337   2.198   7.956 -0.0975  0.1709  0.0371
 1010loPI   C1B15489   5.397   2.097   6.227 -0.1587  0.2964 -0.1652
 1010loPI   C2B15490   5.398   2.100   6.677  0.1280  0.0375  0.3393
 1010loPI   C3B15491   5.394   2.087   7.149 -0.1970  0.0860  0.0700
 1010loPI   C4B15492   5.430   2.264   7.572 -0.2451 -0.0093  0.0076
 1011loPI    C115493   3.656   3.551   4.933  0.1182  0.1448 -0.0005
 1011loPI    C215494   3.612   3.564   4.535  0.1558  0.0618 -0.0075
 1011loPI    C315495   3.973   3.494   4.694  0.0905 -0.1838  0.0370
 1011loPI   PO415496   3.555   3.383   5.001 -0.4259  0.3220 -0.2083
 1011loPI   GL115497   3.635   3.115   5.300  0.0013  0.0543  0.0068
 1011loPI   GL215498   3.663   2.818   5.371  0.1368  0.1702 -0.1131
 1011loPI   C1A15499   3.922   3.126   5.715 -0.1565  0.0925  0.1826
 1011loPI   C2A15500   3.899   2.939   6.182 -0.3063 -0.3101 -0.1178
 1011loPI   C3A15501   3.770   2.793   6.601 -0.2847 -0.0801 -0.3259
 1011loPI   C4A15502   3.841   2.830   7.046 -0.2474 -0.0270 -0.1363
 1011loPI   C5A15503   3.535   2.963   7.348  0.1874  0.1485 -0.0741
 1011loPI   C6A15504   3.169   3.336   7.323 -0.2257  0.0301  0.2621
 1011loPI   C1B15505   3.826   2.637   5.800 -0.2038 -0.0200  0.0608
 1011loPI   C2B15506   3.896   2.466   6.308  0.0657 -0.0159  0.0596
 1011loPI   C3B15507   3.711   2.243   6.682 -0.1588  0.1812  0.2036
 1011loPI   C4B15508   3.599   2.340   7.177  0.0817  0.2361 -0.1716
 1012loPI    C115509  16.598   1.654   5.647  0.0321  0.2468 -0.0316
 1012loPI    C215510  16.945   1.457   5.629 -0.1125 -0.0148  0.0004
 1012loPI    C315511  16.803   1.641   5.304 -0.0285 -0.0542 -0.0587
 1012loPI   PO415512  16.459   1.539   5.786  0.0023  0.2554 -0.1028
 1012loPI   GL115513  16.294   1.418   6.138 -0.0320 -0.0537 -0.0432
 1012loPI   GL215514  16.031   1.580   5.970  0.1226 -0.2293 -0.1932
 1012loPI   C1A15515  16.235   1.585   6.476 -0.1071  0.2744  0.0900
 1012loPI   C2A15516  16.233   1.645   6.995 -0.2175  0.3586 -0.1276
 1012loPI   C3A15517  16.189   1.821   7.336 -0.4520 -0.1038  0.1206
 1012loPI   C4A15518  15.779   1.967   7.628 -0.0048  0.0443 -0.0366
 1012loPI   C5A15519  15.587   1.771   7.942 -0.1915 -0.1072  0.2645
 1012loPI   C6A15520  15.310   1.625   8.184 -0.2927  0.1245  0.1647
 1012loPI   C1B15521  15.840   1.442   6.251 -0.0057 -0.2315  0.1780
 1012loPI   C2B15522  15.715   1.573   6.754 -0.1731 -0.1145  0.0418
 1012loPI   C3B15523  15.596   1.789   7.072 -0.0963  0.0283 -0.2993
 1012loPI   C4B15524  15.400   2.011   7.246 -0.0495 -0.2479 -0.0755
 1013loPI    C115525  12.478   6.243   5.434  0.2837  0.1269  0.1270
 1013loPI    C215526  12.500   5.924   5.194 -0.0457  0.1714  0.0328
 1013loPI    C315527  12.692   6.260   5.097  0.0717  0.0920 -0.0116
 1013loPI   PO415528  12.547   6.200   5.654  0.1141  0.1826 -0.1978
 1013loPI   GL115529  12.376   6.256   6.026 -0.0298 -0.1759 -0.1192
 1013loPI   GL215530  12.397   5.971   6.088  0.1207 -0.1496  0.0694
 1013loPI   C1A15531  12.089   6.300   6.344  0.1781 -0.3529  0.2315
 1013loPI   C2A15532  12.077   6.470   6.741  0.2192 -0.0557 -0.1129
 1013loPI   C3A15533  12.271   6.607   7.095  0.3029  0.1240  0.2999
 1013loPI   C4A15534  12.383   6.473   7.526  0.1530 -0.1234 -0.0817
 1013loPI   C5A15535  12.494   6.074   7.845  0.0049  0.0316 -0.1100
 1013loPI   C6A15536  12.397   5.625   7.942 -0.2169 -0.0827  0.1881
 1013loPI   C1B15537  12.287   5.898   6.563  0.1804  0.1557 -0.0198
 1013loPI   C2B15538  12.209   5.872   6.963  0.2100 -0.3444 -0.3075
 1013loPI   C3B15539  12.089   6.156   7.302 -0.1944 -0.3805  0.1555
 1013loPI   C4B15540  11.809   6.526   7.326  0.1712 -0.4740  0.1935
 1014loPI    C115541  17.415   4.836   5.028  0.1357 -0.4695 -0.1131
 1014loPI    C215542  17.129   4.601   4.877 -0.1256 -0.2503  0.0297
 1014loPI    C315543  17.289   4.890   4.652 -0.2497 -0.1631  0.0526
 1014loPI   PO415544  17.543   4.610   5.147  0.1477 -0.3417 -0.1857
 1014loPI   GL115545  17.514   4.592   5.655  0.2731 -0.0936 -0.1117
 1014loPI   GL215546  17.798   4.448   5.591 -0.2856 -0.1372  0.0440
 1014loPI   C1A15547  17.428   4.502   6.121  0.1967  0.1780 -0.0337
 1014loPI   C2A15548  17.284   4.337   6.497 -0.3060 -0.2225 -0.1449
 1014loPI   C3A15549  17.402   4.118   6.840  0.2713  0.2682  0.0156
 1014loPI   C4A15550  17.679   3.813   7.046 -0.0968 -0.0011  0.2652
 1014loPI   C5A15551  17.593   3.637   7.397  0.1778 -0.1127 -0.0502
 1014loPI   C6A15552  17.361   3.383   7.706  0.0690  0.1754 -0.0254
 1014loPI   C1B15553  17.880   4.409   5.975 -0.1133 -0.1384  0.0921
 1014loPI   C2B15554  17.864   4.637   6.277  0.2162 -0.1329  0.2548
 1014loPI   C3B15555  17.887   4.693   6.721 -0.0540 -0.2441  0.0447
 1014loPI   C4B15556  17.985   4.789   7.152  0.0293  0.2005  0.1353
 1015loPI    C115557  17.227  14.168   5.110  0.0915  0.0888  0.1269
 1015loPI    C215558  17.620  14.186   5.183  0.0454 -0.0063  0.4077
 1015loPI    C315559  17.485  13.987   4.864  0.2200 -0.0476  0.3585
 1015loPI   PO415560  17.106  14.131   5.334  0.2446  0.0912  0.2938
 1015loPI   GL115561  17.124  14.418   5.723  0.1404 -0.1989  0.3153
 1015loPI   GL215562  17.193  14.178   5.828  0.0294 -0.0784  0.0429
 1015loPI   C1A15563  16.972  14.572   6.063  0.1380 -0.2388 -0.0395
 1015loPI   C2A15564  16.933  14.583   6.566  0.0557 -0.1166 -0.0093
 1015loPI   C3A15565  16.963  14.488   7.004  0.1535 -0.1503 -0.3096
 1015loPI   C4A15566  16.990  14.474   7.504 -0.0970  0.0476  0.0211
 1015loPI   C5A15567  16.863  14.819   7.788  0.3453 -0.2403  0.1889
 1015loPI   C6A15568  16.684  14.959   8.211 -0.1301 -0.1381  0.0250
 1015loPI   C1B15569  17.152  14.165   6.237 -0.2685  0.4806  0.1027
 1015loPI   C2B15570  17.203  13.993   6.608  0.0023 -0.3055 -0.1654
 1015loPI   C3B15571  17.170  14.049   6.903 -0.2663 -0.2648 -0.1508
 1015loPI   C4B15572  17.265  13.904   7.276  0.0167 -0.2086 -0.0577
 1016loPI    C115573  13.017   8.395   5.045  0.0335 -0.1990  0.0652
 1016loPI    C215574  13.194   8.720   5.197  0.1269 -0.2019 -0.0359
 1016loPI    C315575  13.289   8.594   4.829 -0.1846 -0.1255 -0.1457
 1016loPI   PO415576  12.977   8.216   5.342 -0.2200  0.1125  0.0028
 1016loPI   GL115577  12.871   8.220   5.740  0.1987  0.1084 -0.0147
 1016loPI   GL215578  13.149   7.978   5.776 -0.0298  0.0114  0.3683
 1016loPI   C1A15579  13.079   8.234   6.254 -0.2720  0.2801  0.1185
 1016loPI   C2A15580  13.157   8.369   6.681  0.2402 -0.0356 -0.0247
 1016loPI   C3A15581  13.257   8.086   6.961  0.0203  0.1100 -0.2182
 1016loPI   C4A15582  13.051   8.003   7.348  0.0829  0.2143  0.1545
 1016loPI   C5A15583  12.624   7.845   7.533 -0.0338  0.0440 -0.3613
 1016loPI   C6A15584  12.515   7.766   7.930  0.0199 -0.0664  0.1602
 1016loPI   C1B15585  13.349   7.631   6.049 -0.1082 -0.1341  0.4906
 1016loPI   C2B15586  13.332   7.787   6.422  0.0355 -0.0119  0.0868
 1016loPI   C3B15587  13.133   7.524   6.754 -0.1076  0.0962 -0.2840
 1016loPI   C4B15588  12.942   7.166   6.913  0.1127 -0.3375  0.0200
 1017loPI    C115589  14.604  16.934   5.285  0.4288  0.1018 -0.0301
 1017loPI    C215590  14.560  16.852   4.897  0.2125 -0.0156  0.0182
 1017loPI    C315591  14.281  17.064   5.089  0.2195 -0.1292  0.1554
 1017loPI   PO415592  14.750  16.666   5.354  0.0641 -0.0229  0.0854
 1017loPI   GL115593  14.727  16.508   5.760  0.2529 -0.3558  0.1181
 1017loPI   GL215594  14.622  16.176   5.935 -0.1791 -0.1946  0.0811
 1017loPI   C1A15595  14.662  16.705   6.151 -0.1717 -0.1346  0.0177
 1017loPI   C2A15596  14.667  16.718   6.571 -0.2302 -0.1017  0.1489
 1017loPI   C3A15597  14.752  16.601   7.009  0.0994 -0.1369 -0.3036
 1017loPI   C4A15598  14.844  16.716   7.388  0.1110  0.0709 -0.0463
 1017loPI   C5A15599  14.728  16.539   7.732 -0.4154 -0.1976 -0.2481
 1017loPI   C6A15600  14.576  16.221   7.766 -0.1154  0.0615  0.0765
 1017loPI   C1B15601  14.648  16.197   6.359 -0.0412  0.1376 -0.0872
 1017loPI   C2B15602  14.502  16.233   6.824  0.2221  0.1545  0.0122
 1017loPI   C3B15603  14.431  16.261   7.281 -0.0203 -0.2405  0.3591
 1017loPI   C4B15604  14.128  16.308   7.616 -0.1007  0.1587 -0.1198
 1018loPI    C115605   0.008  10.132   5.126 -0.2145  0.0372 -0.0153
 1018loPI    C215606  -0.188   9.872   5.358 -0.0484 -0.0098  0.0745
 1018loPI    C315607  -0.212   9.843   4.960 -0.1286 -0.0867  0.0847
 1018loPI   PO415608   0.009  10.328   5.206  0.2213 -0.0967 -0.0652
 1018loPI   GL115609  -0.006  10.317   5.631 -0.6158 -0.1577 -0.2535
 1018loPI   GL215610   0.204  10.242   5.920  0.2308  0.1046  0.0088
 1018loPI   C1A15611  -0.278   9.871   5.832  0.0467 -0.0207 -0.3008
 1018loPI   C2A15612  -0.307   9.711   6.285 -0.2591  0.0989  0.1482
 1018loPI   C3A15613  -0.160   9.813   6.725  0.0549  0.0729 -0.0815
 1018loPI   C4A15614   0.024  10.082   7.053 -0.1811  0.1193 -0.2083
 1018loPI   C5A15615   0.085  10.212   7.490  0.3030  0.0330 -0.0488
 1018loPI   C6A15616  -0.087  10.325   7.933 -0.3444  0.0118  0.0142
 1018loPI   C1B15617   0.243  10.635   6.241  0.3953  0.2570  0.0314
 1018loPI   C2B15618   0.502  10.779   6.636 -0.2132 -0.0331 -0.1327
 1018loPI   C3B15619   0.864  10.867   6.811 -0.0860  0.0894 -0.1254
 1018loPI   C4B15620   1.309  10.873   6.782  0.1122  0.0077  0.0109
 1019loPI    C115621   5.267   3.586   4.644  0.1240  0.1638  0.1449
 1019loPI    C215622   5.563   3.570   4.375 -0.1654 -0.4811 -0.1577
 1019loPI    C315623   5.192   3.665   4.259 -0.1824 -0.1821  0.1277
 1019loPI   PO415624   5.450   3.436   4.832  0.1725 -0.0063  0.1088
 1019loPI   GL115625   5.223   3.317   5.241 -0.0821 -0.1230 -0.0121
 1019loPI   GL215626   5.512   3.263   5.439 -0.0740 -0.0118  0.0910
 1019loPI   C1A15627   5.007   3.558   5.549 -0.1257  0.1125  0.0676
 1019loPI   C2A15628   5.001   3.577   6.009 -0.1965  0.0650  0.1715
 1019loPI   C3A15629   4.969   3.693   6.360 -0.2027  0.1401  0.1214
 1019loPI   C4A15630   5.076   3.624   6.833 -0.0858 -0.2307  0.0295
 1019loPI   C5A15631   5.325   3.811   7.166  0.1267  0.1618  0.2506
 1019loPI   C6A15632   5.795   3.866   7.389 -0.0645 -0.1698  0.2323
 1019loPI   C1B15633   5.492   3.375   5.859 -0.3951 -0.1525 -0.2342
 1019loPI   C2B15634   5.412   3.410   6.256  0.2341  0.1869  0.0223
 1019loPI   C3B15635   5.539   3.425   6.583 -0.1405 -0.1312  0.3715
 1019loPI   C4B15636   5.665   3.483   6.948  0.2659 -0.1188 -0.2121
 1020loPI    C115637   4.610  13.044   4.696  0.0529 -0.1041 -0.1664
 1020loPI    C215638   5.009  13.072   4.695  0.0495 -0.0555 -0.1603
 1020loPI    C315639   4.786  13.380   4.570  0.0085  0.0075  0.0640
 1020loPI   PO415640   4.543  12.897   4.950 -0.5099  0.0573  0.1801
 1020loPI   GL115641   4.486  12.846   5.417  0.2253  0.2457 -0.1777
 1020loPI   GL215642   4.204  12.973   5.570  0.0036  0.3060  0.2292
 1020loPI   C1A15643   4.514  12.750   5.857 -0.3341  0.2251 -0.2715
 1020loPI   C2A15644   4.623  12.682   6.335  0.3108  0.2167  0.2975
 1020loPI   C3A15645   4.434  12.808   6.688 -0.0126  0.1682  0.0033
 1020loPI   C4A15646   4.665  12.775   7.142 -0.1274  0.4143 -0.0163
 1020loPI   C5A15647   4.632  12.828   7.555 -0.1081 -0.4880  0.0005
 1020loPI   C6A15648   4.512  13.189   7.816  0.0114  0.1732  0.1969
 1020loPI   C1B15649   4.244  13.171   5.977  0.1639  0.2117 -0.0253
 1020loPI   C2B15650   4.228  13.132   6.357  0.0513 -0.1733  0.0598
 1020loPI   C3B15651   4.184  13.213   6.842 -0.1186 -0.2106  0.0547
 1020loPI   C4B15652   4.277  13.111   7.248 -0.3051  0.2563 -0.3240
 1021loPI    C115653   1.813  16.914   4.775  0.1859  0.2628  0.3395
 1021loPI    C215654   1.849  16.675   4.456 -0.3154  0.1287  0.3738
 1021loPI    C315655   2.137  16.939   4.543 -0.0980  0.0550 -0.0930
 1021loPI   PO415656   1.790  16.724   4.989 -0.1705 -0.3101  0.0234
 1021loPI   GL115657   1.708  16.607   5.412 -0.2172  0.3731  0.1816
 1021loPI   GL215658   2.074  16.693   5.413  0.1895  0.2939 -0.4784
 1021loPI   C1A15659   1.666  16.428   5.918  0.0704  0.2741  0.0886
 1021loPI   C2A15660   1.667  16.495   6.305  0.0728  0.2212  0.0795
 1021loPI   C3A15661   1.605  16.374   6.701  0.0604 -0.0074  0.3229
 1021loPI   C4A15662   1.633  16.319   7.122  0.1379 -0.1950 -0.2002
 1021loPI   C5A15663   1.917  15.983   7.299 -0.1318  0.2932 -0.2193
 1021loPI   C6A15664   2.129  15.624   7.450 -0.3090 -0.0396  0.0661
 1021loPI   C1B15665   2.033  16.717   5.797 -0.1052 -0.1199  0.0487
 1021loPI   C2B15666   2.183  16.588   6.137  0.2023  0.0831 -0.0191
 1021loPI   C3B15667   2.316  16.560   6.493  0.0970  0.1408 -0.2852
 1021loPI   C4B15668   2.397  16.799   6.813  0.2387 -0.1909  0.1358
 1022loPI    C115669   4.930  14.566   4.874 -0.4323  0.1154 -0.0123
 1022loPI    C215670   4.989  14.318   4.565 -0.0409  0.1007  0.0692
 1022loPI    C315671   4.685  14.578   4.558 -0.0552  0.0787 -0.3140
 1022loPI   PO415672   4.982  14.395   5.109  0.0556 -0.2234 -0.2005
 1022loPI   GL115673   4.783  14.409   5.482  0.0375  0.2502  0.0742
 1022loPI   GL215674   4.561  14.180   5.689  0.0316  0.1011 -0.0223
 1022loPI   C1A15675   4.870  14.589   5.831  0.2220  0.2741  0.0429
 1022loPI   C2A15676   4.891  14.441   6.234 -0.1677  0.2160 -0.1770
 1022loPI   C3A15677   5.133  14.413   6.678 -0.0147 -0.3388  0.0408
 1022loPI   C4A15678   5.078  14.155   7.097  0.2480  0.1780  0.2096
 1022loPI   C5A15679   4.879  13.868   7.407 -0.0993 -0.2355 -0.0801
 1022loPI   C6A15680   4.422  13.664   7.582 -0.1126 -0.0202  0.0915
 1022loPI   C1B15681   4.519  14.139   6.205  0.1860 -0.0398  0.0738
 1022loPI   C2B15682   4.692  14.136   6.683  0.0927 -0.0290  0.2015
 1022loPI   C3B15683   4.497  14.109   7.148  0.2657 -0.1431  0.1661
 1022loPI   C4B15684   4.478  14.260   7.459  0.0232 -0.1030 -0.4167
 1023loPI    C115685   9.310  10.001   4.989  0.1907  0.0740 -0.1981
 1023loPI    C215686   9.626   9.950   4.749  0.2066 -0.0251 -0.1565
 1023loPI    C315687   9.326  10.190   4.637  0.3539  0.1693 -0.1407
 1023loPI   PO415688   9.329   9.984   5.210  0.0843 -0.1827  0.5054
 1023loPI   GL115689   9.636  10.134   5.515  0.0262 -0.2093 -0.3038
 1023loPI   GL215690   9.904  10.099   5.402 -0.0363 -0.1776  0.2072
 1023loPI   C1A15691   9.737  10.082   5.960  0.0410 -0.0772  0.1215
 1023loPI   C2A15692   9.699  10.214   6.368  0.0557 -0.0286  0.3950
 1023loPI   C3A15693   9.641  10.357   6.838 -0.1461 -0.1981  0.2081
 1023loPI   C4A15694   9.803  10.254   7.219  0.0400  0.0123 -0.0570
 1023loPI   C5A15695  10.095  10.050   7.541  0.1074 -0.3428  0.1355
 1023loPI   C6A15696  10.375  10.091   7.921 -0.0219 -0.1847 -0.0985
 1023loPI   C1B15697  10.203  10.145   5.838 -0.2920  0.1022  0.1089
 1023loPI   C2B15698  10.235  10.166   6.322  0.0608 -0.1729  0.0717
 1023loPI   C3B15699  10.590  10.161   6.632 -0.0664  0.0225 -0.2805
 1023loPI   C4B15700  10.966   9.958   6.791  0.1687 -0.0151 -0.2875
 1024loPI    C115701   2.084  17.853   5.106 -0.2369  0.0042  0.0619
 1024loPI    C215702   1.945  18.225   5.052 -0.0012  0.0610 -0.1685
 1024loPI    C315703   2.061  18.006   4.738 -0.1235 -0.2033 -0.0329
 1024loPI   PO415704   1.895  17.725   5.208  0.2106 -0.0310 -0.1217
 1024loPI   GL115705   1.888  17.700   5.675  0.2127  0.2763 -0.0079
 1024loPI   GL215706   1.951  18.070   5.821 -0.1620 -0.1239 -0.0315
 1024loPI   C1A15707   1.941  17.561   6.071 -0.1205  0.0154 -0.2946
 1024loPI   C2A15708   1.971  17.250   6.302  0.2503  0.2223 -0.0906
 1024loPI   C3A15709   1.892  16.952   6.549 -0.2365  0.0581  0.0505
 1024loPI   C4A15710   1.962  16.613   6.917  0.2055  0.0977 -0.0911
 1024loPI   C5A15711   2.184  16.427   7.340  0.4389  0.0267 -0.0112
 1024loPI   C6A15712   2.573  16.559   7.550  0.3134 -0.1822  0.1327
 1024loPI   C1B15713   1.997  18.337   6.144  0.1774  0.0358 -0.0559
 1024loPI   C2B15714   2.188  18.554   6.482  0.1270 -0.1195 -0.2235
 1024loPI   C3B15715   2.246  18.644   6.888 -0.1335  0.0142  0.0772
 1024loPI   C4B15716   2.631  18.600   7.186 -0.2212 -0.0551  0.1410
 1025loPI    C115717   1.552   8.166   4.856 -0.1843 -0.0259 -0.2590
 1025loPI    C215718   1.883   8.246   4.645  0.1867  0.0155  0.3160
 1025loPI    C315719   1.671   7.916   4.567  0.1818  0.1449 -0.2620
 1025loPI   PO415720   1.606   8.253   5.124  0.0718  0.0437 -0.1804
 1025loPI   GL115721   1.809   8.155   5.464 -0.0075 -0.0719  0.0532
 1025loPI   GL215722   2.107   8.020   5.376 -0.0502  0.2113 -0.0291
 1025loPI   C1A15723   1.880   8.323   5.736  0.2362 -0.0780  0.1556
 1025loPI   C2A15724   1.821   8.365   6.071 -0.1640 -0.0049 -0.3510
 1025loPI   C3A15725   1.840   8.369   6.531  0.0729 -0.2237 -0.1322
 1025loPI   C4A15726   1.706   8.299   7.006 -0.2242 -0.1180  0.0398
 1025loPI   C5A15727   1.684   8.170   7.439 -0.4158 -0.0671  0.2899
 1025loPI   C6A15728   1.657   8.120   7.792  0.2711 -0.2204 -0.1850
 1025loPI   C1B15729   2.052   7.865   5.846 -0.1163  0.0011  0.1411
 1025loPI   C2B15730   2.032   7.915   6.269  0.2591 -0.7180  0.0670
 1025loPI   C3B15731   2.022   7.934   6.762 -0.0579  0.1738  0.1427
 1025loPI   C4B15732   2.050   7.904   7.150  0.1814  0.3298 -0.1990
 1026loPI    C115733  15.185  13.966   4.959  0.1234 -0.0783  0.1619
 1026loPI    C215734  15.009  13.712   4.706  0.1759 -0.1298  0.1770
 1026loPI    C315735  15.396  13.800   4.663  0.0245  0.4027 -0.1908
 1026loPI   PO415736  14.997  13.992   5.202  0.5578 -0.2836 -0.0533
 1026loPI   GL115737  14.997  13.983   5.676 -0.3303  0.2584 -0.0244
 1026loPI   GL215738  15.370  14.104   5.721  0.3020  0.1177 -0.0955
 1026loPI   C1A15739  14.703  14.263   5.912  0.0716 -0.2355  0.0471
 1026loPI   C2A15740  14.830  14.439   6.254 -0.0790  0.1046 -0.1871
 1026loPI   C3A15741  14.953  14.345   6.663  0.0537 -0.1097  0.1330
 1026loPI   C4A15742  15.157  14.611   7.041 -0.2185 -0.0334  0.3968
 1026loPI   C5A15743  15.178  14.846   7.548  0.0965  0.3183  0.3058
 1026loPI   C6A15744  15.091  14.860   7.976  0.2164 -0.1101  0.1347
 1026loPI   C1B15745  15.182  14.123   6.130 -0.0345 -0.1981 -0.0117
 1026loPI   C2B15746  15.401  14.132   6.588  0.0876 -0.1545 -0.0387
 1026loPI   C3B15747  15.330  14.042   7.089  0.1393  0.2836  0.0537
 1026loPI   C4B15748  15.111  13.816   7.379  0.3028  0.2648 -0.3308
 1027loPI    C115749   0.223   5.028   5.002 -0.1827  0.1147 -0.1104
 1027loPI    C215750   0.497   4.738   4.974 -0.0091  0.2301  0.3157
 1027loPI    C315751   0.321   4.879   4.644  0.1786 -0.0959  0.0702
 1027loPI   PO415752   0.320   5.224   5.067 -0.0809 -0.3191 -0.2938
 1027loPI   GL115753   0.321   5.441   5.384 -0.0705  0.2791 -0.0343
 1027loPI   GL215754  -0.036   5.548   5.291 -0.0832 -0.1131  0.0987
 1027loPI   C1A15755   0.556   5.487   5.692  0.0330 -0.0442  0.0857
 1027loPI   C2A15756   0.876   5.355   6.024 -0.2391 -0.0428  0.2551
 1027loPI   C3A15757   1.088   5.105   6.455  0.0697 -0.0170 -0.1905
 1027loPI   C4A15758   1.082   5.083   6.913 -0.0241  0.2285 -0.3298
 1027loPI   C5A15759   1.091   5.357   7.247 -0.1548 -0.1521 -0.0631
 1027loPI   C6A15760   0.694   5.469   7.534 -0.1031 -0.0403  0.3684
 1027loPI   C1B15761  -0.147   5.543   5.734 -0.1371 -0.1127 -0.0631
 1027loPI   C2B15762  -0.130   5.632   6.225 -0.0834 -0.2315  0.0031
 1027loPI   C3B15763  -0.335   5.531   6.632 -0.2731 -0.0819 -0.2242
 1027loPI   C4B15764  -0.448   5.287   7.038  0.1920 -0.1830 -0.1151
 1028loPI    C115765  15.434   2.667   5.328 -0.0992  0.0310 -0.0735
 1028loPI    C215766  15.779   2.607   5.135  0.2085  0.0841  0.4410
 1028loPI    C315767  15.644   2.979   5.194  0.0070  0.0597  0.1551
 1028loPI   PO415768  15.509   2.611   5.688  0.0455 -0.2510 -0.4393
 1028loPI   GL115769  15.399   2.821   6.010  0.1108  0.0618 -0.0343
 1028loPI   GL215770  15.204   3.109   6.060  0.2895  0.0796  0.1889
 1028loPI   C1A15771  15.566   2.828   6.474 -0.1485  0.1021 -0.0380
 1028loPI   C2A15772  15.601   2.923   6.896  0.0782  0.1202  0.0845
 1028loPI   C3A15773  15.564   3.090   7.287 -0.2273 -0.1159  0.0925
 1028loPI   C4A15774  15.596   3.435   7.529  0.0846  0.0459  0.1353
 1028loPI   C5A15775  15.435   3.460   7.962  0.1608 -0.2639 -0.1261
 1028loPI   C6A15776  15.335   3.577   8.394 -0.1923  0.0683 -0.2442
 1028loPI   C1B15777  15.411   3.323   6.417  0.0371 -0.1312  0.0287
 1028loPI   C2B15778  15.446   3.373   6.914  0.0450 -0.1246 -0.0059
 1028loPI   C3B15779  15.182   3.356   7.230 -0.3061  0.2285 -0.0322
 1028loPI   C4B15780  15.124   3.228   7.644  0.2458  0.4030 -0.1617
 1029loPI    C115781   7.852  16.067   5.364 -0.2128  0.1278  0.0186
 1029loPI    C215782   8.050  16.332   5.139  0.1682 -0.1560  0.0099
 1029loPI    C315783   7.851  16.031   4.965  0.2163 -0.2056  0.0404
 1029loPI   PO415784   7.764  16.253   5.552 -0.1381  0.1846  0.0326
 1029loPI   GL115785   7.782  16.405   5.939 -0.0533 -0.0077  0.0837
 1029loPI   GL215786   7.927  16.735   5.963  0.0581 -0.3632  0.1788
 1029loPI   C1A15787   7.877  16.130   6.251 -0.0151  0.2224 -0.0669
 1029loPI   C2A15788   7.841  16.207   6.659  0.2108  0.0302  0.0669
 1029loPI   C3A15789   7.641  16.223   7.075 -0.1344  0.2712 -0.3068
 1029loPI   C4A15790   7.386  16.054   7.374 -0.1018 -0.0300 -0.2749
 1029loPI   C5A15791   7.261  15.753   7.575  0.2580 -0.1195 -0.1980
 1029loPI   C6A15792   7.429  15.457   7.657  0.1795  0.0483  0.2297
 1029loPI   C1B15793   7.824  16.812   6.357  0.0653 -0.2079 -0.1982
 1029loPI   C2B15794   7.595  16.707   6.662 -0.2105 -0.0018  0.1032
 1029loPI   C3B15795   7.526  16.743   7.047 -0.0880  0.1742  0.1199
 1029loPI   C4B15796   7.509  16.527   7.516  0.1830  0.2579  0.2033
 1030loPI    C115797  13.953  18.102   5.494  0.0147  0.0654  0.0635
 1030loPI    C215798  13.806  17.952   5.154  0.2811  0.0219 -0.0347
 1030loPI    C315799  14.187  17.885   5.254  0.2442  0.1554  0.2029
 1030loPI   PO415800  13.838  18.140   5.647  0.1403 -0.0060 -0.2782
 1030loPI   GL115801  13.916  18.222   6.093  0.1041 -0.0003  0.0794
 1030loPI   GL215802  14.307  18.219   5.897  0.0281 -0.1232  0.2049
 1030loPI   C1A15803  13.878  18.376   6.514 -0.0631 -0.0221  0.1788
 1030loPI   C2A15804  13.981  18.328   6.897 -0.2492  0.1721  0.0695
 1030loPI   C3A15805  14.022  18.329   7.292 -0.2126 -0.0239 -0.2634
 1030loPI   C4A15806  14.246  18.227   7.628 -0.3450  0.1766 -0.0414
 1030loPI   C5A15807  14.252  18.171   8.041 -0.1164  0.0814 -0.0694
 1030loPI   C6A15808  14.588  18.354   8.188 -0.1357 -0.0988  0.0009
 1030loPI   C1B15809  14.442  18.213   6.353  0.3291 -0.3049  0.2219
 1030loPI   C2B15810  14.514  18.222   6.734  0.0135  0.2077 -0.0672
 1030loPI   C3B15811  14.515  18.419   7.170 -0.2146  0.0045 -0.2943
 1030loPI   C4B15812  14.373  18.658   7.479  0.3311  0.0589 -0.0348
 1031loPI    C115813  13.961   6.726   5.367 -0.1393 -0.0639  0.2945
 1031loPI    C215814  13.796   6.954   5.082 -0.0606 -0.3127  0.0456
 1031loPI    C315815  14.174   7.020   5.197 -0.0265 -0.3393 -0.0509
 1031loPI   PO415816  13.897   6.496   5.370  0.1331  0.1604  0.2993
 1031loPI   GL115817  14.065   6.484   5.808  0.2456  0.0580  0.2377
 1031loPI   GL215818  13.807   6.745   5.806 -0.1936  0.0684  0.0416
 1031loPI   C1A15819  14.225   6.738   6.141 -0.0115 -0.0379  0.2265
 1031loPI   C2A15820  14.287   6.723   6.539  0.0161  0.2522  0.2047
 1031loPI   C3A15821  14.316   6.633   6.945  0.1238 -0.0684 -0.1358
 1031loPI   C4A15822  14.272   6.450   7.296 -0.0456  0.1668 -0.2112
 1031loPI   C5A15823  14.285   6.214   7.715  0.1288 -0.2269 -0.2203
 1031loPI   C6A15824  14.598   6.188   8.014  0.1678  0.2757 -0.3796
 1031loPI   C1B15825  13.753   6.817   6.297 -0.0484  0.3337 -0.0331
 1031loPI   C2B15826  13.710   6.756   6.769 -0.1562 -0.0619  0.2422
 1031loPI   C3B15827  13.885   6.800   7.211 -0.1063 -0.4308 -0.1625
 1031loPI   C4B15828  14.173   7.156   7.384  0.0023 -0.2493 -0.4308
 1032loPI    C115829   1.943   7.266   4.954  0.0140  0.0125  0.1509
 1032loPI    C215830   2.093   7.248   4.583  0.0441 -0.1532  0.1701
 1032loPI    C315831   1.725   7.393   4.643  0.0259 -0.1579  0.0715
 1032loPI   PO415832   1.995   7.046   5.045 -0.2508  0.0620 -0.1926
 1032loPI   GL115833   2.182   7.217   5.402  0.1960  0.1493  0.0489
 1032loPI   GL215834   2.231   7.541   5.388 -0.1821  0.0469  0.4556
 1032loPI   C1A15835   2.447   7.020   5.677 -0.0345 -0.0006 -0.0320
 1032loPI   C2A15836   2.520   7.058   6.058  0.0273 -0.1631  0.2676
 1032loPI   C3A15837   2.556   6.980   6.440  0.0118  0.1680  0.0687
 1032loPI   C4A15838   2.568   7.082   6.862 -0.1706 -0.0846 -0.0728
 1032loPI   C5A15839   2.613   6.960   7.333 -0.0859 -0.5298  0.0672
 1032loPI   C6A15840   2.924   7.142   7.592  0.1307  0.3229 -0.1949
 1032loPI   C1B15841   2.309   7.430   5.814  0.1462 -0.0577  0.1869
 1032loPI   C2B15842   2.327   7.437   6.250 -0.0607 -0.1991 -0.2566
 1032loPI   C3B15843   2.295   7.512   6.760 -0.0609 -0.0419 -0.3758
 1032loPI   C4B15844   2.398   7.498   7.282  0.0813  0.0439  0.3847
 1033loPI    C115845  10.603  18.551   5.356  0.0793  0.0724 -0.2761
 1033loPI    C215846  10.483  18.918   5.253  0.0184  0.0998 -0.1110
 1033loPI    C315847  10.284  18.598   5.118  0.0275  0.1298 -0.1959
 1033loPI   PO415848  10.642  18.605   5.607  0.1169 -0.3565 -0.1916
 1033loPI   GL115849  10.770  18.675   6.046  0.3858  0.2394 -0.2995
 1033loPI   GL215850  10.976  18.536   5.979  0.2647 -0.0641 -0.1469
 1033loPI   C1A15851  10.752  18.647   6.541 -0.0647  0.0543  0.0559
 1033loPI   C2A15852  10.727  18.754   6.975 -0.3229 -0.1118  0.3360
 1033loPI   C3A15853  10.693  18.886   7.318 -0.0345  0.1571  0.0971
 1033loPI   C4A15854  10.607  19.052   7.677  0.3702  0.0182 -0.3138
 1033loPI   C5A15855  10.859  18.928   7.987 -0.1930 -0.0057 -0.3792
 1033loPI   C6A15856  11.086  18.631   8.204 -0.0685 -0.4097  0.2521
 1033loPI   C1B15857  11.172  18.497   6.377 -0.1645  0.1085  0.1837
 1033loPI   C2B15858  11.398  18.228   6.740  0.2791  0.1296 -0.3915
 1033loPI   C3B15859  11.492  18.161   7.162 -0.0857 -0.1733 -0.1736
 1033loPI   C4B15860  11.371  18.162   7.573 -0.0458 -0.1532  0.2045
 1034loPI    C115861  15.325  15.075   5.355  0.2932 -0.1123  0.3347
 1034loPI    C215862  15.653  15.280   5.251  0.0043  0.1290 -0.1358
 1034loPI    C315863  15.397  15.433   5.518  0.2423 -0.0373  0.1947
 1034loPI   PO415864  15.414  14.845   5.384 -0.2974  0.2845  0.0710
 1034loPI   GL115865  15.690  14.484   5.676  0.0773  0.1148  0.0646
 1034loPI   GL215866  15.691  14.901   5.780  0.3204 -0.0729 -0.2330
 1034loPI   C1A15867  15.348  14.574   5.989  0.3157 -0.0225 -0.0029
 1034loPI   C2A15868  15.382  14.591   6.412 -0.0396  0.0655 -0.1761
 1034loPI   C3A15869  15.593  14.732   6.755  0.2265  0.0480 -0.0356
 1034loPI   C4A15870  15.606  15.055   7.035  0.1106 -0.2059 -0.1933
 1034loPI   C5A15871  15.658  15.014   7.465  0.1382  0.0028 -0.2233
 1034loPI   C6A15872  15.829  15.180   7.878  0.0431 -0.2748  0.0646
 1034loPI   C1B15873  15.669  14.955   6.278 -0.0308  0.0148 -0.4155
 1034loPI   C2B15874  15.788  15.168   6.593 -0.1808 -0.0688  0.3118
 1034loPI   C3B15875  15.972  15.367   7.010  0.1204  0.0760 -0.3555
 1034loPI   C4B15876  16.116  15.318   7.467 -0.2598  0.0243  0.1347
 1035loPI    C115877   2.513   5.118   4.716 -0.2257  0.2343  0.2155
 1035loPI    C215878   2.349   4.933   4.402 -0.0789  0.1589  0.1824
 1035loPI    C315879   2.437   5.323   4.381 -0.0756  0.1556  0.1323
 1035loPI   PO415880   2.714   4.974   4.798 -0.1171  0.0595  0.2537
 1035loPI   GL115881   3.059   4.807   5.130 -0.0831 -0.0430  0.1623
 1035loPI   GL215882   3.015   4.619   5.284 -0.0101  0.2055  0.0529
 1035loPI   C1A15883   2.950   5.067   5.520 -0.3236 -0.2171  0.1109
 1035loPI   C2A15884   3.083   5.191   5.947 -0.2752 -0.1389  0.1252
 1035loPI   C3A15885   3.246   5.216   6.480 -0.2189  0.2586 -0.1799
 1035loPI   C4A15886   3.512   5.222   6.682 -0.1011  0.1508  0.2448
 1035loPI   C5A15887   3.725   5.136   7.063 -0.1170  0.0655 -0.0399
 1035loPI   C6A15888   4.016   4.948   7.354  0.2392 -0.1094  0.1876
 1035loPI   C1B15889   2.982   4.624   5.711 -0.1096  0.3767  0.1347
 1035loPI   C2B15890   2.920   4.661   6.143  0.0246 -0.1878 -0.2156
 1035loPI   C3B15891   2.838   4.731   6.585 -0.0556 -0.0114 -0.1223
 1035loPI   C4B15892   2.845   4.583   6.974  0.2004  0.1613 -0.3133
 1036loPI    C115893   8.031  13.265   5.017  0.1964 -0.1454 -0.1072
 1036loPI    C215894   7.948  13.408   4.653  0.1553 -0.0927 -0.0774
 1036loPI    C315895   7.910  13.017   4.727  0.0302 -0.0837 -0.0921
 1036loPI   PO415896   7.831  13.449   5.193 -0.0912 -0.0769 -0.0246
 1036loPI   GL115897   7.794  13.493   5.626 -0.1613 -0.0730  0.0229
 1036loPI   GL215898   7.892  13.273   5.766 -0.1277  0.1108 -0.1902
 1036loPI   C1A15899   7.895  13.639   6.111  0.0228  0.0697  0.0282
 1036loPI   C2A15900   7.801  13.852   6.474  0.0500  0.2470 -0.1118
 1036loPI   C3A15901   7.978  13.984   6.904 -0.1129  0.0764 -0.1683
 1036loPI   C4A15902   8.111  14.184   7.378  0.3432  0.2350 -0.3802
 1036loPI   C5A15903   8.426  14.526   7.503  0.1686 -0.2281 -0.3103
 1036loPI   C6A15904   8.828  14.603   7.797 -0.0072  0.3803  0.1545
 1036loPI   C1B15905   7.743  13.102   6.172  0.0507  0.4683  0.0332
 1036loPI   C2B15906   7.631  12.652   6.459  0.1822  0.3721 -0.0012
 1036loPI   C3B15907   7.797  12.466   6.849  0.1516  0.1450  0.2214
 1036loPI   C4B15908   7.852  12.030   6.892  0.0091 -0.0631  0.2771
 1037loPI    C115909  17.946   5.755   4.926  0.1062  0.0726 -0.0132
 1037loPI    C215910  17.981   5.422   4.707 -0.0114 -0.0103  0.0929
 1037loPI    C315911  17.655   5.651   4.673  0.0096  0.0234  0.1168
 1037loPI   PO415912  18.020   5.609   5.212 -0.3348  0.0916 -0.0284
 1037loPI   GL115913  17.667   5.440   5.582  0.1214  0.3622  0.2095
 1037loPI   GL215914  17.998   5.368   5.608  0.1902 -0.1919  0.3073
 1037loPI   C1A15915  17.841   5.699   6.041 -0.1299 -0.0533 -0.2731
 1037loPI   C2A15916  17.954   5.919   6.333 -0.1623  0.1467 -0.1959
 1037loPI   C3A15917  18.157   5.993   6.615 -0.0238 -0.2009 -0.1383
 1037loPI   C4A15918  18.620   5.881   6.784 -0.0815  0.1554  0.3026
 1037loPI   C5A15919  18.807   6.103   6.996  0.2246  0.0138 -0.1984
 1037loPI   C6A15920  19.290   6.234   7.122 -0.1545  0.3631 -0.1662
 1037loPI   C1B15921  18.064   5.210   5.936 -0.2765  0.0186 -0.2348
 1037loPI   C2B15922  18.142   5.081   6.371  0.3223 -0.0267 -0.1691
 1037loPI   C3B15923  18.298   4.941   6.742 -0.0520  0.1327 -0.0619
 1037loPI   C4B15924  18.455   4.621   7.038  0.3569  0.3329 -0.0559
 1038loPI    C115925   6.611   9.558   4.866  0.0770 -0.1559  0.1357
 1038loPI    C215926   6.715   9.305   4.575  0.0505  0.1614 -0.1556
 1038loPI    C315927   6.866   9.675   4.582 -0.1956  0.2614  0.0530
 1038loPI   PO415928   6.605   9.328   5.113 -0.2468  0.2224 -0.0377
 1038loPI   GL115929   6.525   9.212   5.615 -0.1405 -0.1514 -0.0186
 1038loPI   GL215930   6.727   8.876   5.645 -0.2869  0.0703  0.1487
 1038loPI   C1A15931   6.627   9.074   6.046 -0.0068 -0.3482  0.0713
 1038loPI   C2A15932   6.675   8.825   6.418 -0.0210  0.0242 -0.0456
 1038loPI   C3A15933   6.684   8.597   6.797 -0.1293 -0.1185 -0.0061
 1038loPI   C4A15934   6.670   8.778   7.279 -0.0692  0.1344 -0.2482
 1038loPI   C5A15935   7.087   8.746   7.643  0.0370 -0.0923  0.2430
 1038loPI   C6A15936   7.225   9.177   7.702  0.3140  0.0354 -0.0046
 1038loPI   C1B15937   6.978   8.676   6.053 -0.1627  0.0694 -0.0262
 1038loPI   C2B15938   7.195   8.555   6.452  0.1284 -0.0683 -0.0493
 1038loPI   C3B15939   7.177   8.417   6.827  0.0471  0.1486 -0.0780
 1038loPI   C4B15940   6.972   8.441   7.186 -0.0336 -0.0597 -0.0144
 1039loPI    C115941   1.924  15.781   4.890  0.3713 -0.3617  0.0317
 1039loPI    C215942   1.564  15.775   4.716  0.2305  0.1145  0.2880
 1039loPI    C315943   1.879  15.613   4.530 -0.0353  0.0504 -0.1198
 1039loPI   PO415944   1.916  15.716   5.207 -0.0239 -0.1050 -0.0422
 1039loPI   GL115945   1.692  15.508   5.546 -0.0299 -0.1066 -0.4010
 1039loPI   GL215946   1.663  15.247   5.504 -0.0916  0.1937  0.1228
 1039loPI   C1A15947   1.491  15.628   5.940  0.0146  0.1116 -0.0230
 1039loPI   C2A15948   1.429  15.568   6.372  0.0827 -0.2564 -0.0638
 1039loPI   C3A15949   1.365  15.403   6.763 -0.3969  0.0811 -0.1304
 1039loPI   C4A15950   1.437  15.177   7.135 -0.0418 -0.3144 -0.3999
 1039loPI   C5A15951   1.236  15.072   7.505 -0.1929  0.1034 -0.1878
 1039loPI   C6A15952   1.059  14.936   7.869 -0.0534 -0.2294 -0.1569
 1039loPI   C1B15953   1.716  15.197   5.923 -0.1038  0.0775  0.1621
 1039loPI   C2B15954   1.692  15.048   6.357 -0.0820  0.2314  0.1853
 1039loPI   C3B15955   1.705  15.006   6.794  0.0293 -0.1820 -0.0041
 1039loPI   C4B15956   1.918  15.184   7.053 -0.2296 -0.1387 -0.0142
 1040loPI    C115957   7.748   6.922   4.994 -0.2489  0.0427 -0.3164
 1040loPI    C215958   8.088   6.767   4.850 -0.0622  0.1357  0.0131
 1040loPI    C315959   7.745   6.721   4.648  0.1309 -0.0226 -0.2860
 1040loPI   PO415960   7.879   6.986   5.207  0.0319 -0.1277  0.0057
 1040loPI   GL115961   7.858   6.981   5.585  0.1736 -0.2759 -0.1669
 1040loPI   GL215962   8.108   7.157   5.822  0.2789 -0.3502 -0.1205
 1040loPI   C1A15963   7.741   6.708   5.822 -0.3741 -0.2748 -0.0661
 1040loPI   C2A15964   7.645   6.578   6.243 -0.0329  0.0117  0.1630
 1040loPI   C3A15965   7.377   6.607   6.596 -0.1686 -0.3216 -0.1618
 1040loPI   C4A15966   7.351   6.567   7.052 -0.0428 -0.4089  0.1603
 1040loPI   C5A15967   7.328   6.526   7.450  0.0978 -0.1060 -0.0861
 1040loPI   C6A15968   7.418   6.173   7.777 -0.1082 -0.2470  0.0581
 1040loPI   C1B15969   8.020   6.918   6.246  0.1141  0.2392 -0.1367
 1040loPI   C2B15970   7.897   6.856   6.627 -0.0998  0.1095  0.2539
 1040loPI   C3B15971   7.803   6.865   7.001  0.0984  0.0639 -0.0092
 1040loPI   C4B15972   7.721   6.822   7.473  0.1245  0.0642 -0.2468
 1041loPI    C115973   5.114  11.222   4.929  0.2060  0.2417  0.0095
 1041loPI    C215974   5.438  11.322   4.717  0.1131  0.0292 -0.2370
 1041loPI    C315975   5.184  11.046   4.577 -0.0446  0.0146  0.0699
 1041loPI   PO415976   5.249  11.212   5.272 -0.0515 -0.3956 -0.1904
 1041loPI   GL115977   5.345  11.479   5.651 -0.0535 -0.1194  0.1471
 1041loPI   GL215978   5.016  11.568   5.537  0.1657 -0.0278 -0.0825
 1041loPI   C1A15979   5.517  11.385   6.118 -0.0856 -0.1598  0.2192
 1041loPI   C2A15980   5.493  11.543   6.535 -0.0882  0.2097  0.1133
 1041loPI   C3A15981   5.590  11.481   6.892  0.3862 -0.2456 -0.0870
 1041loPI   C4A15982   5.652  11.617   7.291 -0.0064  0.0441  0.0374
 1041loPI   C5A15983   5.362  11.723   7.553 -0.2390 -0.0956  0.1047
 1041loPI   C6A15984   5.306  11.736   7.983 -0.0624  0.2277  0.0359
 1041loPI   C1B15985   4.941  11.373   5.831 -0.2152 -0.1286 -0.3026
 1041loPI   C2B15986   5.025  11.352   6.221  0.0000 -0.0539 -0.1621
 1041loPI   C3B15987   5.012  11.537   6.654  0.0698  0.2378  0.0384
 1041loPI   C4B15988   5.086  11.616   7.077 -0.1163  0.0033  0.0213
 1042loPI    C115989  12.083  17.154   5.466 -0.0733  0.1038  0.1905
 1042loPI    C215990  11.845  17.213   5.149 -0.1843  0.1486  0.2814
 1042loPI    C315991  12.210  17.376   5.158 -0.1002 -0.0244  0.0860
 1042loPI   PO415992  11.937  17.111   5.655 -0.1883  0.1038  0.0495
 1042loPI   GL115993  11.601  17.142   5.933 -0.0164 -0.0861 -0.0359
 1042loPI   GL215994  11.417  16.998   6.130 -0.0562 -0.0304 -0.1692
 1042loPI   C1A15995  11.697  17.393   6.321 -0.2252  0.0351  0.1068
 1042loPI   C2A15996  11.608  17.352   6.798  0.1280  0.2551 -0.2002
 1042loPI   C3A15997  11.710  17.639   7.179 -0.0905 -0.6168  0.1260
 1042loPI   C4A15998  11.669  17.655   7.551 -0.0930 -0.0206 -0.2596
 1042loPI   C5A15999  11.924  17.576   7.717  0.1928  0.0232 -0.0296
 1042loPI   C6A16000  12.060  17.683   8.146  0.0540  0.1176 -0.0363
 1042loPI   C1B16001  11.418  16.905   6.650  0.0531  0.0742 -0.2782
 1042loPI   C2B16002  11.335  16.868   7.047  0.0686 -0.0738  0.1870
 1042loPI   C3B16003  11.328  16.757   7.336 -0.2940 -0.1923 -0.2443
 1042loPI   C4B16004  11.266  16.476   7.750 -0.0414 -0.0946  0.1546
 1043loPI    C116005   8.279  10.880   4.827  0.1347  0.1188 -0.2538
 1043loPI    C216006   8.462  10.712   4.513 -0.0098 -0.0715 -0.2381
 1043loPI    C316007   8.120  10.914   4.461  0.0226 -0.0111 -0.2179
 1043loPI   PO416008   8.261  10.738   5.026  0.1529  0.1850 -0.1021
 1043loPI   GL116009   8.300  10.821   5.488 -0.1759  0.2157  0.2940
 1043loPI   GL216010   8.219  10.453   5.585  0.1051  0.0664 -0.4402
 1043loPI   C1A16011   8.429  10.841   5.961  0.2316 -0.0200 -0.1110
 1043loPI   C2A16012   8.321  10.650   6.348  0.0622 -0.2127 -0.1751
 1043loPI   C3A16013   8.306  10.657   6.749  0.0665  0.0328  0.2308
 1043loPI   C4A16014   8.170  10.671   7.150  0.1133 -0.0796 -0.0580
 1043loPI   C5A16015   7.986  10.459   7.504 -0.1301  0.0706  0.0872
 1043loPI   C6A16016   7.764  10.608   7.872  0.6879 -0.0205 -0.0039
 1043loPI   C1B16017   8.394  10.342   5.969  0.1151 -0.0119  0.2511
 1043loPI   C2B16018   8.078  10.128   6.310 -0.1659 -0.0216  0.3474
 1043loPI   C3B16019   7.865   9.987   6.612 -0.0980 -0.0961  0.1365
 1043loPI   C4B16020   7.828  10.132   6.977  0.2955 -0.2910  0.3127
 1044loPI    C116021   7.433   8.912   4.984  0.0059 -0.1391  0.0539
 1044loPI    C216022   7.105   8.876   4.757 -0.0077 -0.0804  0.0641
 1044loPI    C316023   7.446   8.698   4.646  0.0171  0.0440 -0.0635
 1044loPI   PO416024   7.411   8.798   5.308  0.2635  0.0221 -0.2293
 1044loPI   GL116025   7.344   9.013   5.712  0.3891  0.0622 -0.1727
 1044loPI   GL216026   7.569   9.268   5.893  0.1167  0.0494  0.1896
 1044loPI   C1A16027   7.471   8.768   6.051 -0.2168  0.0853  0.1439
 1044loPI   C2A16028   7.658   8.759   6.489  0.1041 -0.4106 -0.0188
 1044loPI   C3A16029   7.974   8.531   6.856 -0.1373 -0.0428  0.0245
 1044loPI   C4A16030   8.050   8.249   7.183 -0.0275  0.0027 -0.0954
 1044loPI   C5A16031   7.992   8.165   7.606  0.1977 -0.2774 -0.0387
 1044loPI   C6A16032   8.267   8.266   7.910  0.1502 -0.0639 -0.1711
 1044loPI   C1B16033   7.534   9.348   6.337  0.0050  0.4113 -0.0392
 1044loPI   C2B16034   7.462   9.158   6.754 -0.1282  0.3012  0.2396
 1044loPI   C3B16035   7.548   8.761   7.033  0.0557 -0.0171  0.2656
 1044loPI   C4B16036   7.573   8.565   7.518  0.3745  0.0148  0.1081
 1045loPI    C116037   4.459   1.689   5.471  0.1138 -0.3428 -0.3226
 1045loPI    C216038   4.210   1.394   5.575  0.1707 -0.3232 -0.1259
 1045loPI    C316039   4.172   1.571   5.218 -0.1700 -0.2425 -0.0535
 1045loPI   PO416040   4.432   1.891   5.615  0.0322 -0.1207 -0.0502
 1045loPI   GL116041   4.491   1.696   6.042 -0.1547 -0.0145 -0.1957
 1045loPI   GL216042   4.290   1.585   6.005  0.1556  0.1048  0.1068
 1045loPI   C1A16043   4.631   1.827   6.422 -0.0210  0.0049  0.1829
 1045loPI   C2A16044   4.551   1.886   6.788  0.0578  0.0887 -0.0157
 1045loPI   C3A16045   4.554   2.066   7.201 -0.0268 -0.1087 -0.1097
 1045loPI   C4A16046   4.536   1.828   7.559 -0.2395  0.0639 -0.2238
 1045loPI   C5A16047   4.683   1.525   7.839  0.1843 -0.3973 -0.0874
 1045loPI   C6A16048   5.019   1.280   7.815  0.2288  0.0004 -0.0029
 1045loPI   C1B16049   4.246   1.502   6.420  0.0119 -0.3735  0.1018
 1045loPI   C2B16050   4.235   1.357   6.889 -0.3488  0.0411 -0.0834
 1045loPI   C3B16051   3.986   1.038   7.086 -0.0862  0.0358 -0.0597
 1045loPI   C4B16052   3.643   0.971   7.453 -0.1866 -0.1189 -0.0377
 1046loPI    C116053   9.199   2.054   5.193  0.0427  0.1031 -0.0871
 1046loPI    C216054   9.114   1.747   4.952 -0.1103 -0.0022  0.0977
 1046loPI    C316055   9.245   2.092   4.798  0.0034 -0.1384 -0.1163
 1046loPI   PO416056   9.273   1.962   5.447 -0.0948 -0.0382 -0.0011
 1046loPI   GL116057   9.097   1.934   5.827  0.0301 -0.0077 -0.0006
 1046loPI   GL216058   8.889   1.556   5.863  0.4886 -0.0592  0.0087
 1046loPI   C1A16059   8.848   1.990   6.189 -0.1398 -0.0995 -0.2198
 1046loPI   C2A16060   8.787   1.971   6.537  0.1416  0.1950  0.1177
 1046loPI   C3A16061   8.605   2.049   6.917  0.2396 -0.0632  0.0410
 1046loPI   C4A16062   8.425   2.239   7.294  0.4547 -0.4104  0.1390
 1046loPI   C5A16063   8.374   2.236   7.805 -0.0966  0.0531  0.0207
 1046loPI   C6A16064   8.567   2.481   8.079  0.1233  0.0746 -0.2046
 1046loPI   C1B16065   8.820   1.463   6.285  0.0292 -0.3588 -0.1363
 1046loPI   C2B16066   8.701   1.556   6.768  0.1641  0.1790  0.0719
 1046loPI   C3B16067   8.594   1.607   7.183  0.0329  0.0046 -0.4288
 1046loPI   C4B16068   8.610   1.761   7.543  0.0807  0.1181  0.1943
 1047loPI    C116069  11.388   4.154   5.358 -0.0085  0.0476 -0.1191
 1047loPI    C216070  11.039   3.998   5.476  0.1481 -0.1089  0.1487
 1047loPI    C316071  11.071   4.168   5.115 -0.1312 -0.3394  0.0113
 1047loPI   PO416072  11.590   4.010   5.410 -0.2560  0.1469  0.1018
 1047loPI   GL116073  11.712   4.016   5.864  0.1912  0.0247 -0.3937
 1047loPI   GL216074  11.389   3.842   5.870  0.2873 -0.0802 -0.1046
 1047loPI   C1A16075  11.808   3.955   6.258  0.1188  0.0306  0.3423
 1047loPI   C2A16076  11.790   3.999   6.679  0.0704  0.1514 -0.1515
 1047loPI   C3A16077  11.994   4.114   6.960  0.0348 -0.0302  0.1311
 1047loPI   C4A16078  12.039   4.490   7.399 -0.1549  0.0663  0.2035
 1047loPI   C5A16079  12.221   4.462   7.664 -0.1028  0.0226  0.0293
 1047loPI   C6A16080  12.400   4.562   7.949 -0.0605  0.2821 -0.0927
 1047loPI   C1B16081  11.333   3.969   6.262  0.0725 -0.1311  0.2146
 1047loPI   C2B16082  11.336   3.841   6.661 -0.2541  0.0981  0.2841
 1047loPI   C3B16083  11.403   3.856   7.090  0.1776 -0.1230 -0.0991
 1047loPI   C4B16084  11.413   3.931   7.534  0.1225  0.0401  0.0169
 1048loPI    C116085  13.009   6.007   5.376  0.0007 -0.0938  0.0004
 1048loPI    C216086  12.987   5.636   5.229 -0.2126 -0.1131  0.0777
 1048loPI    C316087  13.037   5.947   4.982 -0.2202 -0.1763 -0.0039
 1048loPI   PO416088  13.191   5.988   5.573 -0.0880  0.0269  0.0342
 1048loPI   GL116089  13.233   6.065   5.880  0.2702 -0.0333  0.1520
 1048loPI   GL216090  13.146   5.765   6.107 -0.0261  0.0912  0.1207
 1048loPI   C1A16091  13.275   6.180   6.360 -0.1635 -0.0479 -0.0500
 1048loPI   C2A16092  13.517   6.223   6.719  0.0604 -0.1903  0.0509
 1048loPI   C3A16093  13.668   6.327   7.057 -0.0256  0.0944 -0.0132
 1048loPI   C4A16094  13.747   6.407   7.548 -0.1321  0.1365 -0.0684
 1048loPI   C5A16095  13.751   6.209   7.898 -0.0205  0.0617 -0.0087
 1048loPI   C6A16096  14.117   6.054   8.227 -0.1791 -0.1991 -0.2633
 1048loPI   C1B16097  12.864   6.022   6.246  0.1235 -0.0997  0.2563
 1048loPI   C2B16098  12.966   6.091   6.697  0.0513 -0.0136  0.1819
 1048loPI   C3B16099  13.148   6.017   7.059  0.2027 -0.3228  0.0799
 1048loPI   C4B16100  13.634   5.851   7.009 -0.1439  0.1514  0.0919
 1049loPI    C116101   9.892   2.183   5.497 -0.0104 -0.1498  0.0204
 1049loPI    C216102   9.632   2.435   5.328  0.2009  0.0571 -0.0008
 1049loPI    C316103   9.683   2.069   5.176 -0.0886  0.0084  0.0143
 1049loPI   PO416104   9.751   2.209   5.826  0.2634 -0.2443 -0.3047
 1049loPI   GL116105   9.542   2.358   6.186 -0.0568 -0.3736 -0.1088
 1049loPI   GL216106   9.354   2.124   6.193  0.2408  0.0606 -0.0523
 1049loPI   C1A16107   9.016   2.534   6.209 -0.2023 -0.1090  0.1628
 1049loPI   C2A16108   8.670   2.416   6.532  0.4282 -0.0580  0.3550
 1049loPI   C3A16109   8.382   2.549   6.881 -0.2218  0.1208  0.0588
 1049loPI   C4A16110   8.265   2.783   7.226  0.1947  0.1654 -0.1366
 1049loPI   C5A16111   8.198   3.091   7.489 -0.3044 -0.0589  0.1548
 1049loPI   C6A16112   8.310   3.471   7.778  0.0552  0.1510  0.1547
 1049loPI   C1B16113   9.241   2.246   6.558  0.1025 -0.2990 -0.2406
 1049loPI   C2B16114   9.185   2.273   6.923 -0.1137  0.1866 -0.2688
 1049loPI   C3B16115   9.273   2.349   7.340  0.2286 -0.0546  0.3626
 1049loPI   C4B16116   9.436   2.402   7.702  0.0841 -0.0067  0.2632
 1050loPI    C116117   5.392   4.604   4.763 -0.0490 -0.0844  0.1103
 1050loPI    C216118   4.999   4.585   4.690  0.0085 -0.0572 -0.2207
 1050loPI    C316119   5.197   4.929   4.635  0.0926 -0.0907 -0.1289
 1050loPI   PO416120   5.436   4.525   5.006 -0.0409 -0.3539  0.1182
 1050loPI   GL116121   5.447   4.269   5.458  0.2444 -0.2186  0.2613
 1050loPI   GL216122   5.662   4.366   5.402 -0.0410 -0.1968  0.1017
 1050loPI   C1A16123   5.060   4.045   5.499  0.2361 -0.0980  0.0840
 1050loPI   C2A16124   4.851   3.996   5.814 -0.2040  0.2101  0.0066
 1050loPI   C3A16125   4.834   4.238   6.207  0.0685  0.1622 -0.0026
 1050loPI   C4A16126   4.768   4.069   6.626 -0.0312 -0.0874  0.1904
 1050loPI   C5A16127   4.607   4.306   6.939 -0.1162 -0.0571  0.1726
 1050loPI   C6A16128   4.529   4.446   7.363 -0.1332  0.0551  0.0740
 1050loPI   C1B16129   5.596   4.419   5.894  0.2295  0.0171  0.2170
 1050loPI   C2B16130   5.844   4.528   6.182  0.0918  0.0105 -0.0747
 1050loPI   C3B16131   5.684   4.630   6.579 -0.0447  0.1750 -0.0155
 1050loPI   C4B16132   5.441   4.647   6.998 -0.2052  0.0918  0.2097
 1051loPI    C116133   1.620  15.268   4.765 -0.1792 -0.1576 -0.1672
 1051loPI    C216134   1.582  14.876   4.692  0.1798 -0.2178 -0.0530
 1051loPI    C316135   1.835  15.097   4.475 -0.1374 -0.0120 -0.2228
 1051loPI   PO416136   1.681  15.260   5.005  0.2123  0.1489  0.1116
 1051loPI   GL116137   1.595  14.743   5.222  0.1065 -0.2443 -0.0727
 1051loPI   GL216138   1.641  14.452   5.264  0.0114  0.1092 -0.2084
 1051loPI   C1A16139   1.462  14.753   5.640  0.0033 -0.0430 -0.1146
 1051loPI   C2A16140   1.292  14.779   6.068  0.0587 -0.0346  0.0337
 1051loPI   C3A16141   1.385  14.632   6.449 -0.2995 -0.1242  0.1322
 1051loPI   C4A16142   1.499  14.547   6.826 -0.2116  0.1455  0.3727
 1051loPI   C5A16143   1.543  14.704   7.166  0.4197  0.1133  0.2155
 1051loPI   C6A16144   1.720  14.864   7.559  0.2488  0.0847  0.1806
 1051loPI   C1B16145   1.689  14.244   5.728 -0.0107 -0.2998 -0.0489
 1051loPI   C2B16146   1.578  14.026   6.125 -0.1440  0.0813 -0.4668
 1051loPI   C3B16147   1.648  14.091   6.609  0.0096  0.0716  0.2668
 1051loPI   C4B16148   1.849  14.201   7.069  0.1504  0.0857  0.4886
 1052loPI    C116149   9.733  10.949   4.984  0.0715  0.1390 -0.1504
 1052loPI    C216150   9.564  11.273   4.820 -0.1197  0.1248  0.0141
 1052loPI    C316151   9.707  10.981   4.586  0.0876  0.3431 -0.1360
 1052loPI   PO416152   9.675  10.983   5.272 -0.0170  0.0260  0.1991
 1052loPI   GL116153   9.768  11.084   5.648 -0.3254  0.1924 -0.1029
 1052loPI   GL216154   9.962  11.242   5.851  0.1427  0.2305 -0.0727
 1052loPI   C1A16155   9.437  11.065   6.034 -0.2243 -0.1280 -0.1367
 1052loPI   C2A16156   9.328  10.848   6.444  0.1524  0.0911  0.0359
 1052loPI   C3A16157   9.341  10.747   6.854 -0.0032  0.1063  0.1403
 1052loPI   C4A16158   9.486  10.596   7.276  0.1909  0.1895 -0.0154
 1052loPI   C5A16159   9.578  10.727   7.640 -0.1962  0.2169  0.3206
 1052loPI   C6A16160   9.482  10.683   8.065 -0.1249 -0.1552  0.0447
 1052loPI   C1B16161   9.938  11.081   6.209  0.1532  0.2468  0.4750
 1052loPI   C2B16162   9.708  11.131   6.609  0.1159 -0.0838  0.0921
 1052loPI   C3B16163   9.668  11.134   7.059 -0.0008 -0.0558 -0.1862
 1052loPI   C4B16164   9.523  11.158   7.415  0.2030  0.1875 -0.1137
 1053loPI    C116165   5.789   9.912   5.301  0.0196 -0.2519 -0.0444
 1053loPI    C216166   5.420   9.896   5.455 -0.0072 -0.3277 -0.1153
 1053loPI    C316167   5.476   9.837   5.064  0.0565 -0.0996 -0.1427
 1053loPI   PO416168   5.910   9.823   5.431 -0.0972  0.3813 -0.0792
 1053loPI   GL116169   6.083  10.189   5.680 -0.0869  0.2137 -0.3432
 1053loPI   GL216170   6.207  10.543   5.746  0.2014  0.0368  0.0755
 1053loPI   C1A16171   5.982  10.198   6.186  0.2954  0.0213  0.4237
 1053loPI   C2A16172   5.921  10.175   6.659  0.0854  0.2614  0.1382
 1053loPI   C3A16173   6.087  10.160   7.079  0.0468 -0.3218 -0.0607
 1053loPI   C4A16174   5.863  10.110   7.469 -0.0472  0.2114  0.1790
 1053loPI   C5A16175   5.605   9.843   7.659 -0.1845  0.2943 -0.2352
 1053loPI   C6A16176   5.583   9.513   7.942  0.3309  0.2252  0.1234
 1053loPI   C1B16177   6.159  10.684   6.124 -0.3037  0.2946  0.2100
 1053loPI   C2B16178   6.151  10.594   6.553 -0.0182  0.2315  0.0912
 1053loPI   C3B16179   6.076  10.681   7.008  0.3391  0.0327  0.1313
 1053loPI   C4B16180   6.186  10.538   7.435  0.0822  0.3749  0.1051
 1054loPI    C116181   1.624  11.879   4.831 -0.3896  0.0416  0.1163
 1054loPI    C216182   1.692  12.071   4.487 -0.1017 -0.1035  0.0896
 1054loPI    C316183   1.618  11.677   4.486 -0.2370 -0.0791  0.1829
 1054loPI   PO416184   1.830  11.879   5.004  0.1428 -0.2352  0.0307
 1054loPI   GL116185   2.025  11.970   5.439  0.0957 -0.1301 -0.0079
 1054loPI   GL216186   2.109  11.635   5.415 -0.0974  0.0763  0.0158
 1054loPI   C1A16187   2.272  11.969   5.728 -0.3378 -0.0647  0.1223
 1054loPI   C2A16188   2.160  11.977   6.168 -0.1741  0.1337 -0.0247
 1054loPI   C3A16189   2.259  11.887   6.624 -0.0212  0.0640  0.0313
 1054loPI   C4A16190   2.273  11.893   7.056  0.2208  0.0558 -0.0143
 1054loPI   C5A16191   2.102  11.780   7.448 -0.2193  0.3166  0.1407
 1054loPI   C6A16192   1.751  12.003   7.675  0.0982  0.1113  0.2626
 1054loPI   C1B16193   1.987  11.558   5.859  0.1502  0.1952 -0.0393
 1054loPI   C2B16194   2.043  11.527   6.323 -0.0484  0.0795 -0.0538
 1054loPI   C3B16195   2.042  11.376   6.700  0.0701 -0.1027 -0.2677
 1054loPI   C4B16196   1.886  11.065   6.879  0.0937 -0.2336 -0.0244
 1055loPI    C116197  17.701   1.466   5.119  0.0675 -0.0174  0.1611
 1055loPI    C216198  17.345   1.469   5.300 -0.1332  0.1084 -0.2240
 1055loPI    C316199  17.485   1.130   5.142 -0.0087  0.0242  0.0596
 1055loPI   PO416200  17.867   1.610   5.248  0.0206 -0.0612 -0.2329
 1055loPI   GL116201  17.948   1.434   5.623  0.0331  0.0229  0.0339
 1055loPI   GL216202  17.704   1.145   5.569  0.1192 -0.1807  0.1047
 1055loPI   C1A16203  17.907   1.367   5.981 -0.1110  0.4800 -0.0811
 1055loPI   C2A16204  18.120   1.609   6.365  0.1478  0.1491 -0.0293
 1055loPI   C3A16205  18.477   1.773   6.563 -0.1409  0.1868 -0.3907
 1055loPI   C4A16206  18.723   2.025   6.835 -0.2989  0.0883 -0.1097
 1055loPI   C5A16207  18.978   2.276   7.001  0.0324  0.0289 -0.2165
 1055loPI   C6A16208  19.392   2.491   6.943  0.4777  0.0908 -0.0818
 1055loPI   C1B16209  17.451   1.472   5.779 -0.3503 -0.3244 -0.0594
 1055loPI   C2B16210  17.594   1.820   6.021 -0.0982  0.4450  0.2641
 1055loPI   C3B16211  17.587   2.189   6.279  0.1489 -0.1646 -0.3733
 1055loPI   C4B16212  17.881   2.487   6.554 -0.0777  0.0489 -0.1020
 1056loPI    C116213   3.123   5.750   4.718 -0.3267  0.2810 -0.0922
 1056loPI    C216214   2.899   5.441   4.598  0.1197 -0.0466 -0.1057
 1056loPI    C316215   3.190   5.580   4.362  0.0865  0.2223  0.0083
 1056loPI   PO416216   3.161   5.730   4.955  0.1255  0.3200  0.0146
 1056loPI   GL116217   2.923   5.720   5.373  0.0848 -0.0824 -0.2221
 1056loPI   GL216218   2.966   5.951   5.350  0.3464 -0.1908 -0.0810
 1056loPI   C1A16219   2.754   5.481   5.646  0.0210 -0.0882 -0.3257
 1056loPI   C2A16220   2.462   5.572   6.069 -0.0813 -0.0735 -0.1633
 1056loPI   C3A16221   2.457   5.607   6.512  0.1051  0.0500  0.1682
 1056loPI   C4A16222   2.389   5.606   6.880 -0.3921  0.1311  0.3204
 1056loPI   C5A16223   2.482   5.457   7.316 -0.2286  0.0345 -0.0183
 1056loPI   C6A16224   2.428   5.262   7.700 -0.1201 -0.1010 -0.0388
 1056loPI   C1B16225   2.823   6.136   5.794  0.4819  0.0697  0.1064
 1056loPI   C2B16226   2.708   6.034   6.252  0.0450  0.1240  0.1923
 1056loPI   C3B16227   2.611   6.124   6.735  0.0827 -0.2829  0.0072
 1056loPI   C4B16228   2.549   5.963   7.218  0.1316 -0.0669  0.1141
 1057loPI    C116229  18.349   9.109   4.829  0.1859  0.1135 -0.1499
 1057loPI    C216230  18.191   9.375   5.084 -0.0665 -0.3005  0.1385
 1057loPI    C316231  18.152   9.429   4.690 -0.1474  0.0658  0.1928
 1057loPI   PO416232  18.565   9.036   4.928 -0.1610 -0.0034  0.2072
 1057loPI   GL116233  18.568   8.786   5.312  0.0402 -0.1782 -0.1665
 1057loPI   GL216234  18.306   8.974   5.345 -0.0798  0.1541  0.3413
 1057loPI   C1A16235  18.678   8.668   5.743  0.1628  0.0092  0.2272
 1057loPI   C2A16236  18.545   8.835   6.138  0.0942 -0.2317  0.1134
 1057loPI   C3A16237  18.590   8.899   6.629 -0.1042 -0.1096  0.0397
 1057loPI   C4A16238  18.539   9.018   7.051 -0.2123 -0.1255  0.0665
 1057loPI   C5A16239  18.467   9.267   7.397  0.0577 -0.1705  0.1214
 1057loPI   C6A16240  18.137   9.455   7.662  0.0085 -0.1712 -0.1972
 1057loPI   C1B16241  18.208   8.956   5.744  0.0756 -0.1947  0.0745
 1057loPI   C2B16242  17.986   8.950   6.227 -0.1704 -0.1872 -0.1218
 1057loPI   C3B16243  17.606   8.645   6.278 -0.1979  0.2322  0.1138
 1057loPI   C4B16244  17.497   8.383   6.065 -0.0133  0.0147  0.2017
 1058loPI    C116245  17.009  12.517   5.211  0.0211 -0.0221 -0.0245
 1058loPI    C216246  16.820  12.739   4.938  0.1274  0.2149  0.0910
 1058loPI    C316247  16.907  12.356   4.860  0.0676  0.2519 -0.1661
 1058loPI   PO416248  16.893  12.497   5.396  0.3496 -0.1047 -0.3195
 1058loPI   GL116249  16.753  12.120   5.696  0.1953 -0.1965 -0.0808
 1058loPI   GL216250  16.969  11.964   5.660 -0.3648  0.0529 -0.0698
 1058loPI   C1A16251  16.622  12.157   6.096 -0.2540 -0.0012 -0.0219
 1058loPI   C2A16252  16.699  12.289   6.582  0.2594 -0.0844 -0.0382
 1058loPI   C3A16253  16.500  12.462   6.883  0.2930 -0.2019  0.0749
 1058loPI   C4A16254  16.147  12.525   7.215  0.1060  0.0112  0.0330
 1058loPI   C5A16255  15.984  12.670   7.628  0.1615 -0.0043  0.0078
 1058loPI   C6A16256  15.815  13.016   7.732 -0.1567  0.1682  0.0684
 1058loPI   C1B16257  17.063  11.938   6.134 -0.0498 -0.0218 -0.3149
 1058loPI   C2B16258  17.137  11.979   6.625  0.0504  0.1038  0.1072
 1058loPI   C3B16259  16.925  11.885   6.962  0.1490  0.0491 -0.1535
 1058loPI   C4B16260  16.727  11.523   7.173  0.0130 -0.0426 -0.2641
 1059loPI    C116261  13.437   2.445   5.208  0.1270  0.0307 -0.0059
 1059loPI    C216262  13.713   2.655   5.008  0.0814  0.0516 -0.0472
 1059loPI    C316263  13.776   2.268   5.089  0.1257  0.0581 -0.0506
 1059loPI   PO416264  13.411   2.556   5.439  0.1178  0.0012  0.0774
 1059loPI   GL116265  13.380   2.962   5.788 -0.0240  0.0658 -0.0580
 1059loPI   GL216266  13.643   2.954   5.604 -0.2775 -0.0401  0.1099
 1059loPI   C1A16267  13.465   2.887   6.178  0.3718 -0.3041 -0.0250
 1059loPI   C2A16268  13.416   2.911   6.566  0.1443  0.0571 -0.0661
 1059loPI   C3A16269  13.521   2.745   6.936 -0.2268 -0.0279  0.0486
 1059loPI   C4A16270  13.794   2.654   7.278  0.2097  0.0334 -0.1556
 1059loPI   C5A16271  13.787   2.757   7.696  0.3109 -0.2095 -0.0595
 1059loPI   C6A16272  14.135   2.763   7.897  0.0231  0.0220 -0.0144
 1059loPI   C1B16273  13.873   2.694   5.921  0.0090  0.1013  0.0576
 1059loPI   C2B16274  13.808   2.452   6.307  0.1635 -0.0375 -0.0114
 1059loPI   C3B16275  13.504   2.330   6.655 -0.0063 -0.3619  0.2736
 1059loPI   C4B16276  13.382   2.285   7.090  0.3194  0.0463 -0.0531
 1060loPI    C116277  13.500  10.415   4.828  0.3052 -0.0748  0.0369
 1060loPI    C216278  13.523  10.026   4.920  0.0512 -0.1435 -0.1768
 1060loPI    C316279  13.345  10.141   4.581 -0.0208  0.1699 -0.0371
 1060loPI   PO416280  13.339  10.555   5.055 -0.3810 -0.0025 -0.0032
 1060loPI   GL116281  13.326  10.592   5.596  0.0943 -0.0920 -0.2974
 1060loPI   GL216282  13.081  10.421   5.739 -0.3445 -0.3060 -0.0112
 1060loPI   C1A16283  13.592  10.499   5.930  0.0500  0.1186  0.1335
 1060loPI   C2A16284  13.532  10.575   6.433  0.1545 -0.0406 -0.3018
 1060loPI   C3A16285  13.511  10.490   6.913 -0.3176 -0.0016 -0.0618
 1060loPI   C4A16286  13.460  10.532   7.439 -0.2357 -0.0630  0.1835
 1060loPI   C5A16287  13.647  10.659   7.811 -0.0078  0.3043  0.0434
 1060loPI   C6A16288  13.759  10.385   8.123 -0.2695 -0.1901 -0.4486
 1060loPI   C1B16289  13.093  10.590   6.149 -0.0099  0.0559 -0.0796
 1060loPI   C2B16290  13.004  10.652   6.544 -0.1684 -0.0859  0.2676
 1060loPI   C3B16291  12.928  10.635   6.965 -0.0533 -0.1375  0.1883
 1060loPI   C4B16292  12.981  10.640   7.341  0.0967 -0.1137  0.4762
 1061loPI    C116293   8.961   8.403   4.922  0.0801  0.0770 -0.1757
 1061loPI    C216294   9.310   8.585   4.996  0.1376 -0.0833 -0.0470
 1061loPI    C316295   9.184   8.541   4.619  0.2480 -0.0096 -0.0931
 1061loPI   PO416296   8.775   8.434   5.222  0.2151  0.0533 -0.0690
 1061loPI   GL116297   8.616   8.396   5.570 -0.1999 -0.1891  0.0818
 1061loPI   GL216298   8.931   8.350   5.719 -0.1673  0.0250  0.2665
 1061loPI   C1A16299   8.634   8.019   5.917  0.2063  0.0761  0.0550
 1061loPI   C2A16300   8.639   7.891   6.331 -0.0179 -0.1049 -0.2635
 1061loPI   C3A16301   8.605   7.876   6.809 -0.2307 -0.3992  0.1010
 1061loPI   C4A16302   8.932   8.020   7.207  0.2278 -0.1175  0.1319
 1061loPI   C5A16303   9.351   8.084   7.519  0.0703 -0.1721  0.1002
 1061loPI   C6A16304   9.388   8.278   7.887 -0.0613 -0.1156  0.1719
 1061loPI   C1B16305   9.192   8.494   6.048  0.2178 -0.1416  0.0899
 1061loPI   C2B16306   9.119   8.519   6.461  0.0819  0.2735  0.0469
 1061loPI   C3B16307   8.931   8.638   6.906  0.2967  0.1331  0.0575
 1061loPI   C4B16308   8.880   8.560   7.376  0.2047  0.0223 -0.0238
 1062loPI    C116309  13.990   8.663   5.209 -0.1109  0.4681  0.1101
 1062loPI    C216310  13.763   8.707   4.883 -0.2088  0.1385  0.1307
 1062loPI    C316311  14.159   8.762   4.860 -0.2218  0.1700 -0.0310
 1062loPI   PO416312  13.713   8.732   5.488  0.1040  0.0543 -0.3903
 1062loPI   GL116313  13.348   8.472   5.666  0.0147 -0.0557  0.1126
 1062loPI   GL216314  13.233   8.785   5.670  0.1400 -0.0038 -0.2333
 1062loPI   C1A16315  13.443   8.646   6.120  0.1049 -0.0407 -0.2032
 1062loPI   C2A16316  13.482   8.723   6.555  0.1297 -0.0208 -0.1927
 1062loPI   C3A16317  13.598   8.585   6.958 -0.1649  0.0549  0.2444
 1062loPI   C4A16318  13.504   8.295   7.313  0.1316  0.1114 -0.2527
 1062loPI   C5A16319  13.580   8.064   7.621 -0.0687 -0.1328  0.2797
 1062loPI   C6A16320  13.657   8.068   8.025 -0.3780 -0.0470  0.1516
 1062loPI   C1B16321  13.079   9.022   5.936  0.0021  0.1350 -0.0830
 1062loPI   C2B16322  12.989   9.302   6.362 -0.0907  0.0279  0.2795
 1062loPI   C3B16323  12.778   9.295   6.684 -0.2260 -0.0670 -0.1762
 1062loPI   C4B16324  12.810   9.227   7.121  0.2350  0.1913  0.0914
 1063loPI    C116325   5.195   9.433   5.031 -0.1376  0.1808 -0.0562
 1063loPI    C216326   4.987   9.178   4.804 -0.2423  0.2186 -0.0039
 1063loPI    C316327   5.366   9.266   4.711 -0.2108  0.0572 -0.0318
 1063loPI   PO416328   5.186   9.425   5.216  0.0423  0.2196 -0.0796
 1063loPI   GL116329   5.239   9.345   5.617  0.3085  0.1466  0.0251
 1063loPI   GL216330   5.407   9.169   5.713  0.0444  0.1645 -0.2649
 1063loPI   C1A16331   4.920   9.324   6.022 -0.1696  0.1495 -0.2493
 1063loPI   C2A16332   5.069   9.139   6.442 -0.0333  0.3953 -0.0949
 1063loPI   C3A16333   5.185   9.110   6.886 -0.3327 -0.0760  0.1983
 1063loPI   C4A16334   5.333   9.024   7.264 -0.0353  0.0802  0.2577
 1063loPI   C5A16335   5.656   9.020   7.705  0.1361 -0.0087  0.0971
 1063loPI   C6A16336   6.009   8.835   7.961 -0.0163 -0.1071 -0.2823
 1063loPI   C1B16337   5.425   9.363   6.066 -0.3975 -0.0048 -0.0973
 1063loPI   C2B16338   5.544   9.196   6.515 -0.1895 -0.3456 -0.0600
 1063loPI   C3B16339   5.874   8.922   6.656 -0.0604 -0.1176  0.2279
 1063loPI   C4B16340   6.072   8.509   6.944  0.2356  0.1424  0.0246
 1064loPI    C116341   1.984   1.535   4.739  0.1937  0.0061  0.1279
 1064loPI    C216342   2.234   1.362   4.479 -0.0592 -0.0316 -0.0945
 1064loPI    C316343   2.127   1.745   4.430 -0.0496 -0.0168 -0.0025
 1064loPI   PO416344   2.116   1.515   4.950 -0.0544 -0.1010 -0.0250
 1064loPI   GL116345   2.070   1.334   5.385 -0.0998 -0.1065  0.2067
 1064loPI   GL216346   2.363   1.432   5.601  0.1603 -0.0993 -0.2492
 1064loPI   C1A16347   1.775   1.403   5.743 -0.0339 -0.0962  0.3257
 1064loPI   C2A16348   1.826   1.112   6.101  0.0607  0.1584  0.2610
 1064loPI   C3A16349   1.792   0.961   6.550 -0.0222 -0.0711  0.0266
 1064loPI   C4A16350   1.793   0.819   6.972 -0.2650  0.1503  0.0315
 1064loPI   C5A16351   1.843   0.429   7.249 -0.0919 -0.0041  0.1046
 1064loPI   C6A16352   2.171   0.054   7.390  0.3129 -0.4401 -0.6346
 1064loPI   C1B16353   2.252   1.239   5.935 -0.1787  0.1719  0.1745
 1064loPI   C2B16354   2.268   1.058   6.305 -0.0895 -0.0293  0.3482
 1064loPI   C3B16355   2.193   1.122   6.799  0.1347 -0.1276  0.0472
 1064loPI   C4B16356   2.165   1.275   7.276  0.2159  0.1212  0.2487
 1065loPI    C116357   4.833   6.513   5.108 -0.0512 -0.0734  0.1273
 1065loPI    C216358   5.013   6.828   4.940 -0.0830 -0.0176  0.1968
 1065loPI    C316359   4.644   6.725   4.827 -0.0552 -0.0577  0.1418
 1065loPI   PO416360   4.788   6.590   5.368 -0.1770 -0.0619 -0.1443
 1065loPI   GL116361   4.555   6.641   5.737  0.1974  0.3610 -0.0311
 1065loPI   GL216362   4.833   6.842   5.792  0.2169 -0.1525  0.2018
 1065loPI   C1A16363   4.721   6.322   5.933  0.2995 -0.2528  0.1160
 1065loPI   C2A16364   5.042   6.407   6.202  0.3332  0.1392  0.0407
 1065loPI   C3A16365   5.147   6.682   6.593  0.0423  0.1454 -0.2009
 1065loPI   C4A16366   5.034   6.601   7.035  0.4304  0.0783  0.0211
 1065loPI   C5A16367   4.889   6.570   7.446 -0.4663  0.1115 -0.3795
 1065loPI   C6A16368   4.827   6.464   7.853 -0.0351  0.2280 -0.0655
 1065loPI   C1B16369   4.623   6.769   6.186  0.0458  0.0776 -0.3873
 1065loPI   C2B16370   4.655   6.823   6.711  0.1617 -0.0416  0.0796
 1065loPI   C3B16371   4.418   6.653   7.062  0.4147 -0.1960 -0.1049
 1065loPI   C4B16372   4.374   6.647   7.571  0.2011  0.1035  0.0502
 1066loPI    C116373   5.456   7.510   5.406  0.1094  0.0492  0.1045
 1066loPI    C216374   5.363   7.217   5.151  0.1459  0.2329 -0.1232
 1066loPI    C316375   5.610   7.145   5.457 -0.1070 -0.0559  0.0187
 1066loPI   PO416376   5.255   7.621   5.427 -0.1621 -0.1886  0.0535
 1066loPI   GL116377   5.141   7.923   5.707 -0.0567  0.1422 -0.0810
 1066loPI   GL216378   4.986   8.199   5.671  0.1211  0.4344 -0.2161
 1066loPI   C1A16379   5.080   7.824   6.159 -0.2495  0.2485 -0.2588
 1066loPI   C2A16380   5.066   7.646   6.538 -0.1006  0.2676  0.0947
 1066loPI   C3A16381   5.044   7.566   7.012  0.0758 -0.0026 -0.0565
 1066loPI   C4A16382   4.883   7.799   7.388 -0.1596  0.1032 -0.0755
 1066loPI   C5A16383   4.569   8.119   7.812  0.1696 -0.1138 -0.3761
 1066loPI   C6A16384   4.332   8.345   8.040 -0.1185 -0.1467 -0.0831
 1066loPI   C1B16385   4.775   8.273   5.966 -0.3406  0.1607 -0.2063
 1066loPI   C2B16386   4.736   8.126   6.414  0.0210 -0.0809 -0.1700
 1066loPI   C3B16387   4.726   8.131   6.877  0.1330  0.0598 -0.2374
 1066loPI   C4B16388   4.459   8.158   7.309  0.0479 -0.0824  0.1662
 1067loPI    C116389   2.681   5.865   4.889  0.1149 -0.0856  0.1434
 1067loPI    C216390   2.550   5.811   4.515 -0.0758  0.2239  0.1616
 1067loPI    C316391   2.694   6.167   4.627  0.2456  0.0531  0.3067
 1067loPI   PO416392   2.445   5.721   5.058  0.0678  0.0527  0.1013
 1067loPI   GL116393   2.325   5.577   5.448  0.0408 -0.0027 -0.0003
 1067loPI   GL216394   2.441   5.896   5.549 -0.0825  0.0311  0.2489
 1067loPI   C1A16395   2.092   5.434   5.773 -0.1264  0.2725  0.0567
 1067loPI   C2A16396   2.071   5.298   6.173 -0.0199  0.3422  0.1006
 1067loPI   C3A16397   2.251   5.206   6.464 -0.0811 -0.1204 -0.2207
 1067loPI   C4A16398   2.258   5.073   6.873 -0.1830 -0.1826  0.1030
 1067loPI   C5A16399   2.581   4.946   7.227  0.2019 -0.0243  0.2556
 1067loPI   C6A16400   2.950   4.813   7.466  0.1807  0.3079  0.1329
 1067loPI   C1B16401   2.347   6.072   5.872 -0.0686 -0.3826 -0.0308
 1067loPI   C2B16402   2.261   6.097   6.360  0.3984  0.5678  0.2524
 1067loPI   C3B16403   2.120   5.989   6.750  0.2063  0.0443  0.2145
 1067loPI   C4B16404   2.030   6.059   7.190  0.1844 -0.0771 -0.1500
 1068loPI    C116405  17.952  15.547   4.942  0.3438  0.0490  0.1893
 1068loPI    C216406  18.148  15.586   4.596 -0.0050 -0.0231 -0.0220
 1068loPI    C316407  18.008  15.228   4.707  0.1523 -0.0110  0.2226
 1068loPI   PO416408  18.097  15.687   5.168 -0.0470 -0.2338 -0.0923
 1068loPI   GL116409  18.461  15.888   5.325 -0.0391 -0.2062 -0.1206
 1068loPI   GL216410  18.621  15.930   5.501 -0.1616 -0.0891  0.0140
 1068loPI   C1A16411  18.276  16.286   5.549 -0.0159  0.0087  0.0989
 1068loPI   C2A16412  18.343  16.289   6.013 -0.1381 -0.0267  0.0941
 1068loPI   C3A16413  18.324  16.287   6.469 -0.0519  0.4425  0.0471
 1068loPI   C4A16414  18.264  16.208   6.860  0.0764 -0.1100  0.0728
 1068loPI   C5A16415  18.349  16.252   7.341  0.0776 -0.0793  0.0503
 1068loPI   C6A16416  18.506  16.306   7.696  0.1058 -0.0752 -0.0573
 1068loPI   C1B16417  18.502  15.790   5.953  0.0899  0.1976 -0.2166
 1068loPI   C2B16418  18.521  15.822   6.413 -0.0993  0.0580  0.2552
 1068loPI   C3B16419  18.442  15.757   6.766  0.1957 -0.2131  0.0668
 1068loPI   C4B16420  18.338  15.727   7.143 -0.2278 -0.2558  0.1753
 1069loPI    C116421  14.432   4.460   5.049 -0.1187  0.0682 -0.2349
 1069loPI    C216422  14.623   4.811   5.075 -0.1707  0.0791  0.0227
 1069loPI    C316423  14.321   4.766   4.816 -0.1307  0.2084 -0.0470
 1069loPI   PO416424  14.321   4.349   5.329 -0.1741  0.2012  0.0582
 1069loPI   GL116425  14.342   4.065   5.689  0.1016  0.1767 -0.0887
 1069loPI   GL216426  14.169   3.817   5.789  0.0110  0.1742  0.4839
 1069loPI   C1A16427  14.269   4.100   6.161 -0.1936 -0.6868 -0.2668
 1069loPI   C2A16428  14.175   4.012   6.570 -0.0223 -0.1263 -0.0279
 1069loPI   C3A16429  14.129   4.074   6.996  0.0454  0.1225 -0.1453
 1069loPI   C4A16430  14.138   4.003   7.449 -0.1228 -0.3813 -0.2707
 1069loPI   C5A16431  14.110   3.611   7.708 -0.3220 -0.2793 -0.0616
 1069loPI   C6A16432  13.780   3.290   7.850  0.1487  0.2147  0.2296
 1069loPI   C1B16433  13.996   3.634   6.271  0.0220 -0.1127  0.2607
 1069loPI   C2B16434  14.068   3.473   6.614  0.2682  0.1583  0.1293
 1069loPI   C3B16435  14.079   3.160   7.033 -0.3576  0.0867  0.1608
 1069loPI   C4B16436  14.138   3.125   7.479  0.3579  0.1572  0.0259
 1070loPI    C116437  14.785  12.030   5.165  0.3743 -0.3289  0.1304
 1070loPI    C216438  14.556  12.008   4.838  0.0221 -0.1375  0.3576
 1070loPI    C316439  14.941  12.111   4.806 -0.1112  0.2949  0.0418
 1070loPI   PO416440  14.840  11.832   5.358  0.1227  0.0675  0.4026
 1070loPI   GL116441  15.077  11.567   5.547 -0.1677  0.6007  0.2969
 1070loPI   GL216442  15.075  11.207   5.568 -0.1289 -0.2164  0.1604
 1070loPI   C1A16443  15.268  11.598   5.943  0.2913  0.3839  0.2357
 1070loPI   C2A16444  15.016  11.518   6.324  0.0290 -0.0224 -0.2115
 1070loPI   C3A16445  14.730  11.787   6.558 -0.0803  0.1480  0.1361
 1070loPI   C4A16446  14.619  11.765   6.949  0.1796  0.2268 -0.0650
 1070loPI   C5A16447  14.520  11.899   7.342  0.0383  0.0178  0.1258
 1070loPI   C6A16448  14.554  12.090   7.778 -0.2886 -0.0232  0.0728
 1070loPI   C1B16449  14.750  11.419   5.897 -0.1805  0.0359  0.0092
 1070loPI   C2B16450  14.500  11.580   6.184  0.1383 -0.0282 -0.0038
 1070loPI   C3B16451  14.359  11.385   6.470 -0.0445 -0.0728 -0.0218
 1070loPI   C4B16452  14.158  11.248   6.860  0.1233  0.3692 -0.0746
 1071loPI    C116453   4.449  14.313   5.139 -0.2075 -0.1569  0.0404
 1071loPI    C216454   4.156  14.335   4.866  0.1272  0.1545 -0.3062
 1071loPI    C316455   4.495  14.140   4.781  0.2361  0.2560 -0.1132
 1071loPI   PO416456   4.453  14.598   5.187 -0.1922  0.1840  0.1279
 1071loPI   GL116457   4.403  14.769   5.413  0.0402 -0.0517  0.0562
 1071loPI   GL216458   4.620  14.959   5.582 -0.2316 -0.0309 -0.3400
 1071loPI   C1A16459   4.326  14.556   5.875 -0.0052 -0.1974  0.2771
 1071loPI   C2A16460   4.178  14.485   6.330  0.0752 -0.0486  0.0038
 1071loPI   C3A16461   4.292  14.450   6.800 -0.2130  0.1008  0.1930
 1071loPI   C4A16462   4.189  14.561   7.185 -0.2089  0.0464 -0.1099
 1071loPI   C5A16463   3.982  14.871   7.421 -0.1436  0.0143  0.2394
 1071loPI   C6A16464   3.651  15.033   7.776 -0.1189 -0.1394  0.1225
 1071loPI   C1B16465   4.610  14.989   6.035  0.2472 -0.2526  0.1273
 1071loPI   C2B16466   4.609  14.900   6.276  0.0122  0.1368  0.2429
 1071loPI   C3B16467   4.719  14.713   6.654 -0.1517 -0.2356 -0.0699
 1071loPI   C4B16468   4.744  14.589   7.000  0.4798 -0.0957  0.1587
 1072loPI    C116469   2.315   8.029   4.904  0.0277  0.0938 -0.1162
 1072loPI    C216470   1.986   7.803   4.929 -0.0328  0.2005  0.0729
 1072loPI    C316471   2.194   7.817   4.588 -0.3115  0.2531 -0.0974
 1072loPI   PO416472   2.499   7.922   5.103  0.1230 -0.1572  0.2504
 1072loPI   GL116473   2.714   8.118   5.427  0.4318  0.2068 -0.1239
 1072loPI   GL216474   2.499   7.937   5.649 -0.0722  0.3370 -0.0426
 1072loPI   C1A16475   2.855   8.369   5.854  0.0755 -0.0669 -0.0459
 1072loPI   C2A16476   2.790   8.401   6.287 -0.0998 -0.1749 -0.1478
 1072loPI   C3A16477   2.823   8.287   6.744  0.2728  0.2475 -0.0567
 1072loPI   C4A16478   2.796   8.473   7.176 -0.0641 -0.3244 -0.0429
 1072loPI   C5A16479   3.064   8.579   7.526 -0.0307 -0.0806  0.2358
 1072loPI   C6A16480   3.444   8.898   7.470 -0.3159  0.0717  0.4270
 1072loPI   C1B16481   2.503   8.013   6.073 -0.2444 -0.1735  0.1464
 1072loPI   C2B16482   2.593   7.919   6.510  0.0354 -0.0052  0.2397
 1072loPI   C3B16483   2.542   7.882   6.978  0.2112 -0.0614 -0.0861
 1072loPI   C4B16484   2.607   7.999   7.374 -0.1620  0.0409  0.0226
 1073loPI    C116485  13.413   7.743   5.197  0.1817  0.2483 -0.2530
 1073loPI    C216486  13.237   8.001   4.946 -0.2330  0.0642 -0.1601
 1073loPI    C316487  13.156   7.610   4.920 -0.0822  0.0138  0.0961
 1073loPI   PO416488  13.435   7.899   5.381  0.0766 -0.1507 -0.0336
 1073loPI   GL116489  13.641   8.023   5.788 -0.3075  0.2168 -0.2091
 1073loPI   GL216490  13.550   8.173   6.039 -0.1211  0.1862 -0.3878
 1073loPI   C1A16491  13.860   7.784   6.089  0.1571 -0.0839  0.1463
 1073loPI   C2A16492  13.812   7.759   6.514  0.4390 -0.0819  0.0686
 1073loPI   C3A16493  13.626   7.594   6.898  0.2622 -0.1230 -0.1848
 1073loPI   C4A16494  13.379   7.709   7.222  0.1080  0.1214  0.0589
 1073loPI   C5A16495  13.247   7.668   7.673  0.2718 -0.0964  0.1082
 1073loPI   C6A16496  13.064   7.594   7.946  0.0796 -0.2997 -0.1810
 1073loPI   C1B16497  13.655   8.282   6.382 -0.1335 -0.0991 -0.0614
 1073loPI   C2B16498  13.830   8.164   6.729  0.0559 -0.0221 -0.1041
 1073loPI   C3B16499  13.962   8.053   7.064 -0.1427 -0.2168  0.0179
 1073loPI   C4B16500  14.135   8.027   7.446 -0.1607  0.0286  0.0992
 1074loPI    C116501   5.818  11.043   5.013 -0.1739  0.2092  0.0243
 1074loPI    C216502   5.579  10.825   5.248 -0.0337 -0.0976 -0.1117
 1074loPI    C316503   5.531  10.815   4.851  0.0498  0.0291 -0.1254
 1074loPI   PO416504   5.840  11.268   5.145 -0.1385 -0.6057  0.0176
 1074loPI   GL116505   5.882  11.503   5.476  0.3436 -0.0859 -0.2508
 1074loPI   GL216506   5.718  11.135   5.635 -0.1470  0.0497  0.0757
 1074loPI   C1A16507   6.027  11.513   5.886  0.2604 -0.1528  0.0300
 1074loPI   C2A16508   5.995  11.495   6.319 -0.4007  0.0813 -0.0253
 1074loPI   C3A16509   6.072  11.600   6.811  0.0976 -0.1607 -0.0395
 1074loPI   C4A16510   6.074  11.271   7.158  0.0636  0.1146  0.1928
 1074loPI   C5A16511   5.978  10.958   7.402 -0.3619 -0.3802 -0.1782
 1074loPI   C6A16512   6.033  10.734   7.825  0.0791 -0.3046 -0.1256
 1074loPI   C1B16513   5.853  11.023   6.119  0.1912 -0.0495  0.2868
 1074loPI   C2B16514   5.803  11.066   6.525 -0.3603  0.0578 -0.3293
 1074loPI   C3B16515   5.696  11.011   6.913 -0.3093 -0.2750 -0.1851
 1074loPI   C4B16516   5.446  11.077   7.279  0.1013  0.0258  0.0131
 1075loPI    C116517   2.541   8.468   4.820 -0.0611  0.0651 -0.0052
 1075loPI    C216518   2.662   8.828   4.694  0.2225  0.0200  0.1305
 1075loPI    C316519   2.711   8.507   4.460 -0.2093  0.0947 -0.0728
 1075loPI   PO416520   2.614   8.448   5.039 -0.0660  0.3587 -0.0673
 1075loPI   GL116521   2.414   8.510   5.401 -0.2650  0.3290  0.3086
 1075loPI   GL216522   2.665   8.733   5.529 -0.0793 -0.1287  0.0411
 1075loPI   C1A16523   2.344   8.429   5.775 -0.3331 -0.1512  0.1281
 1075loPI   C2A16524   2.263   8.479   6.217 -0.1107 -0.1721 -0.1438
 1075loPI   C3A16525   2.359   8.390   6.652  0.0929  0.2127 -0.2990
 1075loPI   C4A16526   2.261   8.329   7.050  0.0152 -0.2164  0.0918
 1075loPI   C5A16527   2.217   8.339   7.440  0.0150  0.1438 -0.1593
 1075loPI   C6A16528   2.145   8.161   7.803  0.0751  0.0656  0.0947
 1075loPI   C1B16529   2.642   8.839   5.967  0.1391  0.3515 -0.1866
 1075loPI   C2B16530   2.496   8.891   6.432  0.1147 -0.2476 -0.0474
 1075loPI   C3B16531   2.428   8.792   6.956  0.0543 -0.0846  0.0784
 1075loPI   C4B16532   2.315   8.850   7.438  0.3075 -0.0485 -0.0598
 1076loPI    C116533  11.177   2.253   5.129  0.1788 -0.0218  0.0911
 1076loPI    C216534  11.088   2.544   4.869  0.0338 -0.1276  0.0213
 1076loPI    C316535  11.379   2.283   4.785  0.2366  0.0600  0.1318
 1076loPI   PO416536  11.090   2.412   5.398 -0.2962  0.1646  0.0020
 1076loPI   GL116537  10.979   2.534   5.869  0.0484  0.4001  0.1160
 1076loPI   GL216538  11.308   2.617   5.855  0.2762  0.1809 -0.1862
 1076loPI   C1A16539  10.892   2.533   6.362  0.2393  0.0163 -0.1935
 1076loPI   C2A16540  10.692   2.312   6.756 -0.1107  0.1794  0.2235
 1076loPI   C3A16541  10.694   2.358   7.181  0.0624 -0.2596  0.1627
 1076loPI   C4A16542  10.595   2.297   7.638  0.2363 -0.1017 -0.3482
 1076loPI   C5A16543  10.874   2.263   7.960 -0.3495 -0.1695 -0.0630
 1076loPI   C6A16544  11.263   2.213   8.082  0.0613 -0.2369  0.1934
 1076loPI   C1B16545  11.418   2.837   6.306  0.2655 -0.0525 -0.2006
 1076loPI   C2B16546  11.228   3.106   6.622  0.1938 -0.1061  0.0631
 1076loPI   C3B16547  11.218   3.395   6.972 -0.0592  0.1013 -0.1565
 1076loPI   C4B16548  11.097   3.541   7.370  0.2592  0.0697  0.1010
 1077loPI    C116549  12.849  12.813   5.389 -0.1988 -0.1851  0.0225
 1077loPI    C216550  13.188  12.623   5.294 -0.1018 -0.0411  0.0762
 1077loPI    C316551  12.836  12.484   5.161 -0.0221 -0.1889  0.0169
 1077loPI   PO416552  12.876  12.830   5.602  0.1619 -0.1066  0.1097
 1077loPI   GL116553  13.089  12.560   5.910 -0.0315 -0.2414 -0.1299
 1077loPI   GL216554  13.471  12.483   5.790  0.1008 -0.1231 -0.1486
 1077loPI   C1A16555  13.284  12.142   6.109 -0.2024 -0.3194 -0.1712
 1077loPI   C2A16556  13.151  11.927   6.390 -0.2326 -0.1029 -0.2035
 1077loPI   C3A16557  12.934  11.898   6.771  0.0118  0.0471 -0.0063
 1077loPI   C4A16558  12.955  11.996   7.157  0.0663 -0.1080  0.0734
 1077loPI   C5A16559  12.922  12.012   7.614  0.4532 -0.2353 -0.2980
 1077loPI   C6A16560  12.739  11.851   7.949 -0.2557  0.1357 -0.0820
 1077loPI   C1B16561  13.429  12.687   6.198  0.0103 -0.1421 -0.1598
 1077loPI   C2B16562  13.280  12.532   6.596  0.0742  0.0240 -0.0587
 1077loPI   C3B16563  13.169  12.418   7.025 -0.0447 -0.1129 -0.3003
 1077loPI   C4B16564  13.343  12.391   7.371 -0.1397 -0.1191 -0.1135
 1078loPI    C116565   3.866  13.408   4.944 -0.0644 -0.0439 -0.0631
 1078loPI    C216566   4.042  13.056   5.020 -0.0619 -0.0585 -0.1362
 1078loPI    C316567   4.207  13.311   4.759  0.1211  0.1454  0.1733
 1078loPI   PO416568   3.752  13.521   5.174 -0.1235 -0.2908 -0.0591
 1078loPI   GL116569   3.863  13.456   5.660 -0.0464  0.0209 -0.2415
 1078loPI   GL216570   3.692  13.883   5.576  0.0175 -0.0525  0.4496
 1078loPI   C1A16571   3.949  13.547   6.096 -0.0845 -0.1114  0.2870
 1078loPI   C2A16572   3.826  13.509   6.569  0.0134 -0.3150  0.1932
 1078loPI   C3A16573   3.680  13.653   6.943 -0.0918  0.2451  0.1316
 1078loPI   C4A16574   3.500  13.871   7.335  0.0315  0.1777 -0.2943
 1078loPI   C5A16575   3.322  13.754   7.817  0.1086  0.2388 -0.1765
 1078loPI   C6A16576   3.237  13.755   8.318 -0.0327 -0.1346  0.3171
 1078loPI   C1B16577   3.613  13.900   6.011  0.1287 -0.2983 -0.0826
 1078loPI   C2B16578   3.547  13.939   6.405  0.0341  0.2307  0.2084
 1078loPI   C3B16579   3.819  14.309   6.625  0.2327  0.0366 -0.0578
 1078loPI   C4B16580   3.802  14.625   6.830 -0.0516 -0.0137  0.0729
 1079loPI    C116581   8.156   5.539   5.168  0.2266  0.4347 -0.0922
 1079loPI    C216582   8.174   5.317   4.835  0.0627 -0.0647  0.2218
 1079loPI    C316583   8.511   5.438   5.013  0.1527  0.0147  0.0007
 1079loPI   PO416584   8.019   5.489   5.349 -0.1598 -0.0407  0.0265
 1079loPI   GL116585   8.115   5.213   5.722 -0.0378 -0.1838  0.0851
 1079loPI   GL216586   7.847   5.117   5.645 -0.0488 -0.0080  0.2586
 1079loPI   C1A16587   8.330   5.449   6.066 -0.0599 -0.0425  0.1346
 1079loPI   C2A16588   8.379   5.485   6.510 -0.0472 -0.2925  0.1019
 1079loPI   C3A16589   8.534   5.468   7.034  0.3976 -0.0619  0.1230
 1079loPI   C4A16590   8.796   5.250   7.321 -0.1536  0.1210  0.3250
 1079loPI   C5A16591   8.700   4.999   7.598  0.1201  0.3656  0.2502
 1079loPI   C6A16592   8.506   4.859   7.947 -0.0430  0.2469 -0.0412
 1079loPI   C1B16593   7.663   5.107   6.051  0.0918 -0.2302  0.1269
 1079loPI   C2B16594   7.570   5.209   6.447 -0.0180 -0.0288 -0.0228
 1079loPI   C3B16595   7.284   5.323   6.844  0.2497 -0.0526 -0.3677
 1079loPI   C4B16596   7.195   5.315   7.197  0.1606  0.0339 -0.0753
 1080loPI    C116597   3.087  13.050   4.919 -0.1094 -0.0062  0.0075
 1080loPI    C216598   3.238  13.059   4.548 -0.2086 -0.0149 -0.0335
 1080loPI    C316599   3.410  13.273   4.840 -0.1313 -0.0067 -0.0847
 1080loPI   PO416600   3.098  12.817   4.996  0.1707 -0.2709 -0.0462
 1080loPI   GL116601   3.377  12.563   5.323  0.0305  0.0608 -0.2952
 1080loPI   GL216602   3.704  12.497   5.245 -0.1210 -0.0620 -0.2873
 1080loPI   C1A16603   3.525  12.575   5.697  0.2466  0.1087 -0.0172
 1080loPI   C2A16604   3.539  12.636   6.151  0.1081  0.0449 -0.2388
 1080loPI   C3A16605   3.454  12.627   6.506  0.0457  0.1532  0.1879
 1080loPI   C4A16606   3.533  12.687   6.946 -0.0661  0.1328 -0.0071
 1080loPI   C5A16607   3.598  12.726   7.406 -0.1469 -0.1284  0.0487
 1080loPI   C6A16608   3.433  13.067   7.675 -0.1812 -0.0527  0.4639
 1080loPI   C1B16609   3.989  12.586   5.672  0.1950  0.1825 -0.1308
 1080loPI   C2B16610   4.075  12.701   6.141  0.1068  0.1140  0.1775
 1080loPI   C3B16611   3.967  12.686   6.482  0.1269  0.2686 -0.1271
 1080loPI   C4B16612   3.998  12.762   7.008 -0.1490  0.1768 -0.0936
 1081loPI    C116613   6.321   1.715   4.796 -0.0853  0.0342 -0.0065
 1081loPI    C216614   5.973   1.817   4.627 -0.0841 -0.2132 -0.1620
 1081loPI    C316615   6.290   1.733   4.398  0.1061  0.0973 -0.0196
 1081loPI   PO416616   6.359   1.829   5.012  0.1211  0.1069 -0.0305
 1081loPI   GL116617   6.345   1.972   5.392  0.2080 -0.1102  0.1176
 1081loPI   GL216618   6.404   1.709   5.633 -0.0626  0.0317 -0.0741
 1081loPI   C1A16619   6.338   2.207   5.759  0.3824  0.2705  0.0869
 1081loPI   C2A16620   6.284   2.186   6.164  0.0456 -0.1315  0.4268
 1081loPI   C3A16621   6.251   2.221   6.620  0.1210  0.1592 -0.2784
 1081loPI   C4A16622   6.298   2.249   6.992  0.0037 -0.2073  0.1309
 1081loPI   C5A16623   6.310   2.295   7.329 -0.1008 -0.0240  0.0752
 1081loPI   C6A16624   6.337   2.605   7.629  0.0446  0.1412 -0.1107
 1081loPI   C1B16625   6.460   1.733   6.017 -0.1996 -0.0323  0.3169
 1081loPI   C2B16626   6.460   1.754   6.472  0.0426 -0.3073  0.0365
 1081loPI   C3B16627   6.346   1.784   6.812  0.0371 -0.2012 -0.2502
 1081loPI   C4B16628   6.313   1.830   7.287 -0.1241 -0.0756 -0.2565
 1082loPI    C116629   0.773  11.685   4.727 -0.1105 -0.1448  0.2116
 1082loPI    C216630   0.444  11.659   4.502 -0.0084 -0.0127  0.0448
 1082loPI    C316631   0.673  11.336   4.560  0.1308  0.0209 -0.2972
 1082loPI   PO416632   0.665  11.827   4.952 -0.0763 -0.0670  0.1340
 1082loPI   GL116633   0.643  11.882   5.335 -0.1818  0.0976  0.2777
 1082loPI   GL216634   0.923  11.680   5.347 -0.1036  0.0880 -0.2483
 1082loPI   C1A16635   0.687  11.978   5.792 -0.2814 -0.3019 -0.0320
 1082loPI   C2A16636   0.760  12.134   6.251 -0.1012 -0.0980 -0.2613
 1082loPI   C3A16637   0.937  12.137   6.659  0.4247  0.0790  0.1322
 1082loPI   C4A16638   0.942  12.147   7.077  0.0362 -0.3037 -0.1432
 1082loPI   C5A16639   0.917  12.470   7.415 -0.0536  0.0026  0.1479
 1082loPI   C6A16640   1.197  12.624   7.753  0.1872  0.1722  0.1981
 1082loPI   C1B16641   1.117  11.720   5.762 -0.1244  0.2175 -0.0216
 1082loPI   C2B16642   0.980  11.689   6.152  0.0412 -0.0584  0.1734
 1082loPI   C3B16643   1.176  11.734   6.443 -0.3158 -0.1322  0.0713
 1082loPI   C4B16644   1.303  11.794   6.867  0.0721 -0.0189  0.0900
 1083loPI    C116645   1.196   9.145   4.946  0.1272 -0.0684 -0.0047
 1083loPI    C216646   1.418   9.164   4.614 -0.0120 -0.1832 -0.1053
 1083loPI    C316647   1.021   9.115   4.587 -0.0980  0.3555  0.0630
 1083loPI   PO416648   1.316   8.994   5.159 -0.1896  0.0147 -0.2238
 1083loPI   GL116649   1.438   9.198   5.545 -0.1360 -0.1964  0.1536
 1083loPI   GL216650   1.666   9.266   5.486 -0.1398  0.1978 -0.0380
 1083loPI   C1A16651   1.589   9.242   5.979  0.2282  0.1163 -0.1531
 1083loPI   C2A16652   1.632   9.177   6.361  0.0903  0.1807 -0.1241
 1083loPI   C3A16653   1.684   9.181   6.823  0.0178 -0.1580 -0.0128
 1083loPI   C4A16654   1.867   9.113   7.256 -0.2145  0.0202 -0.0028
 1083loPI   C5A16655   1.769   9.165   7.606  0.0731 -0.3225 -0.3571
 1083loPI   C6A16656   1.663   9.066   7.999 -0.0587 -0.1610 -0.3187
 1083loPI   C1B16657   2.077   9.316   5.814  0.1931  0.1462  0.0439
 1083loPI   C2B16658   2.115   9.317   6.281 -0.1773  0.3563  0.1114
 1083loPI   C3B16659   2.194   9.269   6.770 -0.2357  0.0188 -0.1661
 1083loPI   C4B16660   2.337   9.300   7.159 -0.4752  0.1798  0.0948
 1084loPI    C116661  16.836   3.370   5.024  0.2210 -0.4001 -0.1564
 1084loPI    C216662  16.848   3.543   4.663 -0.1759 -0.0110  0.0088
 1084loPI    C316663  17.151   3.593   4.919 -0.0362 -0.0255 -0.1526
 1084loPI   PO416664  16.808   3.166   5.014  0.1176  0.0774  0.2338
 1084loPI   GL116665  16.973   2.914   5.328 -0.2180  0.2151  0.1254
 1084loPI   GL216666  17.160   2.799   5.602  0.2106 -0.0530  0.1697
 1084loPI   C1A16667  16.960   3.244   5.674 -0.0948 -0.0677  0.1786
 1084loPI   C2A16668  16.934   3.307   6.137 -0.1032 -0.4221 -0.2148
 1084loPI   C3A16669  16.914   3.295   6.663 -0.0440 -0.0594 -0.0696
 1084loPI   C4A16670  16.746   3.446   7.097  0.1114  0.0664  0.2629
 1084loPI   C5A16671  16.491   3.340   7.406 -0.1247  0.4795 -0.0418
 1084loPI   C6A16672  16.061   3.325   7.470 -0.2643 -0.3991  0.2984
 1084loPI   C1B16673  17.237   2.967   6.009  0.0669 -0.1220 -0.1325
 1084loPI   C2B16674  17.333   3.085   6.430 -0.0063  0.1430  0.1177
 1084loPI   C3B16675  17.373   3.182   6.896  0.0933 -0.3128 -0.1868
 1084loPI   C4B16676  17.219   3.311   7.276 -0.0912  0.1657  0.0224
 1085loPI    C116677  10.575   4.187   5.094  0.2445  0.2717 -0.2061
 1085loPI    C216678  10.582   3.882   4.835  0.0380 -0.0216  0.1255
 1085loPI    C316679  10.244   4.087   4.894  0.0002 -0.1533  0.3831
 1085loPI   PO416680  10.567   4.050   5.341 -0.2152  0.1860  0.2891
 1085loPI   GL116681  10.400   4.131   5.711 -0.1485  0.0341 -0.2318
 1085loPI   GL216682  10.289   3.885   6.031 -0.1460 -0.0639 -0.0497
 1085loPI   C1A16683  10.473   4.363   6.161  0.0975  0.0218  0.1296
 1085loPI   C2A16684  10.129   4.501   6.432  0.1120  0.0739 -0.0405
 1085loPI   C3A16685  10.111   4.715   6.897 -0.2545 -0.1653  0.1034
 1085loPI   C4A16686   9.789   4.494   7.125 -0.1494  0.0186 -0.1874
 1085loPI   C5A16687   9.331   4.706   7.338  0.1540 -0.0049  0.0143
 1085loPI   C6A16688   8.968   4.785   7.247 -0.1081 -0.1638  0.0240
 1085loPI   C1B16689  10.367   4.001   6.526  0.1898 -0.2862  0.3639
 1085loPI   C2B16690  10.126   4.202   6.926 -0.1971  0.1377  0.2296
 1085loPI   C3B16691   9.939   4.134   7.416 -0.1074 -0.3746  0.1544
 1085loPI   C4B16692  10.200   4.063   7.811 -0.1264 -0.2176 -0.0450
 1086loPI    C116693  13.943  18.519   5.096  0.1818  0.0697 -0.0939
 1086loPI    C216694  13.620  18.640   4.893 -0.0311 -0.2140  0.0674
 1086loPI    C316695  13.920  18.457   4.702  0.0409  0.0572 -0.0843
 1086loPI   PO416696  13.999  18.709   5.247  0.0672  0.1766  0.0200
 1086loPI   GL116697  14.016  18.719   5.727 -0.2338 -0.2544  0.0438
 1086loPI   GL216698  14.361  18.744   5.665  0.0190 -0.3143 -0.0087
 1086loPI   C1A16699  13.782  18.783   6.132  0.0740  0.2392  0.0355
 1086loPI   C2A16700  13.857  18.918   6.503  0.2479 -0.0968  0.0185
 1086loPI   C3A16701  14.054  19.187   6.821  0.1335 -0.2391 -0.0903
 1086loPI   C4A16702  14.182  19.240   7.215 -0.1494 -0.1303  0.0094
 1086loPI   C5A16703  14.346  19.401   7.568  0.0266 -0.1157  0.2636
 1086loPI   C6A16704  14.628  19.247   7.848  0.0522  0.0868  0.1063
 1086loPI   C1B16705  14.266  18.723   6.110 -0.2273 -0.0537 -0.2130
 1086loPI   C2B16706  14.350  18.664   6.544  0.1680 -0.0851  0.2399
 1086loPI   C3B16707  14.237  18.743   6.886  0.2622  0.0204  0.1364
 1086loPI   C4B16708  13.831  18.838   7.045  0.3516  0.0577 -0.0590
 1087loPI    C116709   0.683   2.787   4.914  0.0049 -0.1251  0.2410
 1087loPI    C216710   0.475   2.481   4.763 -0.0075  0.0151 -0.0322
 1087loPI    C316711   0.866   2.513   4.687 -0.0163  0.0936 -0.0450
 1087loPI   PO416712   0.600   2.840   5.136 -0.1121  0.1409 -0.2101
 1087loPI   GL116713   0.711   2.895   5.550 -0.2522 -0.0630  0.2549
 1087loPI   GL216714   0.477   3.147   5.564 -0.0587 -0.2566 -0.0659
 1087loPI   C1A16715   0.429   2.641   5.711 -0.2544  0.0398 -0.2148
 1087loPI   C2A16716   0.176   2.440   6.036  0.0145 -0.0554 -0.0530
 1087loPI   C3A16717   0.020   2.749   6.438 -0.2689 -0.0233  0.1828
 1087loPI   C4A16718  -0.259   2.699   6.840  0.2218 -0.0814 -0.2855
 1087loPI   C5A16719  -0.483   2.451   7.153 -0.2024  0.0498  0.0569
 1087loPI   C6A16720  -0.491   2.145   7.375 -0.0297 -0.0035  0.0547
 1087loPI   C1B16721   0.663   3.591   5.676  0.2004  0.1625  0.2844
 1087loPI   C2B16722   0.828   3.729   6.082 -0.3629  0.0808  0.4233
 1087loPI   C3B16723   1.061   3.796   6.432  0.3627  0.2004  0.1519
 1087loPI   C4B16724   1.318   3.682   6.675 -0.2157 -0.2459 -0.2520
 1088loPI    C116725   5.609   1.688   5.201 -0.0749 -0.0088  0.0931
 1088loPI    C216726   5.965   1.584   5.351  0.0308  0.1988 -0.0101
 1088loPI    C316727   5.876   1.499   4.971 -0.0670  0.0642  0.0422
 1088loPI   PO416728   5.432   1.649   5.323 -0.5466 -0.3231  0.2235
 1088loPI   GL116729   5.096   1.443   5.589 -0.1829  0.0191  0.1267
 1088loPI   GL216730   4.928   1.646   5.749  0.1788  0.1542 -0.1761
 1088loPI   C1A16731   5.203   1.305   5.930  0.1490  0.2759  0.0819
 1088loPI   C2A16732   5.148   1.186   6.317  0.1177  0.0281 -0.0411
 1088loPI   C3A16733   5.138   1.184   6.762 -0.0839 -0.0295 -0.0288
 1088loPI   C4A16734   5.102   1.362   7.205 -0.1772  0.0953  0.1259
 1088loPI   C5A16735   4.998   1.697   7.437  0.0429 -0.1296 -0.1834
 1088loPI   C6A16736   5.214   1.730   7.932  0.0902 -0.1438 -0.0542
 1088loPI   C1B16737   5.040   1.698   6.163  0.0881 -0.0734 -0.3406
 1088loPI   C2B16738   5.127   1.689   6.565  0.0224 -0.3647 -0.0162
 1088loPI   C3B16739   5.012   1.886   6.943 -0.0716 -0.0586  0.1395
 1088loPI   C4B16740   4.837   2.259   6.778  0.3029 -0.1723 -0.0245
 1089loPI    C116741  17.623  11.929   5.054 -0.0624 -0.1446 -0.0109
 1089loPI    C216742  17.448  11.582   4.957  0.2304 -0.2604 -0.1371
 1089loPI    C316743  17.493  11.867   4.680 -0.0314 -0.1091 -0.0276
 1089loPI   PO416744  17.838  11.883   5.141 -0.1264  0.0830  0.2655
 1089loPI   GL116745  17.958  11.702   5.593 -0.4863 -0.0762 -0.0542
 1089loPI   GL216746  17.970  12.017   5.564 -0.1702 -0.2470  0.3837
 1089loPI   C1A16747  18.019  11.652   5.992  0.0814 -0.0421 -0.2297
 1089loPI   C2A16748  18.073  11.618   6.414 -0.3179  0.1940  0.0099
 1089loPI   C3A16749  18.184  11.564   6.834  0.1853  0.0214  0.0815
 1089loPI   C4A16750  18.219  11.333   7.243  0.0588 -0.0509 -0.0143
 1089loPI   C5A16751  18.169  11.265   7.721 -0.0539  0.0654 -0.0038
 1089loPI   C6A16752  17.947  11.674   7.963 -0.1503  0.2090 -0.2094
 1089loPI   C1B16753  18.189  12.138   5.920 -0.3764 -0.1825 -0.1318
 1089loPI   C2B16754  18.299  12.121   6.325  0.1097 -0.1110 -0.1849
 1089loPI   C3B16755  18.396  11.981   6.753 -0.0814  0.0223 -0.0047
 1089loPI   C4B16756  18.356  11.991   7.153 -0.0962  0.0935 -0.2523
 1090loPI    C116757   8.678  11.004   5.194 -0.0812  0.0458 -0.0629
 1090loPI    C216758   8.669  11.237   4.869  0.0519  0.0464 -0.0670
 1090loPI    C316759   8.825  10.869   4.847 -0.1457 -0.0397 -0.0575
 1090loPI   PO416760   8.760  11.080   5.390  0.1499  0.2387  0.2663
 1090loPI   GL116761   8.898  10.755   5.661 -0.1141 -0.0821  0.3220
 1090loPI   GL216762   8.810  10.519   5.827 -0.2925 -0.3155  0.2029
 1090loPI   C1A16763   8.916  10.966   6.002 -0.1207  0.0634 -0.0132
 1090loPI   C2A16764   8.656  11.039   6.370  0.0998  0.1382  0.0809
 1090loPI   C3A16765   8.498  11.115   6.752 -0.2536 -0.0453 -0.1438
 1090loPI   C4A16766   8.304  11.213   7.232  0.1712  0.0493 -0.0517
 1090loPI   C5A16767   8.313  11.420   7.472 -0.3157  0.0367  0.1285
 1090loPI   C6A16768   8.616  11.662   7.847 -0.1071 -0.0253 -0.0927
 1090loPI   C1B16769   8.819  10.571   6.288  0.0213 -0.0889  0.2053
 1090loPI   C2B16770   8.811  10.672   6.723  0.1489 -0.0698  0.1099
 1090loPI   C3B16771   8.679  10.817   7.076 -0.3868 -0.0441  0.2643
 1090loPI   C4B16772   8.643  10.886   7.491 -0.1213 -0.1793  0.1332
 1091loPI    C116773   2.943  18.259   4.927  0.0438 -0.0038  0.2155
 1091loPI    C216774   2.905  18.615   5.106  0.6648  0.1446  0.0773
 1091loPI    C316775   2.969  18.594   4.711 -0.1207 -0.1604 -0.0533
 1091loPI   PO416776   3.090  18.138   4.989 -0.3164 -0.0077 -0.2788
 1091loPI   GL116777   2.924  17.733   5.131 -0.2362 -0.1256  0.0933
 1091loPI   GL216778   2.561  17.701   5.247  0.0638 -0.0023 -0.0513
 1091loPI   C1A16779   2.889  17.909   5.573 -0.0671 -0.3312  0.0619
 1091loPI   C2A16780   2.921  18.006   6.057  0.0493 -0.4142  0.3009
 1091loPI   C3A16781   2.885  17.992   6.477  0.1391  0.1226 -0.1966
 1091loPI   C4A16782   2.841  17.965   6.881  0.0902  0.1221  0.2085
 1091loPI   C5A16783   2.678  17.842   7.293  0.0570 -0.0749 -0.1855
 1091loPI   C6A16784   2.539  17.717   7.649 -0.3843  0.0281  0.1911
 1091loPI   C1B16785   2.389  17.838   5.651 -0.2044 -0.1696 -0.1014
 1091loPI   C2B16786   2.321  17.880   6.095 -0.1040  0.2633 -0.0411
 1091loPI   C3B16787   2.338  18.033   6.472 -0.1558 -0.1613 -0.0911
 1091loPI   C4B16788   1.972  18.198   6.719 -0.0692 -0.0306  0.1852
 1092loPI    C116789  18.371  17.779   5.270  0.2278  0.0072  0.1518
 1092loPI    C216790  18.178  17.437   5.195  0.0462  0.1303  0.0497
 1092loPI    C316791  18.027  17.699   5.457 -0.0025  0.2925 -0.1377
 1092loPI   PO416792  18.561  17.796   5.439  0.4206 -0.0424 -0.1600
 1092loPI   GL116793  18.808  17.955   5.713  0.0541  0.0583 -0.0261
 1092loPI   GL216794  18.568  18.241   5.732  0.0557 -0.1292 -0.0415
 1092loPI   C1A16795  18.850  18.107   6.155 -0.1270  0.1333 -0.1839
 1092loPI   C2A16796  18.578  18.054   6.518 -0.1130 -0.2318  0.1698
 1092loPI   C3A16797  18.602  18.017   7.003 -0.2059  0.0383  0.0660
 1092loPI   C4A16798  18.696  17.628   7.231 -0.0825 -0.0250 -0.2976
 1092loPI   C5A16799  18.910  17.621   7.593  0.2145 -0.0830 -0.4645
 1092loPI   C6A16800  19.136  17.739   7.990  0.1795 -0.1324  0.0187
 1092loPI   C1B16801  18.353  18.389   6.154  0.3716  0.0144 -0.1601
 1092loPI   C2B16802  18.022  18.254   6.400 -0.3538 -0.0285  0.1606
 1092loPI   C3B16803  18.010  18.118   6.851  0.0490  0.0732 -0.2564
 1092loPI   C4B16804  18.196  18.242   7.196 -0.1613  0.0873 -0.2119
 1093loPI    C116805  18.190  12.908   5.048  0.3329 -0.0143 -0.0433
 1093loPI    C216806  18.091  13.052   4.688  0.0744  0.0045  0.0338
 1093loPI    C316807  18.193  12.668   4.729 -0.0146 -0.0273 -0.0397
 1093loPI   PO416808  17.940  12.981   5.318  0.0324  0.0044 -0.1074
 1093loPI   GL116809  17.723  12.925   5.674 -0.0622  0.2754  0.0791
 1093loPI   GL216810  17.972  12.941   5.798 -0.2958 -0.1551  0.1198
 1093loPI   C1A16811  17.507  12.750   6.111 -0.0571 -0.0080  0.3142
 1093loPI   C2A16812  17.556  12.688   6.483 -0.2030  0.1230 -0.1579
 1093loPI   C3A16813  17.680  12.523   6.966  0.2581 -0.0060 -0.0222
 1093loPI   C4A16814  17.425  12.226   7.193  0.5072  0.1022 -0.1012
 1093loPI   C5A16815  17.120  12.165   7.533 -0.1616  0.1353  0.0839
 1093loPI   C6A16816  16.730  11.936   7.454 -0.4852 -0.0423 -0.2341
 1093loPI   C1B16817  18.057  12.982   6.156  0.1501 -0.1860 -0.1061
 1093loPI   C2B16818  18.333  13.101   6.466  0.6076 -0.1099 -0.1367
 1093loPI   C3B16819  18.344  13.076   6.818 -0.1123  0.3433  0.3686
 1093loPI   C4B16820  18.615  13.371   7.094 -0.0942  0.0072  0.0503
 1094loPI    C116821   1.476  14.055   4.913  0.0807 -0.0748 -0.1722
 1094loPI    C216822   1.355  14.435   4.891  0.0544 -0.0662  0.0969
 1094loPI    C316823   1.551  14.271   4.584 -0.1570  0.0856 -0.1236
 1094loPI   PO416824   1.330  13.999   5.198  0.1496 -0.2317  0.1974
 1094loPI   GL116825   1.227  14.110   5.677 -0.1549  0.1116  0.1489
 1094loPI   GL216826   1.134  14.295   5.833 -0.1731  0.0167  0.0565
 1094loPI   C1A16827   1.603  13.710   5.763 -0.0363  0.1493  0.0275
 1094loPI   C2A16828   1.806  13.392   5.877 -0.0749 -0.1745 -0.0110
 1094loPI   C3A16829   1.758  13.181   6.345  0.0979 -0.0427  0.2785
 1094loPI   C4A16830   1.896  13.188   6.715  0.1714 -0.2708  0.2170
 1094loPI   C5A16831   1.845  13.238   7.199  0.1273  0.1973 -0.2473
 1094loPI   C6A16832   1.812  13.221   7.586  0.0160  0.1480  0.2059
 1094loPI   C1B16833   1.165  14.216   6.293 -0.1397  0.0496 -0.0738
 1094loPI   C2B16834   1.124  14.203   6.713  0.1814 -0.1758  0.0296
 1094loPI   C3B16835   1.191  14.303   7.161  0.1859 -0.2345  0.0829
 1094loPI   C4B16836   1.047  14.541   7.556  0.0165 -0.1261  0.4079
 1095loPI    C116837   5.063  10.186   5.115 -0.0652 -0.2134 -0.1505
 1095loPI    C216838   5.302  10.181   4.794  0.0203  0.0862 -0.0944
 1095loPI    C316839   5.430  10.344   5.136 -0.1985  0.0849 -0.0102
 1095loPI   PO416840   5.002   9.982   5.162 -0.3778  0.0836 -0.0924
 1095loPI   GL116841   4.893   9.708   5.533  0.2064  0.0043  0.2296
 1095loPI   GL216842   4.611   9.516   5.539  0.1425 -0.2875  0.0608
 1095loPI   C1A16843   5.168   9.766   5.882 -0.3251 -0.0508  0.0364
 1095loPI   C2A16844   5.198   9.720   6.348 -0.0624 -0.0234 -0.1814
 1095loPI   C3A16845   5.317   9.609   6.756 -0.0185 -0.0318 -0.0397
 1095loPI   C4A16846   5.642   9.285   6.974 -0.0037 -0.0502 -0.1118
 1095loPI   C5A16847   5.793   8.882   7.189  0.3339  0.0257  0.3298
 1095loPI   C6A16848   6.042   8.643   7.439 -0.0136  0.2498 -0.1715
 1095loPI   C1B16849   4.576   9.678   5.907  0.2208  0.0268 -0.0063
 1095loPI   C2B16850   4.695   9.676   6.269 -0.2309  0.0665 -0.3793
 1095loPI   C3B16851   4.815   9.584   6.689  0.0608 -0.0839  0.0628
 1095loPI   C4B16852   5.021   9.588   7.182 -0.1776  0.1832 -0.3500
 1096loPI    C116853  17.414  12.898   5.056 -0.2102  0.0377 -0.1427
 1096loPI    C216854  17.670  12.733   4.797 -0.0434 -0.2417  0.1905
 1096loPI    C316855  17.283  12.769   4.701  0.0835  0.0271 -0.2494
 1096loPI   PO416856  17.441  12.782   5.290  0.0187 -0.1533 -0.2067
 1096loPI   GL116857  17.266  12.635   5.699 -0.2082 -0.2428 -0.0010
 1096loPI   GL216858  17.264  12.319   5.918 -0.1568 -0.2058  0.1970
 1096loPI   C1A16859  17.792  12.446   5.818 -0.0704 -0.0108  0.3832
 1096loPI   C2A16860  17.930  12.456   6.187  0.0381  0.0847 -0.0787
 1096loPI   C3A16861  18.029  12.683   6.550  0.1051  0.2108  0.1909
 1096loPI   C4A16862  18.186  12.445   6.922  0.2638 -0.2019  0.0159
 1096loPI   C5A16863  18.109  12.459   7.329  0.1707  0.0407 -0.0508
 1096loPI   C6A16864  17.829  12.344   7.632 -0.2900 -0.2950  0.1957
 1096loPI   C1B16865  17.121  12.457   6.330 -0.1058  0.1370  0.3244
 1096loPI   C2B16866  17.180  12.432   6.781  0.2620 -0.0019  0.3620
 1096loPI   C3B16867  16.910  12.469   7.175  0.0618 -0.1556 -0.0288
 1096loPI   C4B16868  16.589  12.495   7.372  0.0588 -0.4550  0.3842
 1097loPI    C116869  17.781  16.160   4.699 -0.2721 -0.0207  0.1883
 1097loPI    C216870  17.700  15.807   4.529  0.0515  0.1585 -0.3639
 1097loPI    C316871  17.430  16.102   4.515 -0.1741 -0.0237 -0.0002
 1097loPI   PO416872  17.881  16.105   4.907  0.0578 -0.0878 -0.0948
 1097loPI   GL116873  17.772  16.083   5.320 -0.2789  0.0589  0.0375
 1097loPI   GL216874  17.626  15.831   5.415 -0.3470  0.0288  0.1396
 1097loPI   C1A16875  17.728  16.255   5.703 -0.2368  0.0165  0.2852
 1097loPI   C2A16876  17.876  16.338   6.138  0.0928 -0.1047 -0.5004
 1097loPI   C3A16877  17.823  16.395   6.590 -0.0690  0.1657  0.0619
 1097loPI   C4A16878  17.857  16.359   7.081  0.0210  0.0964 -0.3372
 1097loPI   C5A16879  17.875  16.141   7.518 -0.0595  0.0416 -0.2357
 1097loPI   C6A16880  17.668  16.206   7.806  0.0079  0.1837 -0.2383
 1097loPI   C1B16881  17.526  15.507   5.762  0.0034 -0.0824 -0.3692
 1097loPI   C2B16882  17.696  15.388   6.114  0.4285 -0.1415 -0.1874
 1097loPI   C3B16883  17.701  15.392   6.526  0.3914  0.0068  0.0157
 1097loPI   C4B16884  17.671  15.309   6.921 -0.0895 -0.0664  0.0047
 1098loPI    C116885  10.746   0.829   5.317 -0.0418 -0.0974 -0.0566
 1098loPI    C216886  10.405   0.810   5.108  0.0839  0.0165 -0.2756
 1098loPI    C316887  10.693   1.066   4.999  0.2443 -0.0857 -0.0986
 1098loPI   PO416888  10.663   0.874   5.572  0.1568 -0.4379  0.1947
 1098loPI   GL116889  10.680   1.129   5.945  0.0587 -0.2631  0.1940
 1098loPI   GL216890  10.360   1.226   5.931 -0.1003 -0.0977  0.0587
 1098loPI   C1A16891  10.694   0.912   6.347  0.1741  0.1226  0.0922
 1098loPI   C2A16892  10.956   0.743   6.709 -0.0924 -0.1165  0.0593
 1098loPI   C3A16893  11.024   0.614   7.117  0.0131  0.0403  0.0048
 1098loPI   C4A16894  11.165   0.510   7.568  0.3483  0.2000  0.2720
 1098loPI   C5A16895  11.358   0.503   7.925 -0.2775 -0.3583 -0.3473
 1098loPI   C6A16896  11.674   0.356   8.167 -0.2686 -0.1760  0.1287
 1098loPI   C1B16897  10.228   1.473   6.255 -0.1662 -0.1892 -0.2616
 1098loPI   C2B16898  10.225   1.384   6.625 -0.2667 -0.1948  0.3622
 1098loPI   C3B16899  10.589   1.196   6.855  0.0380  0.0194 -0.1448
 1098loPI   C4B16900  10.980   1.152   7.058 -0.0178 -0.1986  0.0297
 1099loPI    C116901  16.975  10.437   4.730 -0.0723  0.0653 -0.1640
 1099loPI    C216902  17.045  10.092   4.920 -0.3481  0.1228  0.0485
 1099loPI    C316903  17.309  10.230   4.654 -0.2180 -0.2327 -0.0135
 1099loPI   PO416904  16.749  10.519   5.005 -0.3229  0.2118 -0.0851
 1099loPI   GL116905  16.909  10.503   5.430  0.1769 -0.1278  0.0166
 1099loPI   GL216906  17.157  10.444   5.304  0.0405  0.1620  0.0338
 1099loPI   C1A16907  17.052  10.590   5.875  0.2386  0.1618 -0.0054
 1099loPI   C2A16908  17.057  10.543   6.301  0.0242 -0.1273 -0.1693
 1099loPI   C3A16909  17.097  10.676   6.713  0.0857 -0.1929 -0.2214
 1099loPI   C4A16910  17.135  10.673   7.143  0.0720 -0.1548  0.0806
 1099loPI   C5A16911  17.217  10.641   7.493 -0.0030 -0.0040 -0.0011
 1099loPI   C6A16912  17.609  10.710   7.669 -0.0348 -0.2371 -0.1745
 1099loPI   C1B16913  17.046  10.113   5.715 -0.0292 -0.1067 -0.1725
 1099loPI   C2B16914  17.245  10.114   6.076  0.0141  0.1179 -0.2246
 1099loPI   C3B16915  17.381  10.199   6.413  0.2123  0.0475  0.0553
 1099loPI   C4B16916  17.476  10.344   6.805  0.1709 -0.0529  0.1347
 1100loPI    C116917  14.386  10.107   4.823  0.1567 -0.0479 -0.1361
 1100loPI    C216918  14.091   9.838   4.843  0.0037  0.1280  0.0117
 1100loPI    C316919  14.006  10.224   4.783  0.2101  0.1686 -0.0284
 1100loPI   PO416920  14.559   9.918   5.008 -0.3814 -0.1191 -0.0614
 1100loPI   GL116921  14.827   9.768   5.357 -0.0042 -0.1490  0.2158
 1100loPI   GL216922  14.659   9.659   5.611 -0.2488  0.1554  0.0608
 1100loPI   C1A16923  14.823  10.157   5.649 -0.0656 -0.0060 -0.2741
 1100loPI   C2A16924  14.930  10.318   6.096 -0.2701  0.0725  0.2758
 1100loPI   C3A16925  14.909  10.503   6.483  0.0534  0.4310 -0.0135
 1100loPI   C4A16926  14.913  10.788   6.860  0.0810  0.2749 -0.0716
 1100loPI   C5A16927  14.852  10.773   7.332  0.1968  0.1858  0.0732
 1100loPI   C6A16928  14.857  11.155   7.463  0.1375 -0.0300  0.1232
 1100loPI   C1B16929  14.642   9.714   6.051  0.0053  0.0426  0.1422
 1100loPI   C2B16930  14.274   9.796   6.270  0.2328  0.0194 -0.1817
 1100loPI   C3B16931  14.064   9.840   6.589 -0.1284  0.1192  0.1600
 1100loPI   C4B16932  14.286   9.910   6.970  0.0655  0.0594  0.1381
 1101loPI    C116933  10.736   9.472   5.304 -0.0278  0.0402  0.1261
 1101loPI    C216934  10.468   9.333   5.042 -0.1188  0.1054  0.1841
 1101loPI    C316935  10.844   9.401   4.926 -0.1140 -0.0361  0.1154
 1101loPI   PO416936  10.706   9.287   5.509  0.1813  0.0299 -0.0295
 1101loPI   GL116937  10.801   8.980   5.689  0.1574 -0.2789 -0.2156
 1101loPI   GL216938  10.592   8.715   5.866  0.1670 -0.1934  0.1933
 1101loPI   C1A16939  10.572   9.012   6.220 -0.0209 -0.0110  0.0721
 1101loPI   C2A16940  10.550   9.018   6.655  0.0978  0.1256 -0.0269
 1101loPI   C3A16941  10.329   9.136   6.972 -0.1123 -0.3689 -0.3861
 1101loPI   C4A16942  10.438   9.097   7.500  0.0394  0.0101 -0.3609
 1101loPI   C5A16943  10.476   8.664   7.668 -0.1091 -0.2428  0.1635
 1101loPI   C6A16944  10.366   8.214   7.905 -0.1421 -0.0142  0.0990
 1101loPI   C1B16945  10.532   8.441   6.262 -0.2077 -0.3437  0.2763
 1101loPI   C2B16946  10.541   8.416   6.720  0.0605 -0.0257 -0.0045
 1101loPI   C3B16947  10.598   8.642   7.118  0.1913 -0.0971  0.3092
 1101loPI   C4B16948  10.810   9.003   7.126  0.3225 -0.1811 -0.2917
 1102loPI    C116949  10.993   8.693   5.285  0.1908 -0.0061  0.1591
 1102loPI    C216950  11.057   8.431   4.989  0.1287  0.2143 -0.0528
 1102loPI    C316951  11.357   8.658   5.123  0.1700  0.0752  0.0942
 1102loPI   PO416952  10.812   8.491   5.472  0.0047 -0.4973 -0.0230
 1102loPI   GL116953  10.857   8.050   5.774 -0.0057 -0.2123 -0.1388
 1102loPI   GL216954  10.580   8.082   5.850  0.0288 -0.1361  0.0166
 1102loPI   C1A16955  10.974   8.185   6.183 -0.2997  0.3864  0.2113
 1102loPI   C2A16956  10.943   8.101   6.663  0.0191 -0.1113  0.1923
 1102loPI   C3A16957  10.783   8.080   7.018 -0.1795 -0.0582  0.1236
 1102loPI   C4A16958  10.781   8.193   7.397  0.0090  0.0635 -0.1035
 1102loPI   C5A16959  10.952   8.384   7.719 -0.0658  0.1275 -0.0824
 1102loPI   C6A16960  11.106   8.505   8.169  0.1398 -0.0175  0.0097
 1102loPI   C1B16961  10.567   7.883   6.268 -0.0720  0.0894  0.1043
 1102loPI   C2B16962  10.513   7.716   6.610 -0.2739 -0.1701  0.0635
 1102loPI   C3B16963  10.428   7.720   7.104  0.1012  0.0738  0.1717
 1102loPI   C4B16964  10.305   7.987   7.458 -0.4128 -0.2817 -0.0877
 1103loPI    C116965  15.051  13.015   5.333  0.0451 -0.1054  0.0285
 1103loPI    C216966  14.661  12.938   5.284  0.0002  0.0194  0.1846
 1103loPI    C316967  14.886  13.040   4.969 -0.0806 -0.1082  0.0848
 1103loPI   PO416968  15.147  12.850   5.618  0.0139  0.1059  0.1506
 1103loPI   GL116969  15.367  12.563   5.855  0.1399  0.0816  0.3683
 1103loPI   GL216970  15.521  12.818   5.977  0.3022  0.1307  0.1308
 1103loPI   C1A16971  15.234  12.490   6.295  0.1389  0.1564  0.0406
 1103loPI   C2A16972  15.149  12.443   6.686  0.1536  0.0125  0.2742
 1103loPI   C3A16973  15.176  12.246   7.071  0.3132  0.0295 -0.2435
 1103loPI   C4A16974  15.074  12.008   7.448  0.0107  0.0697  0.1462
 1103loPI   C5A16975  14.802  11.624   7.704  0.1629  0.0332  0.1045
 1103loPI   C6A16976  14.346  11.664   7.834 -0.3786  0.2818 -0.4125
 1103loPI   C1B16977  15.664  12.792   6.406 -0.0158  0.1589 -0.1033
 1103loPI   C2B16978  15.764  12.663   6.808  0.1335  0.1232  0.1382
 1103loPI   C3B16979  15.640  12.422   7.158 -0.0306 -0.5631 -0.4414
 1103loPI   C4B16980  15.682  12.292   7.573  0.0214 -0.1383 -0.0859
 1104loPI    C116981  13.022  11.199   5.025  0.1073  0.0116 -0.1502
 1104loPI    C216982  12.968  10.826   4.889  0.1281  0.0521 -0.2710
 1104loPI    C316983  12.930  11.138   4.641 -0.1931  0.1516 -0.1030
 1104loPI   PO416984  12.966  11.362   5.338  0.3918 -0.1173 -0.0404
 1104loPI   GL116985  13.007  11.259   5.777  0.0943  0.1734  0.3409
 1104loPI   GL216986  13.163  11.033   5.802  0.3178 -0.1992  0.2946
 1104loPI   C1A16987  12.614  11.296   5.954  0.0826  0.2754  0.0733
 1104loPI   C2A16988  12.485  11.184   6.431  0.0404  0.0915  0.2274
 1104loPI   C3A16989  12.300  11.260   6.763 -0.3888  0.1083 -0.1184
 1104loPI   C4A16990  12.214  11.295   7.161 -0.0577 -0.0696  0.4120
 1104loPI   C5A16991  12.171  11.189   7.595  0.0958  0.2641 -0.0926
 1104loPI   C6A16992  12.206  10.882   7.968  0.2018  0.0996  0.1507
 1104loPI   C1B16993  12.968  11.069   6.266  0.0760  0.1484  0.0674
 1104loPI   C2B16994  12.869  11.151   6.777  0.1801  0.1644 -0.1879
 1104loPI   C3B16995  12.668  11.074   7.205  0.0429  0.1204 -0.1268
 1104loPI   C4B16996  12.662  11.003   7.692  0.1782  0.0368 -0.0016
 1105loPI    C116997  12.453   9.226   5.023  0.0957  0.0995  0.2361
 1105loPI    C216998  12.466   9.529   4.763 -0.0146  0.1775  0.3200
 1105loPI    C316999  12.140   9.299   4.785  0.1584 -0.0974  0.0909
 1105loPI   PO417000  12.477   9.334   5.328  0.0135 -0.1377  0.3201
 1105loPI   GL117001  12.277   9.342   5.655  0.0284 -0.0570  0.1566
 1105loPI   GL217002  12.117   9.061   5.726 -0.0403  0.1262  0.1309
 1105loPI   C1A17003  12.345   9.578   5.966 -0.0928  0.3671 -0.0840
 1105loPI   C2A17004  12.370   9.469   6.337 -0.0997  0.1129 -0.0110
 1105loPI   C3A17005  12.333   9.461   6.777 -0.1048  0.0170 -0.2620
 1105loPI   C4A17006  12.312   9.424   7.185  0.0875  0.1563  0.1105
 1105loPI   C5A17007  12.478   9.213   7.629 -0.3292  0.0617 -0.0592
 1105loPI   C6A17008  12.548   9.125   8.121  0.0209 -0.0559  0.1170
 1105loPI   C1B17009  12.061   9.011   6.153  0.2876  0.0051  0.0033
 1105loPI   C2B17010  12.091   9.081   6.521 -0.1273 -0.1449 -0.1139
 1105loPI   C3B17011  11.979   9.104   6.929  0.1140  0.1319  0.4469
 1105loPI   C4B17012  12.154   8.993   7.305 -0.0163 -0.0232 -0.0640
 1106loPI    C117013  14.240   2.897   5.143  0.0655 -0.0174 -0.1868
 1106loPI    C217014  14.154   2.595   5.391 -0.0518  0.0010 -0.2040
 1106loPI    C317015  14.181   2.529   4.997  0.0274 -0.0072 -0.1975
 1106loPI   PO417016  13.989   3.126   5.241  0.0645  0.0115 -0.2725
 1106loPI   GL117017  14.128   3.244   5.685 -0.2123  0.1212 -0.1611
 1106loPI   GL217018  13.908   3.385   5.854 -0.1097 -0.0626  0.0938
 1106loPI   C1A17019  14.375   3.448   6.046 -0.0370  0.0751 -0.0023
 1106loPI   C2A17020  14.524   3.664   6.480  0.0661 -0.1142 -0.1477
 1106loPI   C3A17021  14.428   3.605   6.874 -0.0027  0.1169  0.0183
 1106loPI   C4A17022  14.292   3.556   7.280 -0.0219  0.3171  0.2558
 1106loPI   C5A17023  14.630   3.309   7.612 -0.1303 -0.0852 -0.0335
 1106loPI   C6A17024  14.880   3.344   8.073 -0.0892 -0.0482 -0.0892
 1106loPI   C1B17025  13.906   3.081   6.314  0.0755 -0.0218  0.0027
 1106loPI   C2B17026  14.048   2.797   6.667  0.2452  0.1078  0.1870
 1106loPI   C3B17027  14.207   2.598   7.007 -0.2867  0.4409  0.1967
 1106loPI   C4B17028  14.237   2.496   7.498  0.0591  0.0725  0.0337
 1107loPI    C117029  16.728   8.918   5.032  0.0590 -0.1202 -0.0557
 1107loPI    C217030  16.423   8.863   4.779 -0.1067  0.0736  0.0985
 1107loPI    C317031  16.730   9.099   4.675 -0.0236 -0.0946 -0.0433
 1107loPI   PO417032  16.640   8.717   5.213  0.0416 -0.0201 -0.0578
 1107loPI   GL117033  16.577   8.722   5.656 -0.2059  0.0792 -0.1931
 1107loPI   GL217034  16.696   8.569   5.916  0.0178  0.0750  0.1104
 1107loPI   C1A17035  16.751   9.033   5.839 -0.1400 -0.0908  0.1709
 1107loPI   C2A17036  16.998   9.180   6.270  0.3698  0.1045  0.2836
 1107loPI   C3A17037  17.093   9.340   6.621 -0.2561  0.2602 -0.0503
 1107loPI   C4A17038  17.017   9.496   7.064  0.1164 -0.0687 -0.1930
 1107loPI   C5A17039  16.879   9.483   7.493 -0.0386  0.0518 -0.0059
 1107loPI   C6A17040  16.893   9.305   7.907 -0.1623  0.1379 -0.0223
 1107loPI   C1B17041  16.581   8.736   6.325  0.1334 -0.1558 -0.0559
 1107loPI   C2B17042  16.791   8.908   6.667 -0.1003  0.1878  0.0447
 1107loPI   C3B17043  16.804   9.062   7.045 -0.1263 -0.1366 -0.1916
 1107loPI   C4B17044  17.189   9.108   7.368 -0.0225 -0.0016 -0.0772
 1108loPI    C117045  13.549   9.076   5.113  0.1395 -0.0911  0.0016
 1108loPI    C217046  13.220   9.077   4.885  0.1234  0.0609  0.0244
 1108loPI    C317047  13.581   9.119   4.717  0.1343 -0.1360 -0.0038
 1108loPI   PO417048  13.473   9.181   5.414 -0.0195  0.1624  0.1095
 1108loPI   GL117049  13.581   9.087   5.830  0.1966  0.0758 -0.0605
 1108loPI   GL217050  13.791   9.364   5.722  0.0364 -0.2823  0.2335
 1108loPI   C1A17051  13.447   9.185   6.336 -0.0556  0.0345 -0.0128
 1108loPI   C2A17052  13.326   9.201   6.724 -0.0285 -0.0507 -0.1654
 1108loPI   C3A17053  13.377   9.121   7.128 -0.2422  0.1315  0.3344
 1108loPI   C4A17054  13.471   8.817   7.443 -0.2969 -0.1760  0.0017
 1108loPI   C5A17055  13.237   8.601   7.827  0.1958  0.0034  0.1805
 1108loPI   C6A17056  12.817   8.619   8.064  0.2611 -0.0008  0.1795
 1108loPI   C1B17057  13.859   9.529   6.160 -0.0674 -0.1050  0.0602
 1108loPI   C2B17058  13.676   9.543   6.653 -0.0891  0.0356 -0.2598
 1108loPI   C3B17059  13.659   9.592   7.103 -0.0881  0.2872  0.1526
 1108loPI   C4B17060  13.628   9.359   7.499 -0.2638  0.2295  0.3572
 1109loPI    C117061  12.739   4.646   5.320 -0.0283  0.1362  0.0297
 1109loPI    C217062  13.137   4.630   5.354 -0.0219 -0.0809 -0.1278
 1109loPI    C317063  12.924   4.292   5.336 -0.2101  0.0342 -0.0870
 1109loPI   PO417064  12.647   4.811   5.515 -0.2986  0.3077  0.0480
 1109loPI   GL117065  12.802   4.882   6.059  0.0092 -0.0727 -0.0936
 1109loPI   GL217066  13.029   4.712   5.804 -0.1500 -0.2974  0.2824
 1109loPI   C1A17067  12.899   4.720   6.412  0.0317  0.0764  0.0156
 1109loPI   C2A17068  12.811   4.617   6.850 -0.0548  0.2408 -0.2020
 1109loPI   C3A17069  13.005   4.442   7.195 -0.1818 -0.0509 -0.1614
 1109loPI   C4A17070  13.107   4.446   7.655  0.1388  0.2042 -0.1088
 1109loPI   C5A17071  13.463   4.377   7.878 -0.0835 -0.1135  0.0298
 1109loPI   C6A17072  13.709   4.126   7.970 -0.0402 -0.1687  0.2310
 1109loPI   C1B17073  13.181   4.366   6.089 -0.1349  0.1235 -0.0718
 1109loPI   C2B17074  13.231   4.289   6.518 -0.1272  0.0551  0.1217
 1109loPI   C3B17075  13.378   4.119   6.946  0.0596  0.0763 -0.0500
 1109loPI   C4B17076  13.577   4.136   7.408 -0.0140 -0.1057 -0.0591
 1110loPI    C117077  12.154  18.003   5.540  0.1162 -0.1500  0.1160
 1110loPI    C217078  11.846  18.076   5.295  0.1887  0.0117  0.0717
 1110loPI    C317079  11.922  17.702   5.415  0.0109 -0.0369  0.0360
 1110loPI   PO417080  12.044  18.117   5.784 -0.0446 -0.1562  0.0450
 1110loPI   GL117081  12.314  18.189   6.087 -0.1983 -0.0201 -0.1381
 1110loPI   GL217082  12.548  17.875   6.025  0.2435 -0.2849 -0.0298
 1110loPI   C1A17083  12.535  18.295   6.419  0.3707  0.1305  0.1502
 1110loPI   C2A17084  12.485  18.301   6.840 -0.0111 -0.0930 -0.3128
 1110loPI   C3A17085  12.737  18.396   7.254 -0.2125  0.1754 -0.0563
 1110loPI   C4A17086  12.678  18.283   7.707 -0.0293  0.0399 -0.0662
 1110loPI   C5A17087  12.717  18.150   8.077  0.0694  0.0559 -0.0514
 1110loPI   C6A17088  13.028  18.186   8.431  0.0314 -0.1519  0.0336
 1110loPI   C1B17089  12.176  17.681   6.321 -0.3660  0.0832  0.1362
 1110loPI   C2B17090  12.178  17.331   6.613 -0.0530 -0.2621 -0.0674
 1110loPI   C3B17091  12.127  17.322   7.037  0.0460 -0.2158 -0.2862
 1110loPI   C4B17092  12.352  17.572   7.411  0.0281  0.0254  0.1802
 1111loPI    C117093   7.671  17.628   5.078 -0.0075  0.0740 -0.0060
 1111loPI    C217094   7.483  17.938   5.249  0.1922  0.1496  0.0797
 1111loPI    C317095   7.564  17.944   4.857  0.2076  0.2119  0.0838
 1111loPI   PO417096   7.826  17.606   5.330 -0.1049 -0.2119 -0.1275
 1111loPI   GL117097   7.954  17.679   5.797 -0.2401  0.1618 -0.1065
 1111loPI   GL217098   8.261  17.444   5.677  0.1986  0.0796  0.0377
 1111loPI   C1A17099   7.789  17.907   6.155 -0.1748  0.0314  0.2062
 1111loPI   C2A17100   7.803  17.916   6.563 -0.1706  0.2267 -0.0186
 1111loPI   C3A17101   7.716  17.967   6.883  0.1833  0.1289  0.1306
 1111loPI   C4A17102   7.646  18.096   7.314  0.1094  0.2037 -0.0007
 1111loPI   C5A17103   7.640  18.115   7.671  0.1541 -0.0824  0.0505
 1111loPI   C6A17104   7.645  18.376   8.061 -0.1275  0.2240  0.0325
 1111loPI   C1B17105   8.232  17.311   6.045 -0.0304  0.0912  0.1128
 1111loPI   C2B17106   8.298  17.184   6.471  0.1398  0.1482  0.0212
 1111loPI   C3B17107   7.973  17.032   6.809  0.2422  0.0161 -0.0034
 1111loPI   C4B17108   7.843  17.147   7.207 -0.0521  0.2939 -0.3218
 1112loPI    C117109   5.407   6.311   5.282  0.0358 -0.3456 -0.0847
 1112loPI    C217110   5.308   6.394   4.904 -0.0275 -0.0413 -0.0042
 1112loPI    C317111   5.164   6.066   5.081 -0.1177 -0.1064 -0.1956
 1112loPI   PO417112   5.629   6.406   5.297 -0.2677 -0.0733 -0.2462
 1112loPI   GL117113   5.704   6.597   5.612  0.3099  0.2389 -0.1585
 1112loPI   GL217114   5.634   6.206   5.736  0.0200 -0.0186  0.3261
 1112loPI   C1A17115   5.370   6.713   5.960  0.2342  0.0910 -0.0094
 1112loPI   C2A17116   5.472   6.967   6.329  0.2112 -0.0966  0.0264
 1112loPI   C3A17117   5.869   7.224   6.165 -0.1477  0.1861 -0.2096
 1112loPI   C4A17118   5.985   7.560   6.466  0.0219 -0.0076 -0.0795
 1112loPI   C5A17119   5.943   7.761   6.891 -0.1072 -0.1105  0.1698
 1112loPI   C6A17120   6.048   7.620   7.266  0.0235 -0.2792  0.0719
 1112loPI   C1B17121   5.515   6.233   6.167 -0.0027 -0.0139  0.0087
 1112loPI   C2B17122   5.580   6.374   6.571 -0.0025 -0.1806 -0.1492
 1112loPI   C3B17123   5.496   6.329   6.969  0.0088 -0.5011 -0.3144
 1112loPI   C4B17124   5.733   6.030   7.188 -0.0526  0.1907 -0.1822
 1113loPI    C117125   3.428   8.647   4.950 -0.1337 -0.1086  0.1857
 1113loPI    C217126   3.221   8.875   4.695  0.2728 -0.1825 -0.2225
 1113loPI    C317127   3.127   8.489   4.739  0.0183 -0.1020 -0.0397
 1113loPI   PO417128   3.483   8.835   5.145  0.0043 -0.1451 -0.2977
 1113loPI   GL117129   3.559   9.018   5.528 -0.0848 -0.0570  0.2935
 1113loPI   GL217130   3.905   9.096   5.591 -0.0571  0.2358 -0.0834
 1113loPI   C1A17131   3.516   8.904   5.979  0.2294 -0.2832  0.0471
 1113loPI   C2A17132   3.551   8.987   6.295  0.2418 -0.2167  0.1529
 1113loPI   C3A17133   3.557   8.811   6.770 -0.1988 -0.1676  0.0788
 1113loPI   C4A17134   3.777   8.857   7.131  0.1165 -0.1197  0.3402
 1113loPI   C5A17135   3.924   8.890   7.537  0.0595 -0.2828 -0.0472
 1113loPI   C6A17136   4.161   8.970   7.900  0.1526 -0.1965  0.0461
 1113loPI   C1B17137   4.015   8.930   5.994  0.1949 -0.1754  0.0269
 1113loPI   C2B17138   4.001   8.911   6.432  0.2429  0.2705 -0.2529
 1113loPI   C3B17139   4.109   8.953   6.797  0.2886 -0.1459 -0.0592
 1113loPI   C4B17140   4.117   9.252   7.119  0.1631 -0.0753 -0.2811
 1114loPI    C117141  11.260   1.645   5.294 -0.0985  0.0363  0.2072
 1114loPI    C217142  11.227   1.822   4.938  0.1132 -0.0702  0.1322
 1114loPI    C317143  11.045   1.472   5.005 -0.1273  0.0669  0.2101
 1114loPI   PO417144  11.184   1.824   5.499 -0.3087 -0.1015  0.0641
 1114loPI   GL117145  11.200   2.060   5.874  0.0344 -0.0813  0.1348
 1114loPI   GL217146  11.329   1.814   5.993 -0.2730  0.1253  0.0039
 1114loPI   C1A17147  11.347   2.318   6.255  0.0016  0.0583 -0.0624
 1114loPI   C2A17148  11.267   2.558   6.692 -0.2654 -0.1148  0.0597
 1114loPI   C3A17149  11.066   2.697   7.115 -0.1900  0.0543 -0.1628
 1114loPI   C4A17150  10.805   2.962   7.253 -0.1288 -0.0363 -0.0665
 1114loPI   C5A17151  10.357   3.100   7.138 -0.2213  0.1368 -0.0655
 1114loPI   C6A17152   9.988   3.195   7.219  0.1262  0.0052 -0.4519
 1114loPI   C1B17153  11.287   1.601   6.352  0.0277 -0.0224  0.1358
 1114loPI   C2B17154  11.082   1.532   6.683 -0.2040 -0.0795 -0.0096
 1114loPI   C3B17155  11.141   1.623   7.058 -0.0876 -0.1048  0.0604
 1114loPI   C4B17156  11.076   1.373   7.484 -0.2669 -0.4665  0.1026
 1115loPI    C117157   4.374   9.277   5.029 -0.1456 -0.0615 -0.1430
 1115loPI    C217158   4.681   9.532   5.048 -0.0454 -0.1924  0.0242
 1115loPI    C317159   4.428   9.547   4.739  0.1373 -0.0938 -0.1232
 1115loPI   PO417160   4.300   9.218   5.314  0.3628 -0.1309  0.1112
 1115loPI   GL117161   4.439   8.965   5.686  0.1310  0.2324  0.0215
 1115loPI   GL217162   4.536   9.149   5.930  0.4484 -0.0081  0.0854
 1115loPI   C1A17163   4.429   8.643   6.030 -0.0029 -0.2813  0.2392
 1115loPI   C2A17164   4.363   8.577   6.446  0.2526 -0.1220  0.2537
 1115loPI   C3A17165   4.422   8.546   6.887 -0.1278 -0.1712 -0.2285
 1115loPI   C4A17166   4.378   8.790   7.268  0.1328 -0.1423  0.0372
 1115loPI   C5A17167   4.372   9.158   7.541  0.1108 -0.0092 -0.0506
 1115loPI   C6A17168   4.681   9.558   7.552 -0.3531 -0.0097  0.1343
 1115loPI   C1B17169   4.543   9.122   6.422  0.0087  0.0463  0.0594
 1115loPI   C2B17170   4.620   9.008   6.873 -0.0432 -0.0872  0.1798
 1115loPI   C3B17171   4.791   9.130   7.302  0.2168 -0.1848 -0.0453
 1115loPI   C4B17172   5.053   9.257   7.700  0.1269 -0.3414 -0.4099
 1116loPI    C117173  15.591   1.686   5.451  0.0763 -0.1999 -0.0492
 1116loPI    C217174  15.247   1.765   5.639  0.1060 -0.1070 -0.0335
 1116loPI    C317175  15.315   1.399   5.492  0.0387 -0.1508  0.0436
 1116loPI   PO417176  15.704   1.777   5.559  0.1650 -0.0278 -0.1261
 1116loPI   GL117177  15.703   1.943   5.889 -0.2582 -0.1022 -0.0716
 1116loPI   GL217178  15.654   2.229   5.966 -0.3224 -0.2675 -0.1214
 1116loPI   C1A17179  15.581   1.874   6.349  0.0390 -0.0508  0.4145
 1116loPI   C2A17180  15.335   1.958   6.636 -0.0585  0.1186  0.3376
 1116loPI   C3A17181  15.048   2.095   6.921  0.2055 -0.2352 -0.2896
 1116loPI   C4A17182  14.932   2.096   7.431  0.2070 -0.0406  0.2339
 1116loPI   C5A17183  15.117   2.017   7.858  0.1996  0.0194  0.2812
 1116loPI   C6A17184  15.477   2.178   8.149  0.0644 -0.0215  0.0504
 1116loPI   C1B17185  15.677   2.352   6.371 -0.1632 -0.1850 -0.0153
 1116loPI   C2B17186  15.883   2.519   6.615  0.0277  0.2072  0.3418
 1116loPI   C3B17187  16.156   2.842   6.522 -0.3499  0.0242 -0.1121
 1116loPI   C4B17188  16.398   3.246   6.362 -0.1430  0.0032 -0.1821
 1117loPI    C117189  17.279  14.708   5.199 -0.1028 -0.0484 -0.2214
 1117loPI    C217190  17.133  15.071   5.117  0.0028  0.0646  0.0783
 1117loPI    C317191  16.934  14.826   5.363 -0.0110 -0.0373 -0.0335
 1117loPI   PO417192  17.584  14.818   5.234  0.0837  0.1046  0.1355
 1117loPI   GL117193  17.807  15.002   5.603 -0.0900  0.0843  0.0578
 1117loPI   GL217194  17.954  15.337   5.662  0.1383  0.2407 -0.1503
 1117loPI   C1A17195  17.869  14.914   6.005 -0.0820 -0.3422 -0.4528
 1117loPI   C2A17196  17.815  14.877   6.452  0.2874  0.1288  0.0505
 1117loPI   C3A17197  17.828  14.857   6.890  0.1149  0.1788  0.1313
 1117loPI   C4A17198  17.713  14.850   7.293 -0.0453  0.1586 -0.1170
 1117loPI   C5A17199  17.453  14.828   7.684 -0.1762  0.2488  0.0728
 1117loPI   C6A17200  17.366  14.633   8.056 -0.2214  0.1761  0.1032
 1117loPI   C1B17201  18.165  15.408   6.003  0.0472  0.0846 -0.2012
 1117loPI   C2B17202  18.229  15.358   6.482  0.2282  0.0058 -0.2383
 1117loPI   C3B17203  18.147  15.348   6.876  0.1165 -0.1287  0.0575
 1117loPI   C4B17204  18.051  15.314   7.274  0.0010  0.0149  0.0293
 1118loPI    C117205   6.027   6.194   4.939 -0.1079  0.1852  0.0353
 1118loPI    C217206   6.222   6.365   4.635 -0.1900  0.1122 -0.0591
 1118loPI    C317207   5.850   6.481   4.724 -0.1870  0.0938 -0.0228
 1118loPI   PO417208   6.178   6.205   5.151  0.2311 -0.1791 -0.1880
 1118loPI   GL117209   6.159   6.166   5.624  0.2882 -0.0781 -0.0151
 1118loPI   GL217210   6.164   6.452   5.599 -0.2863 -0.3972 -0.0890
 1118loPI   C1A17211   6.026   6.155   6.110 -0.0651 -0.1704 -0.2571
 1118loPI   C2A17212   6.039   6.072   6.454 -0.0795  0.3360 -0.0467
 1118loPI   C3A17213   6.111   5.957   6.916 -0.1063 -0.0147  0.2114
 1118loPI   C4A17214   6.270   6.183   7.300  0.1140  0.3580 -0.1219
 1118loPI   C5A17215   5.940   6.280   7.603  0.0301 -0.0183  0.0517
 1118loPI   C6A17216   5.429   6.327   7.467 -0.3723  0.0539  0.0653
 1118loPI   C1B17217   5.974   6.660   6.014  0.1184  0.0643 -0.0677
 1118loPI   C2B17218   5.976   6.596   6.438 -0.0585 -0.2267  0.0554
 1118loPI   C3B17219   5.818   6.858   6.654 -0.1445  0.2247  0.0061
 1118loPI   C4B17220   5.583   6.798   7.019 -0.1773  0.0253  0.0332
 1119loPI    C117221   8.773  14.052   5.222 -0.1958 -0.1261  0.0115
 1119loPI    C217222   8.642  13.756   5.457 -0.3067 -0.0088  0.0988
 1119loPI    C317223   9.026  13.768   5.345 -0.2525 -0.0650  0.2754
 1119loPI   PO417224   8.655  14.226   5.298  0.1730  0.2963  0.1226
 1119loPI   GL117225   8.498  14.212   5.662  0.0428  0.0025  0.0387
 1119loPI   GL217226   8.756  14.432   5.868  0.1964 -0.0474  0.1905
 1119loPI   C1A17227   8.551  13.910   6.101  0.3445  0.0721 -0.1024
 1119loPI   C2A17228   8.747  13.644   6.404  0.2041  0.0428 -0.2125
 1119loPI   C3A17229   8.873  13.550   6.783  0.1007 -0.0300 -0.3044
 1119loPI   C4A17230   8.833  13.593   7.157 -0.0902  0.0173 -0.0688
 1119loPI   C5A17231   8.760  13.779   7.548  0.1326  0.1246  0.0062
 1119loPI   C6A17232   8.589  14.104   7.744  0.1167 -0.3743  0.0938
 1119loPI   C1B17233   8.943  14.186   6.272  0.3404 -0.0481  0.2568
 1119loPI   C2B17234   8.847  14.078   6.688 -0.2658  0.3603 -0.2640
 1119loPI   C3B17235   8.487  13.801   6.933  0.0634 -0.1656  0.3391
 1119loPI   C4B17236   8.219  13.715   7.286 -0.1175  0.0706 -0.2266
 1120loPI    C117237  14.221  16.604   5.324  0.0200  0.1053 -0.0067
 1120loPI    C217238  13.939  16.693   5.055 -0.1243  0.0609  0.1280
 1120loPI    C317239  14.261  16.483   4.945 -0.2146 -0.0144  0.0044
 1120loPI   PO417240  14.184  16.824   5.544 -0.1529  0.1080 -0.2720
 1120loPI   GL117241  13.957  16.937   5.870 -0.1567 -0.2563 -0.1874
 1120loPI   GL217242  13.922  17.248   5.851  0.0077  0.0524 -0.2432
 1120loPI   C1A17243  13.801  16.984   6.279 -0.3221  0.0484 -0.0668
 1120loPI   C2A17244  13.784  16.961   6.711  0.1568 -0.0706  0.3075
 1120loPI   C3A17245  13.581  17.087   7.030 -0.0572  0.0622 -0.2245
 1120loPI   C4A17246  13.239  17.208   7.281 -0.0486 -0.0565 -0.1999
 1120loPI   C5A17247  12.867  17.302   7.434 -0.1667  0.0853  0.0814
 1120loPI   C6A17248  12.604  17.155   7.729  0.2846 -0.0488 -0.1087
 1120loPI   C1B17249  13.935  17.616   6.101  0.1477 -0.0626 -0.0027
 1120loPI   C2B17250  14.014  17.787   6.572  0.3118  0.1886 -0.2701
 1120loPI   C3B17251  14.062  17.875   6.964 -0.1524 -0.2275 -0.2180
 1120loPI   C4B17252  14.388  17.966   7.170 -0.1101  0.3689 -0.1736
 1121loPI    C117253  10.920   5.178   4.948  0.0692 -0.2015  0.1734
 1121loPI    C217254  11.133   4.897   4.758  0.1587 -0.0601  0.0622
 1121loPI    C317255  11.211   5.284   4.694  0.0207 -0.0091  0.1969
 1121loPI   PO417256  10.951   5.080   5.233  0.0168 -0.1757  0.1560
 1121loPI   GL117257  10.857   5.018   5.703  0.2001 -0.1629 -0.0850
 1121loPI   GL217258  10.554   5.112   5.726 -0.0699  0.0199  0.0151
 1121loPI   C1A17259  11.059   4.851   6.006  0.2436 -0.1829  0.0528
 1121loPI   C2A17260  11.025   4.606   6.340  0.2448  0.0771 -0.3297
 1121loPI   C3A17261  11.019   4.649   6.836  0.1254 -0.1312 -0.0414
 1121loPI   C4A17262  11.107   4.524   7.238  0.3441  0.0158  0.1568
 1121loPI   C5A17263  11.194   4.648   7.628  0.2416 -0.2875 -0.3179
 1121loPI   C6A17264  11.162   4.699   8.000 -0.2729 -0.0969 -0.0266
 1121loPI   C1B17265  10.543   4.944   6.138  0.1352  0.1725  0.0141
 1121loPI   C2B17266  10.452   4.812   6.550 -0.2247 -0.2599 -0.0606
 1121loPI   C3B17267  10.591   4.445   6.669  0.1006 -0.0442  0.1170
 1121loPI   C4B17268  10.585   4.493   7.128 -0.0503  0.2638 -0.1559
 1122loPI    C117269  10.250   2.548   5.429 -0.0110 -0.2946  0.0995
 1122loPI    C217270  10.216   2.919   5.575  0.3562 -0.2272  0.0247
 1122loPI    C317271   9.970   2.795   5.284  0.2511 -0.0331  0.0288
 1122loPI   PO417272  10.302   2.447   5.675  0.1437  0.1199 -0.1548
 1122loPI   GL117273  10.534   2.636   6.070  0.4838  0.1460 -0.1088
 1122loPI   GL217274  10.551   2.271   6.106  0.0380 -0.2222 -0.0712
 1122loPI   C1A17275  10.433   2.676   6.433  0.0886 -0.5591  0.1431
 1122loPI   C2A17276  10.585   2.730   6.869  0.1680 -0.1568 -0.1467
 1122loPI   C3A17277  10.318   2.657   7.353 -0.3219  0.1889 -0.0779
 1122loPI   C4A17278  10.145   2.873   7.670  0.2841 -0.0914 -0.3139
 1122loPI   C5A17279   9.931   3.133   8.007  0.0074  0.0642 -0.1798
 1122loPI   C6A17280  10.099   3.327   8.371 -0.4707 -0.1536  0.1092
 1122loPI   C1B17281  10.281   2.148   6.456 -0.1051 -0.1353 -0.0149
 1122loPI   C2B17282  10.154   1.904   6.769  0.0546  0.4633  0.0224
 1122loPI   C3B17283  10.214   1.621   7.078 -0.1640  0.2110 -0.2619
 1122loPI   C4B17284  10.513   1.343   7.306  0.1324 -0.0553 -0.0688
 1123loPI    C117285  10.051  13.341   5.555  0.0117 -0.0801  0.0185
 1123loPI    C217286  10.357  13.370   5.299  0.1088 -0.1017  0.1312
 1123loPI    C317287  10.000  13.522   5.202  0.1333 -0.1479 -0.0344
 1123loPI   PO417288  10.172  13.455   5.730  0.0351  0.2624 -0.2177
 1123loPI   GL117289   9.980  13.608   6.102  0.0959 -0.0828 -0.0687
 1123loPI   GL217290   9.634  13.793   6.148 -0.3892 -0.1311 -0.2420
 1123loPI   C1A17291   9.946  13.787   6.565 -0.0010 -0.1227 -0.0091
 1123loPI   C2A17292  10.135  13.856   6.895 -0.0142  0.0620  0.2188
 1123loPI   C3A17293  10.165  13.723   7.219  0.0281  0.0922  0.2071
 1123loPI   C4A17294  10.258  13.536   7.607 -0.0158  0.1248  0.1232
 1123loPI   C5A17295  10.271  13.755   8.027  0.1440  0.1215  0.2083
 1123loPI   C6A17296  10.349  13.500   8.479 -0.0458  0.0055 -0.1279
 1123loPI   C1B17297   9.404  13.862   6.560  0.0329 -0.1956  0.1787
 1123loPI   C2B17298   9.218  13.857   6.951 -0.0744  0.1990 -0.1693
 1123loPI   C3B17299   9.200  13.987   7.359  0.0965 -0.0246 -0.4631
 1123loPI   C4B17300   9.210  13.844   7.807 -0.2024 -0.1499  0.0267
 1124loPI    C117301   1.759  13.098   4.645  0.0668 -0.0863 -0.1522
 1124loPI    C217302   1.957  13.304   4.366  0.2825 -0.1916 -0.0791
 1124loPI    C317303   1.558  13.317   4.378  0.2899  0.1719 -0.1129
 1124loPI   PO417304   1.878  13.245   4.889  0.0457 -0.2254  0.1032
 1124loPI   GL117305   1.901  13.239   5.338  0.0632 -0.1114  0.0850
 1124loPI   GL217306   1.997  13.550   5.345 -0.0738  0.0132  0.0495
 1124loPI   C1A17307   1.984  12.952   5.715 -0.0348  0.0725 -0.1444
 1124loPI   C2A17308   1.979  12.791   6.050 -0.0357 -0.0408 -0.1344
 1124loPI   C3A17309   2.071  12.793   6.402 -0.1180  0.2412  0.0773
 1124loPI   C4A17310   2.203  12.767   6.767 -0.0579  0.2300 -0.0620
 1124loPI   C5A17311   2.313  13.138   6.981  0.2332  0.3760  0.1877
 1124loPI   C6A17312   2.337  13.490   7.140  0.1496 -0.0774  0.0320
 1124loPI   C1B17313   2.185  13.797   5.637 -0.0035 -0.1590  0.3258
 1124loPI   C2B17314   2.089  13.923   6.050  0.0781 -0.0720 -0.2303
 1124loPI   C3B17315   1.915  13.630   6.393 -0.2288 -0.0266 -0.1463
 1124loPI   C4B17316   1.800  13.679   6.857  0.1791  0.1615 -0.1225
 1125loPI    C117317   5.428  16.717   5.092 -0.1027  0.1898  0.0712
 1125loPI    C217318   5.512  16.668   4.704  0.0190 -0.0666  0.1275
 1125loPI    C317319   5.672  16.974   4.906  0.0684 -0.0138  0.0097
 1125loPI   PO417320   5.482  16.467   5.232  0.2408 -0.1748 -0.0467
 1125loPI   GL117321   5.803  16.426   5.551 -0.1339 -0.1664  0.0053
 1125loPI   GL217322   5.552  16.191   5.605 -0.1408 -0.3098 -0.0988
 1125loPI   C1A17323   5.867  16.713   5.870  0.1472  0.0938  0.0018
 1125loPI   C2A17324   5.861  16.775   6.256  0.0136 -0.1460 -0.0183
 1125loPI   C3A17325   5.740  16.814   6.584 -0.0752  0.1460  0.0560
 1125loPI   C4A17326   5.592  16.931   7.080  0.0958  0.3119  0.0539
 1125loPI   C5A17327   5.665  17.039   7.524  0.4498 -0.3246 -0.0338
 1125loPI   C6A17328   5.866  16.732   7.709 -0.1245  0.0153  0.0385
 1125loPI   C1B17329   5.446  16.447   5.901  0.1671 -0.4965  0.0666
 1125loPI   C2B17330   5.357  16.651   6.295 -0.1271  0.2233  0.4927
 1125loPI   C3B17331   5.236  16.763   6.696 -0.1502  0.0091 -0.1928
 1125loPI   C4B17332   5.267  16.580   7.150 -0.1423  0.0682  0.0439
 1126loPI    C117333   3.452   2.334   5.181  0.0567  0.1534  0.0608
 1126loPI    C217334   3.240   2.021   5.050  0.0004  0.1036  0.2672
 1126loPI    C317335   3.109   2.393   4.985  0.1064  0.0887 -0.0464
 1126loPI   PO417336   3.571   2.230   5.400  0.2058  0.0572  0.1855
 1126loPI   GL117337   3.632   2.211   5.830 -0.2000  0.2134  0.0057
 1126loPI   GL217338   3.980   2.138   5.899 -0.1432 -0.1909 -0.0213
 1126loPI   C1A17339   3.366   2.237   6.221  0.0021  0.2761  0.0681
 1126loPI   C2A17340   3.359   2.526   6.548 -0.0152 -0.1534 -0.1811
 1126loPI   C3A17341   3.350   2.804   6.922  0.0033 -0.3445 -0.1193
 1126loPI   C4A17342   3.157   2.559   7.310  0.3548 -0.1032 -0.1354
 1126loPI   C5A17343   2.693   2.575   7.462 -0.1264 -0.1423 -0.0426
 1126loPI   C6A17344   2.429   2.529   7.730  0.2076  0.1625  0.0767
 1126loPI   C1B17345   4.080   1.957   6.336 -0.1595 -0.0961  0.1210
 1126loPI   C2B17346   4.037   1.834   6.735  0.0226 -0.0309  0.2322
 1126loPI   C3B17347   4.154   1.790   7.167  0.0579  0.0274  0.3040
 1126loPI   C4B17348   4.250   1.398   7.493  0.2515  0.1016  0.3951
 1127loPI    C117349   5.252  12.161   5.057 -0.0424 -0.0918  0.1080
 1127loPI    C217350   5.652  12.145   5.069 -0.0491 -0.2122  0.2002
 1127loPI    C317351   5.455  11.995   4.755 -0.0130  0.0498  0.0494
 1127loPI   PO417352   5.226  12.412   5.271 -0.2750  0.1068  0.1129
 1127loPI   GL117353   5.267  12.492   5.741 -0.4187  0.0035  0.1155
 1127loPI   GL217354   4.984  12.532   5.670 -0.1961 -0.0685 -0.1104
 1127loPI   C1A17355   5.426  12.431   6.122 -0.1745 -0.1518  0.0134
 1127loPI   C2A17356   5.441  12.353   6.591 -0.0426 -0.1720 -0.2307
 1127loPI   C3A17357   5.477  12.400   6.984  0.3548  0.3506 -0.1584
 1127loPI   C4A17358   5.463  12.487   7.464 -0.0041 -0.1283 -0.0138
 1127loPI   C5A17359   5.588  12.208   7.812  0.0837 -0.1493  0.0018
 1127loPI   C6A17360   5.567  12.127   8.207 -0.3240  0.2429 -0.1828
 1127loPI   C1B17361   4.870  12.314   5.964  0.0379  0.1723  0.0300
 1127loPI   C2B17362   4.975  12.262   6.338  0.2462  0.2568  0.0512
 1127loPI   C3B17363   4.937  12.390   6.755  0.3173  0.1731  0.3697
 1127loPI   C4B17364   4.918  12.356   7.220  0.0652 -0.1184  0.2848
 1128loPI    C117365  17.666   9.319   4.743  0.1120  0.0311  0.2062
 1128loPI    C217366  17.893   9.003   4.833  0.0791 -0.0468  0.0191
 1128loPI    C317367  17.665   8.998   4.505 -0.0268  0.1173  0.0894
 1128loPI   PO417368  17.551   9.411   4.911 -0.0071 -0.1237 -0.0838
 1128loPI   GL117369  17.640   9.491   5.373 -0.3463  0.1658  0.2212
 1128loPI   GL217370  17.759   9.127   5.316  0.4507 -0.0279  0.0439
 1128loPI   C1A17371  17.770   9.354   5.769 -0.0395 -0.0811 -0.2141
 1128loPI   C2A17372  17.877   9.440   6.152 -0.0926 -0.2143  0.1202
 1128loPI   C3A17373  17.880   9.527   6.602  0.1989  0.0601 -0.3087
 1128loPI   C4A17374  18.116   9.473   6.983 -0.0616 -0.1336  0.2211
 1128loPI   C5A17375  18.013   9.151   7.308  0.0646 -0.2153  0.0136
 1128loPI   C6A17376  18.033   8.737   7.355 -0.3910  0.0366  0.0849
 1128loPI   C1B17377  17.629   8.848   5.685 -0.0995  0.0175 -0.0100
 1128loPI   C2B17378  17.463   9.158   6.068  0.0288  0.2792 -0.0479
 1128loPI   C3B17379  17.545   9.187   6.470  0.1565 -0.1365  0.2645
 1128loPI   C4B17380  17.551   9.314   6.976  0.0788 -0.2563 -0.0581
 1129loPI    C117381   7.003   6.231   4.931  0.0034  0.1390 -0.0681
 1129loPI    C217382   7.101   6.616   4.978  0.0905  0.1124 -0.0288
 1129loPI    C317383   6.856   6.507   4.682  0.1329  0.1876 -0.0918
 1129loPI   PO417384   6.912   6.135   5.167 -0.1870 -0.0878 -0.1230
 1129loPI   GL117385   6.636   6.134   5.470 -0.2417  0.2610  0.0505
 1129loPI   GL217386   6.846   5.944   5.603  0.1521  0.1517  0.2578
 1129loPI   C1A17387   6.533   5.860   5.940  0.1284  0.2224  0.0643
 1129loPI   C2A17388   6.469   5.824   6.268 -0.1777 -0.0690  0.0277
 1129loPI   C3A17389   6.528   5.919   6.648 -0.1371  0.2076 -0.0757
 1129loPI   C4A17390   6.756   6.122   7.001  0.2470 -0.1621  0.1821
 1129loPI   C5A17391   6.900   6.267   7.462  0.0736  0.1540 -0.1511
 1129loPI   C6A17392   6.975   6.404   7.918 -0.2419  0.4806 -0.0034
 1129loPI   C1B17393   7.012   6.033   5.921 -0.1516 -0.1913 -0.0679
 1129loPI   C2B17394   7.027   6.028   6.413  0.2407 -0.2376 -0.1884
 1129loPI   C3B17395   7.204   6.049   6.821  0.0121 -0.2386  0.1333
 1129loPI   C4B17396   7.211   5.965   7.261  0.1589  0.0710  0.1173
 1130loPI    C117397   4.629  17.137   4.906 -0.0647 -0.1467  0.1257
 1130loPI    C217398   4.802  17.469   4.764  0.0548 -0.0492  0.4865
 1130loPI    C317399   4.751  17.152   4.525  0.0657  0.1776  0.1764
 1130loPI   PO417400   4.727  17.072   5.090  0.1846  0.2128 -0.1266
 1130loPI   GL117401   5.059  17.099   5.297  0.0419  0.2696  0.0500
 1130loPI   GL217402   5.314  16.951   5.522  0.0872 -0.0139  0.2758
 1130loPI   C1A17403   4.871  17.129   5.667 -0.2061  0.0329 -0.0503
 1130loPI   C2A17404   4.908  16.989   6.097  0.3091  0.0449 -0.3954
 1130loPI   C3A17405   4.983  17.109   6.449 -0.0997  0.0199 -0.0958
 1130loPI   C4A17406   5.075  17.342   6.839 -0.2147 -0.0520 -0.3477
 1130loPI   C5A17407   5.167  17.165   7.252 -0.1463  0.1042 -0.0111
 1130loPI   C6A17408   5.122  17.276   7.767  0.0139 -0.1165 -0.0137
 1130loPI   C1B17409   5.360  17.038   5.838 -0.2235 -0.0692  0.1258
 1130loPI   C2B17410   5.495  17.071   6.152  0.4663 -0.2756 -0.1247
 1130loPI   C3B17411   5.645  17.299   6.381  0.2251 -0.3533  0.0356
 1130loPI   C4B17412   5.571  17.327   6.850  0.0444 -0.0952 -0.0705
 1131loPI    C117413   6.591  10.190   5.442 -0.0183 -0.0825  0.0220
 1131loPI    C217414   6.712  10.094   5.073  0.1493 -0.1467  0.0924
 1131loPI    C317415   6.323  10.087   5.165  0.0928  0.0241 -0.1265
 1131loPI   PO417416   6.770  10.094   5.567  0.2570  0.1104  0.1250
 1131loPI   GL117417   6.816   9.899   5.906 -0.1013 -0.1392 -0.0268
 1131loPI   GL217418   6.807   9.548   5.853  0.0409 -0.0232  0.3607
 1131loPI   C1A17419   6.686   9.723   6.257  0.1230 -0.1624  0.2349
 1131loPI   C2A17420   6.910   9.599   6.497  0.0010 -0.0631  0.0476
 1131loPI   C3A17421   7.001   9.583   6.913 -0.2752 -0.0094  0.0063
 1131loPI   C4A17422   7.141   9.694   7.351  0.0373  0.1219  0.4145
 1131loPI   C5A17423   7.112   9.913   7.715 -0.1898 -0.1261  0.0319
 1131loPI   C6A17424   7.074   9.748   8.132  0.1567  0.1863 -0.3590
 1131loPI   C1B17425   7.100   9.258   6.073 -0.0693 -0.2157 -0.1496
 1131loPI   C2B17426   7.082   9.089   6.424 -0.0820 -0.2024  0.0188
 1131loPI   C3B17427   7.013   9.009   6.848  0.2551  0.0304  0.2698
 1131loPI   C4B17428   7.119   9.144   7.196  0.0745  0.0008  0.1155
 1132loPI    C117429  11.687  10.488   5.088 -0.0771 -0.2072  0.0458
 1132loPI    C217430  11.540  10.461   4.717  0.1072 -0.0784 -0.0378
 1132loPI    C317431  11.931  10.403   4.783  0.0835 -0.0549  0.1297
 1132loPI   PO417432  11.458  10.520   5.234  0.0276 -0.0393  0.0288
 1132loPI   GL117433  11.301  10.475   5.640 -0.0019 -0.0430  0.1410
 1132loPI   GL217434  11.208  10.694   5.829 -0.2609  0.2609 -0.0968
 1132loPI   C1A17435  11.308  10.188   6.030 -0.1200  0.1537 -0.1049
 1132loPI   C2A17436  11.293  10.167   6.455  0.2205  0.1608 -0.1843
 1132loPI   C3A17437  11.044  10.519   6.832 -0.0731 -0.0394 -0.1243
 1132loPI   C4A17438  10.985  10.470   7.211 -0.2698  0.2697  0.1632
 1132loPI   C5A17439  11.176  10.597   7.639 -0.1787 -0.2522 -0.0083
 1132loPI   C6A17440  11.309  10.702   8.041  0.0100  0.1322 -0.1855
 1132loPI   C1B17441  11.135  10.586   6.258 -0.2515  0.0380  0.0676
 1132loPI   C2B17442  10.799  10.783   6.478  0.0504 -0.3150  0.0188
 1132loPI   C3B17443  10.816  11.194   6.616  0.1808  0.2616 -0.3470
 1132loPI   C4B17444  10.699  11.416   6.933  0.1225  0.1462  0.1123
 1133loPI    C117445  16.024  18.232   5.101 -0.4044  0.0310 -0.1111
 1133loPI    C217446  16.020  18.622   5.011  0.0225  0.0619 -0.0200
 1133loPI    C317447  16.255  18.372   4.806 -0.3168 -0.1681 -0.1381
 1133loPI   PO417448  16.005  18.268   5.348 -0.1357  0.2171 -0.0084
 1133loPI   GL117449  16.173  18.316   5.748 -0.0351 -0.2900  0.1031
 1133loPI   GL217450  16.261  18.650   5.855  0.0172  0.0775 -0.0782
 1133loPI   C1A17451  16.181  18.107   6.097 -0.0586  0.1012  0.0455
 1133loPI   C2A17452  16.190  17.761   6.444 -0.2066 -0.1093 -0.0278
 1133loPI   C3A17453  16.309  17.942   6.802 -0.0843  0.0970 -0.0993
 1133loPI   C4A17454  16.294  17.858   7.287  0.2721 -0.0661  0.0665
 1133loPI   C5A17455  16.073  18.117   7.663  0.0693 -0.0232  0.1609
 1133loPI   C6A17456  15.858  18.542   7.881  0.1146  0.0059 -0.4337
 1133loPI   C1B17457  16.245  18.625   6.246 -0.0693 -0.0271  0.2658
 1133loPI   C2B17458  16.243  18.499   6.653 -0.1922  0.3447  0.2996
 1133loPI   C3B17459  16.424  18.568   7.100 -0.1342  0.1901  0.4191
 1133loPI   C4B17460  16.534  18.264   7.418 -0.1759  0.4243  0.0485
 1134loPI    C117461  16.947   1.397   4.780 -0.0153  0.0034  0.1303
 1134loPI    C217462  17.140   1.713   4.933  0.1846 -0.0300 -0.0482
 1134loPI    C317463  16.781   1.760   4.763  0.2322  0.1091 -0.1121
 1134loPI   PO417464  16.925   1.170   5.025 -0.0477  0.2400  0.3504
 1134loPI   GL117465  17.152   0.934   5.437 -0.2617 -0.1331  0.0204
 1134loPI   GL217466  17.423   0.738   5.457  0.1044  0.1890 -0.1367
 1134loPI   C1A17467  17.385   0.889   5.951 -0.1496  0.0065  0.0859
 1134loPI   C2A17468  17.557   1.063   6.175  0.1822 -0.1156 -0.1083
 1134loPI   C3A17469  17.419   1.459   6.414  0.0246  0.0571 -0.0093
 1134loPI   C4A17470  17.139   1.561   6.836  0.1763 -0.3906  0.1726
 1134loPI   C5A17471  17.055   1.838   7.127  0.0899  0.2851 -0.0730
 1134loPI   C6A17472  17.311   2.121   7.333 -0.1367 -0.1797 -0.0247
 1134loPI   C1B17473  17.768   0.586   5.762 -0.1298 -0.2579  0.3627
 1134loPI   C2B17474  18.049   0.417   6.098  0.1131  0.0897  0.3532
 1134loPI   C3B17475  18.221   0.209   6.515  0.3444  0.0181 -0.1129
 1134loPI   C4B17476  18.516  -0.092   6.766  0.0219  0.0072 -0.2381
 1135loPI    C117477  13.759   7.161   5.532 -0.1521  0.0489 -0.0864
 1135loPI    C217478  13.829   7.544   5.624 -0.0812 -0.0136  0.1267
 1135loPI    C317479  13.833   7.426   5.241  0.2037  0.1385  0.0801
 1135loPI   PO417480  13.576   7.100   5.588 -0.2575  0.0854  0.3248
 1135loPI   GL117481  13.433   7.123   5.990 -0.1676  0.1803  0.0866
 1135loPI   GL217482  13.693   7.280   6.088 -0.0454  0.3172  0.2826
 1135loPI   C1A17483  13.310   7.047   6.500 -0.1782 -0.3183  0.3004
 1135loPI   C2A17484  13.460   7.113   6.945  0.2023  0.0502  0.0967
 1135loPI   C3A17485  13.704   7.274   7.286 -0.3778 -0.3609  0.0957
 1135loPI   C4A17486  13.892   7.551   7.504  0.0770 -0.1866  0.0305
 1135loPI   C5A17487  14.064   7.793   7.881  0.0279  0.1503 -0.0694
 1135loPI   C6A17488  14.214   8.244   7.922 -0.0767 -0.2305 -0.2230
 1135loPI   C1B17489  13.978   7.281   6.456  0.0084  0.2452 -0.1323
 1135loPI   C2B17490  14.159   7.587   6.840 -0.0324  0.1460  0.1264
 1135loPI   C3B17491  14.328   7.589   7.232  0.0273  0.1589  0.0509
 1135loPI   C4B17492  14.376   7.464   7.680 -0.1103  0.0441 -0.1727
 1136loPI    C117493   0.639   6.824   5.107 -0.0555 -0.1571  0.3437
 1136loPI    C217494   0.518   7.042   4.795  0.2500 -0.2387  0.1637
 1136loPI    C317495   0.261   6.954   5.089  0.0362  0.0826  0.0789
 1136loPI   PO417496   0.894   6.971   5.135 -0.0157 -0.2168 -0.0737
 1136loPI   GL117497   1.021   7.116   5.463  0.1048  0.2032 -0.2345
 1136loPI   GL217498   1.149   7.427   5.409 -0.0033 -0.0817 -0.1314
 1136loPI   C1A17499   0.950   7.038   5.920 -0.1166  0.1759  0.0661
 1136loPI   C2A17500   0.887   7.118   6.358  0.0784  0.3627 -0.1307
 1136loPI   C3A17501   0.779   7.054   6.802 -0.0544 -0.0609 -0.1617
 1136loPI   C4A17502   0.792   6.733   7.109  0.0880 -0.3139 -0.0061
 1136loPI   C5A17503   0.474   6.691   7.322 -0.0311  0.3403  0.2115
 1136loPI   C6A17504   0.375   6.516   7.727 -0.0477  0.0134  0.0919
 1136loPI   C1B17505   1.232   7.557   5.744 -0.0015  0.2854  0.0133
 1136loPI   C2B17506   1.279   7.510   6.217  0.0575  0.0789  0.2831
 1136loPI   C3B17507   1.202   7.406   6.586 -0.1643  0.0022  0.2959
 1136loPI   C4B17508   1.237   7.431   6.978 -0.1625  0.5770  0.1030
 1137loPI    C117509   8.389   3.023   5.078 -0.1773 -0.0705 -0.1794
 1137loPI    C217510   8.327   3.409   4.995 -0.1515 -0.0435 -0.0743
 1137loPI    C317511   8.639   3.300   5.220 -0.2823 -0.1054  0.0791
 1137loPI   PO417512   8.140   2.910   5.060 -0.2379  0.0746 -0.3483
 1137loPI   GL117513   8.022   2.819   5.452  0.0769  0.2124  0.2586
 1137loPI   GL217514   8.360   2.849   5.583 -0.1957  0.2774 -0.0060
 1137loPI   C1A17515   8.031   2.660   5.923  0.5899  0.1601 -0.0598
 1137loPI   C2A17516   7.612   2.723   6.228  0.2977 -0.1755  0.0362
 1137loPI   C3A17517   7.433   2.826   6.628 -0.4590 -0.0501 -0.3572
 1137loPI   C4A17518   7.446   3.086   6.957  0.2070 -0.0219  0.0677
 1137loPI   C5A17519   7.426   3.279   7.298  0.0066  0.0278  0.0041
 1137loPI   C6A17520   7.428   3.696   7.637  0.1053 -0.1280  0.3315
 1137loPI   C1B17521   8.240   3.106   5.985 -0.0390 -0.1187  0.0322
 1137loPI   C2B17522   8.270   3.419   6.322 -0.0543 -0.0057 -0.0263
 1137loPI   C3B17523   8.266   3.456   6.645  0.2138  0.2693 -0.1060
 1137loPI   C4B17524   8.250   3.734   7.085  0.0572  0.1488  0.2009
 1138loPI    C117525  11.114  12.503   5.321 -0.3621  0.0761  0.0487
 1138loPI    C217526  10.972  12.844   5.475 -0.1702  0.2111 -0.0707
 1138loPI    C317527  10.989  12.794   5.078  0.0926  0.1891 -0.0590
 1138loPI   PO417528  10.941  12.338   5.509  0.3121 -0.1764 -0.2042
 1138loPI   GL117529  10.827  12.346   5.926 -0.0786  0.0664  0.1428
 1138loPI   GL217530  10.718  12.673   5.978  0.0787  0.0725 -0.1346
 1138loPI   C1A17531  10.782  12.133   6.289  0.0282 -0.1306  0.0937
 1138loPI   C2A17532  10.988  12.174   6.657  0.2167 -0.1746 -0.1737
 1138loPI   C3A17533  11.028  11.863   7.031  0.0595  0.1760  0.0973
 1138loPI   C4A17534  10.802  11.702   7.316  0.1555 -0.0364 -0.1878
 1138loPI   C5A17535  10.645  11.363   7.503 -0.0373 -0.0518  0.0522
 1138loPI   C6A17536  10.319  11.137   7.791  0.1081 -0.3582  0.2389
 1138loPI   C1B17537  10.561  12.541   6.408 -0.1251 -0.1792  0.2009
 1138loPI   C2B17538  10.403  12.442   6.823  0.2518  0.0402 -0.1958
 1138loPI   C3B17539  10.147  12.597   7.244 -0.0108  0.0059 -0.2093
 1138loPI   C4B17540   9.955  12.864   7.409  0.1758 -0.0558  0.2300
 1139loPI    C117541  11.995  12.395   5.239 -0.0814  0.1274  0.0101
 1139loPI    C217542  11.643  12.318   5.065  0.0416 -0.2748 -0.0711
 1139loPI    C317543  11.973  12.353   4.841  0.0462  0.1831 -0.0033
 1139loPI   PO417544  11.981  12.197   5.471 -0.0366  0.2610  0.2291
 1139loPI   GL117545  11.963  12.187   5.843 -0.2226 -0.1021  0.1027
 1139loPI   GL217546  12.206  12.056   5.916 -0.0304  0.1897 -0.0391
 1139loPI   C1A17547  11.666  12.056   6.187  0.1143 -0.0499 -0.0523
 1139loPI   C2A17548  11.501  11.971   6.580 -0.1573  0.1129 -0.1385
 1139loPI   C3A17549  11.603  11.909   6.986  0.0316 -0.0416  0.1795
 1139loPI   C4A17550  11.429  11.797   7.314 -0.2539  0.3756 -0.0366
 1139loPI   C5A17551  11.263  11.786   7.728  0.1432  0.0131  0.1987
 1139loPI   C6A17552  11.120  12.036   8.116  0.2922 -0.2497 -0.2133
 1139loPI   C1B17553  12.283  12.248   6.179 -0.0283  0.0792 -0.1702
 1139loPI   C2B17554  12.381  12.614   6.466  0.0169 -0.0550  0.3362
 1139loPI   C3B17555  12.311  12.642   6.908 -0.0822 -0.0204 -0.1202
 1139loPI   C4B17556  12.171  12.531   7.266  0.2363  0.2644 -0.2398
 1140loPI    C117557  16.076   7.879   5.125  0.0165  0.0093 -0.0702
 1140loPI    C217558  16.000   7.963   4.742  0.2340 -0.0617 -0.1305
 1140loPI    C317559  16.378   7.942   4.871  0.1627 -0.0847  0.0780
 1140loPI   PO417560  15.880   8.103   5.288 -0.0635 -0.1149  0.1696
 1140loPI   GL117561  15.755   7.970   5.641 -0.0911  0.1252  0.1320
 1140loPI   GL217562  15.655   8.333   5.802 -0.3720 -0.0424  0.0421
 1140loPI   C1A17563  15.680   7.844   6.021  0.0481  0.1615 -0.0915
 1140loPI   C2A17564  15.574   7.930   6.435 -0.2060 -0.0775 -0.2092
 1140loPI   C3A17565  15.764   8.020   6.814 -0.2374 -0.0670 -0.2247
 1140loPI   C4A17566  16.110   7.986   6.925 -0.3368 -0.2816 -0.0364
 1140loPI   C5A17567  16.250   7.786   7.306 -0.3779 -0.0020  0.0747
 1140loPI   C6A17568  16.544   7.551   7.526 -0.0404  0.0054 -0.2507
 1140loPI   C1B17569  15.653   8.323   6.180  0.4276  0.0453 -0.2538
 1140loPI   C2B17570  15.599   8.400   6.604 -0.0097 -0.0129  0.0065
 1140loPI   C3B17571  15.479   8.407   7.052  0.1040 -0.1953  0.0386
 1140loPI   C4B17572  15.442   8.366   7.563  0.0268 -0.2482 -0.0170
 1141loPI    C117573   7.451  10.487   5.014  0.1102 -0.0892  0.0190
 1141loPI    C217574   7.226  10.204   4.841  0.0246 -0.0341  0.0397
 1141loPI    C317575   7.164  10.590   4.755  0.1389 -0.0210  0.0142
 1141loPI   PO417576   7.449  10.530   5.420  0.0208 -0.2787  0.1098
 1141loPI   GL117577   7.295  10.888   5.668  0.2658  0.0085  0.2013
 1141loPI   GL217578   7.652  11.002   5.717 -0.2363  0.1319 -0.0044
 1141loPI   C1A17579   7.319  10.836   6.101 -0.1615  0.3030  0.1234
 1141loPI   C2A17580   7.311  10.662   6.582  0.0120  0.3073  0.1251
 1141loPI   C3A17581   7.069  10.596   6.958  0.1520  0.1593  0.0926
 1141loPI   C4A17582   7.067  10.642   7.299 -0.0014  0.1668  0.0830
 1141loPI   C5A17583   7.422  10.837   7.604  0.3183  0.1202 -0.0586
 1141loPI   C6A17584   7.709  11.235   7.769  0.2676 -0.1851 -0.2351
 1141loPI   C1B17585   7.669  11.271   6.139 -0.0327 -0.0511 -0.0851
 1141loPI   C2B17586   7.440  11.243   6.542  0.0772 -0.1044  0.0440
 1141loPI   C3B17587   7.416  11.111   6.947  0.0120  0.0727 -0.3127
 1141loPI   C4B17588   7.405  11.315   7.411 -0.3405 -0.0007  0.0082
 1142loPI    C117589   7.188  17.052   5.696  0.2213 -0.2882  0.0308
 1142loPI    C217590   6.899  17.212   5.471  0.3578  0.1041  0.1270
 1142loPI    C317591   6.871  16.831   5.589  0.1792 -0.0452 -0.3681
 1142loPI   PO417592   7.192  17.328   5.866  0.1849  0.2219  0.1122
 1142loPI   GL117593   7.157  17.339   6.221 -0.1281  0.2500  0.0264
 1142loPI   GL217594   7.400  17.632   6.213  0.0313  0.0912 -0.1444
 1142loPI   C1A17595   6.889  17.344   6.644 -0.1841 -0.2105  0.1157
 1142loPI   C2A17596   6.935  17.412   6.979  0.1298 -0.0403 -0.1218
 1142loPI   C3A17597   6.908  17.322   7.398  0.0618 -0.0443 -0.1409
 1142loPI   C4A17598   7.028  17.296   7.873 -0.1138 -0.1635  0.3996
 1142loPI   C5A17599   7.569  17.269   8.026 -0.0032  0.0548 -0.0833
 1142loPI   C6A17600   8.077  17.221   8.053  0.4529 -0.0622 -0.0300
 1142loPI   C1B17601   7.298  17.667   6.787 -0.0077 -0.1211  0.3918
 1142loPI   C2B17602   7.259  17.661   7.306 -0.1144 -0.2632 -0.0223
 1142loPI   C3B17603   7.309  17.676   7.707 -0.0653 -0.0514  0.0548
 1142loPI   C4B17604   7.439  17.930   8.073  0.2121 -0.0805 -0.1504
 1143loPI    C117605  10.021  16.146   5.693 -0.0181  0.1280 -0.0449
 1143loPI    C217606   9.638  16.152   5.578  0.0168  0.0018 -0.1711
 1143loPI    C317607   9.927  16.091   5.308  0.1160 -0.0541 -0.0532
 1143loPI   PO417608   9.990  16.002   5.873  0.1155 -0.1771 -0.0164
 1143loPI   GL117609   9.871  16.026   6.248 -0.1755  0.0352 -0.1093
 1143loPI   GL217610   9.735  16.425   6.372 -0.0020 -0.1670  0.3181
 1143loPI   C1A17611   9.766  15.925   6.674 -0.0917 -0.0945  0.3309
 1143loPI   C2A17612   9.616  15.806   7.003  0.0123 -0.1196  0.1293
 1143loPI   C3A17613   9.616  15.665   7.467  0.4555 -0.3797  0.0595
 1143loPI   C4A17614   9.675  15.281   7.813  0.0441  0.2171  0.2666
 1143loPI   C5A17615   9.437  14.801   7.750 -0.0988  0.1045 -0.4962
 1143loPI   C6A17616   9.662  14.545   8.145  0.0357 -0.4135  0.0646
 1143loPI   C1B17617   9.728  16.385   6.757  0.0323 -0.1828  0.0849
 1143loPI   C2B17618   9.616  16.323   7.129 -0.0230 -0.2724  0.2692
 1143loPI   C3B17619   9.816  16.271   7.600 -0.1589  0.0005 -0.3702
 1143loPI   C4B17620   9.894  16.489   7.941  0.1589  0.1567 -0.0784
 1144loPI    C117621   0.330   6.307   5.113  0.1899 -0.1672  0.0752
 1144loPI    C217622   0.404   6.541   4.797  0.2260 -0.1772  0.0761
 1144loPI    C317623   0.159   6.227   4.761  0.0223 -0.0256  0.1234
 1144loPI   PO417624   0.247   6.460   5.272  0.0023 -0.1336  0.0645
 1144loPI   GL117625  -0.015   6.316   5.560  0.0960 -0.1903 -0.2151
 1144loPI   GL217626   0.199   5.999   5.459 -0.3455  0.0392 -0.0640
 1144loPI   C1A17627  -0.146   6.491   5.921 -0.0640 -0.2118 -0.1997
 1144loPI   C2A17628  -0.023   6.731   6.225 -0.1258 -0.0357 -0.0611
 1144loPI   C3A17629  -0.052   6.902   6.697  0.0153  0.3008  0.2632
 1144loPI   C4A17630  -0.253   6.846   7.118 -0.2457 -0.2193  0.0662
 1144loPI   C5A17631  -0.049   6.816   7.459  0.2263 -0.2574  0.1318
 1144loPI   C6A17632  -0.071   6.550   7.821 -0.1002 -0.1096 -0.0545
 1144loPI   C1B17633   0.177   5.905   5.797 -0.1719  0.3048  0.2736
 1144loPI   C2B17634   0.427   5.748   6.116 -0.0255 -0.1489 -0.1489
 1144loPI   C3B17635   0.636   5.480   6.448 -0.0751  0.1933  0.0995
 1144loPI   C4B17636   0.924   5.551   6.773  0.0464 -0.1003  0.0887
 1145loPI    C117637   3.974   2.289   5.094  0.0747  0.1506 -0.0944
 1145loPI    C217638   4.129   2.271   5.462 -0.0414  0.3026 -0.0372
 1145loPI    C317639   4.280   2.043   5.170 -0.1487 -0.0499  0.1772
 1145loPI   PO417640   3.971   2.560   5.073  0.2890 -0.2801  0.0974
 1145loPI   GL117641   4.175   2.777   5.315 -0.0646 -0.2053  0.2966
 1145loPI   GL217642   4.453   2.904   5.399  0.4174  0.0100  0.1463
 1145loPI   C1A17643   4.286   2.876   5.871 -0.2201  0.1576 -0.0297
 1145loPI   C2A17644   4.340   2.773   6.424  0.1562  0.1182  0.1080
 1145loPI   C3A17645   4.290   2.792   6.748 -0.1283 -0.5723  0.2783
 1145loPI   C4A17646   4.407   2.791   7.203 -0.0696 -0.3142  0.0836
 1145loPI   C5A17647   4.642   2.515   7.491 -0.1292  0.0017  0.0466
 1145loPI   C6A17648   4.913   2.240   7.530 -0.0019 -0.2853 -0.2526
 1145loPI   C1B17649   4.714   2.718   5.707  0.0236 -0.1254 -0.1394
 1145loPI   C2B17650   4.790   2.663   6.094  0.0641  0.0044  0.0835
 1145loPI   C3B17651   4.786   2.655   6.472 -0.0431 -0.2905  0.0049
 1145loPI   C4B17652   4.797   2.800   6.914  0.1398 -0.2236 -0.0650
 1146loPI    C117653   8.771   9.320   5.231 -0.0688 -0.0901  0.0516
 1146loPI    C217654   9.062   9.537   5.061 -0.1438  0.0785  0.1366
 1146loPI    C317655   8.707   9.704   5.139 -0.1621 -0.0407  0.3154
 1146loPI   PO417656   8.839   9.240   5.460  0.1148 -0.0689 -0.0255
 1146loPI   GL117657   8.510   9.033   5.785 -0.2886 -0.0870  0.2235
 1146loPI   GL217658   8.795   8.851   5.775 -0.0511  0.0821 -0.1781
 1146loPI   C1A17659   8.409   9.200   6.132 -0.2304  0.1774 -0.3116
 1146loPI   C2A17660   8.512   9.295   6.491 -0.0628 -0.0776  0.0152
 1146loPI   C3A17661   8.418   9.356   6.884 -0.2921 -0.1118 -0.1940
 1146loPI   C4A17662   8.650   9.443   7.250  0.0031  0.0954 -0.1627
 1146loPI   C5A17663   8.736   9.637   7.679  0.0159 -0.4434 -0.5034
 1146loPI   C6A17664   8.648  10.002   7.804 -0.0100  0.0503 -0.0352
 1146loPI   C1B17665   8.630   8.529   6.132 -0.5159 -0.0319 -0.2979
 1146loPI   C2B17666   8.643   8.311   6.616  0.0516 -0.0913  0.2958
 1146loPI   C3B17667   8.571   8.299   7.033  0.0777 -0.2512  0.0362
 1146loPI   C4B17668   8.430   7.977   7.443  0.3146 -0.0931 -0.2042
 1147loPI    C117669  17.187   7.956   5.291  0.0882  0.0611 -0.2200
 1147loPI    C217670  16.940   7.727   5.075  0.1664 -0.2299 -0.0072
 1147loPI    C317671  17.328   7.635   5.099  0.2153 -0.0242  0.0129
 1147loPI   PO417672  17.209   7.930   5.663  0.2515  0.0698  0.0025
 1147loPI   GL117673  17.091   8.195   5.972 -0.0884  0.5009  0.1305
 1147loPI   GL217674  16.749   8.086   5.896 -0.3079  0.1729 -0.1077
 1147loPI   C1A17675  17.125   8.078   6.282  0.1569 -0.2748 -0.1347
 1147loPI   C2A17676  17.400   8.294   6.534 -0.0154  0.0910 -0.1356
 1147loPI   C3A17677  17.536   8.180   6.927 -0.1056 -0.1344  0.1192
 1147loPI   C4A17678  17.595   8.332   7.275  0.1127 -0.0806  0.1051
 1147loPI   C5A17679  17.689   8.368   7.599 -0.1197 -0.0836 -0.0603
 1147loPI   C6A17680  17.894   8.348   7.879 -0.0923 -0.3057  0.1797
 1147loPI   C1B17681  16.628   8.251   6.276 -0.2472  0.1185 -0.2830
 1147loPI   C2B17682  16.856   8.369   6.603  0.4579 -0.1754  0.1063
 1147loPI   C3B17683  16.950   8.591   7.065 -0.0326 -0.2509 -0.0013
 1147loPI   C4B17684  17.132   8.490   7.402  0.2181 -0.2242 -0.0643
 1148loPI    C117685  14.994   4.454   4.898  0.1052 -0.0535 -0.0557
 1148loPI    C217686  14.722   4.200   4.751  0.1367 -0.0431 -0.1324
 1148loPI    C317687  15.111   4.109   4.733  0.1472  0.0034 -0.1456
 1148loPI   PO417688  14.949   4.450   5.205 -0.1030  0.1267 -0.0451
 1148loPI   GL117689  14.928   4.299   5.597 -0.1266  0.2900  0.2891
 1148loPI   GL217690  14.851   4.029   5.677 -0.1152 -0.1908  0.1400
 1148loPI   C1A17691  14.690   4.437   5.954 -0.3027 -0.0156  0.0225
 1148loPI   C2A17692  14.485   4.570   6.340  0.0411 -0.1350 -0.0539
 1148loPI   C3A17693  14.374   4.507   6.705 -0.1620  0.1657  0.0337
 1148loPI   C4A17694  14.240   4.529   7.262  0.1771  0.0047  0.2224
 1148loPI   C5A17695  14.003   4.459   7.573  0.3149 -0.3556 -0.1766
 1148loPI   C6A17696  14.018   4.422   8.134  0.1108  0.4298 -0.1348
 1148loPI   C1B17697  14.766   4.004   6.028  0.0114  0.1351  0.0978
 1148loPI   C2B17698  14.700   4.077   6.448 -0.0431  0.1235  0.0387
 1148loPI   C3B17699  14.720   4.091   6.796  0.0619 -0.1548 -0.0821
 1148loPI   C4B17700  14.597   4.107   7.219 -0.0990 -0.0353 -0.0996
 1149loPI    C117701  10.948   6.439   5.397 -0.0053  0.0336  0.1069
 1149loPI    C217702  11.155   6.113   5.290 -0.0197 -0.0063  0.2000
 1149loPI    C317703  11.275   6.475   5.169  0.1032 -0.0294  0.2510
 1149loPI   PO417704  10.884   6.358   5.603 -0.0617 -0.0412  0.1634
 1149loPI   GL117705  10.985   6.447   6.023  0.0968 -0.1380  0.2778
 1149loPI   GL217706  11.154   6.681   6.076 -0.0657 -0.0146 -0.0132
 1149loPI   C1A17707  11.050   6.311   6.460  0.1930 -0.0542 -0.2712
 1149loPI   C2A17708  10.981   6.382   6.874  0.1168  0.0190 -0.4077
 1149loPI   C3A17709  11.145   6.417   7.180 -0.0132  0.3385  0.0978
 1149loPI   C4A17710  11.163   6.399   7.599  0.0229  0.3248 -0.1156
 1149loPI   C5A17711  11.503   6.309   7.707 -0.2134  0.0061  0.4042
 1149loPI   C6A17712  11.945   6.339   7.842  0.1215 -0.0267 -0.0853
 1149loPI   C1B17713  11.381   6.772   6.511  0.1432  0.2381  0.2452
 1149loPI   C2B17714  11.473   6.751   6.991 -0.2508  0.0577  0.1730
 1149loPI   C3B17715  11.348   6.809   7.379 -0.0046 -0.0319 -0.1625
 1149loPI   C4B17716  11.320   6.916   7.869 -0.0272 -0.4267  0.1895
 1150loPI    C117717  11.693   9.419   5.002 -0.1645  0.0757 -0.2274
 1150loPI    C217718  11.335   9.505   4.845 -0.1828 -0.0413 -0.2511
 1150loPI    C317719  11.476   9.132   4.828 -0.3113 -0.1213  0.2645
 1150loPI   PO417720  11.678   9.570   5.314  0.0734 -0.4272  0.2962
 1150loPI   GL117721  11.754   9.422   5.721  0.0443 -0.1762  0.1407
 1150loPI   GL217722  11.649   9.126   5.884  0.3371 -0.0211  0.2761
 1150loPI   C1A17723  11.878   9.520   6.184  0.1285  0.0954  0.2222
 1150loPI   C2A17724  11.829   9.526   6.547  0.0767  0.2336  0.2799
 1150loPI   C3A17725  11.791   9.504   7.058 -0.1646 -0.2655 -0.1411
 1150loPI   C4A17726  11.688   9.214   7.340 -0.1311 -0.3080  0.1103
 1150loPI   C5A17727  11.382   9.144   7.709  0.0917  0.1772  0.0325
 1150loPI   C6A17728  11.035   9.356   7.991  0.3711 -0.1581  0.1070
 1150loPI   C1B17729  11.543   9.203   6.313 -0.0939 -0.0390 -0.1092
 1150loPI   C2B17730  11.530   9.100   6.740  0.2735  0.2643  0.1273
 1150loPI   C3B17731  11.263   9.109   7.111  0.0016 -0.3138 -0.0299
 1150loPI   C4B17732  10.937   9.403   7.466 -0.1638  0.2467  0.1263
 1151loPI    C117733   6.490  13.901   4.987 -0.1173 -0.1163 -0.0912
 1151loPI    C217734   6.351  14.144   4.701  0.0494  0.0251 -0.0536
 1151loPI    C317735   6.743  14.066   4.725  0.0213 -0.0835  0.0617
 1151loPI   PO417736   6.450  13.992   5.204 -0.0654 -0.1649  0.0422
 1151loPI   GL117737   6.460  13.951   5.597 -0.2189  0.1013 -0.0262
 1151loPI   GL217738   6.515  13.662   5.668  0.1486 -0.1910  0.2334
 1151loPI   C1A17739   6.606  14.129   5.947  0.0680  0.2322  0.0743
 1151loPI   C2A17740   6.599  14.132   6.372 -0.0721 -0.2692  0.2678
 1151loPI   C3A17741   6.666  14.196   6.789 -0.0964  0.0497 -0.2549
 1151loPI   C4A17742   6.907  14.050   7.069 -0.1918 -0.0850 -0.0091
 1151loPI   C5A17743   6.976  13.710   7.217  0.0215  0.1152  0.0418
 1151loPI   C6A17744   6.751  13.614   7.638  0.1901 -0.2661  0.2549
 1151loPI   C1B17745   6.547  13.663   6.140  0.2136  0.0708  0.0019
 1151loPI   C2B17746   6.535  13.657   6.526 -0.0446 -0.1461  0.0648
 1151loPI   C3B17747   6.471  13.730   6.933 -0.3699 -0.2798 -0.1197
 1151loPI   C4B17748   6.490  13.907   7.311 -0.1741  0.1179 -0.2917
 1152loPI    C117749  12.424  10.694   5.216  0.1421  0.1108  0.0123
 1152loPI    C217750  12.437  10.950   4.909  0.4426 -0.0491 -0.1123
 1152loPI    C317751  12.500  10.560   4.847 -0.2682 -0.2020  0.0338
 1152loPI   PO417752  12.161  10.762   5.350 -0.0308 -0.0311 -0.0410
 1152loPI   GL117753  11.956  10.479   5.534 -0.0954 -0.0995 -0.2197
 1152loPI   GL217754  11.796  10.565   5.744  0.0313 -0.0696 -0.1640
 1152loPI   C1A17755  12.190  10.412   6.014  0.3294 -0.1105 -0.1743
 1152loPI   C2A17756  12.161  10.399   6.481  0.0938 -0.0539 -0.3905
 1152loPI   C3A17757  12.029  10.345   6.862 -0.1103 -0.1866  0.0890
 1152loPI   C4A17758  12.078  10.296   7.393 -0.1819 -0.2751  0.2554
 1152loPI   C5A17759  12.179  10.256   7.770 -0.1848 -0.3700  0.1022
 1152loPI   C6A17760  12.160  10.007   8.157 -0.0058 -0.0666  0.1609
 1152loPI   C1B17761  11.735  10.533   6.179 -0.2754  0.1210  0.3867
 1152loPI   C2B17762  11.561  10.516   6.632 -0.1450 -0.0999  0.1288
 1152loPI   C3B17763  11.476  10.410   7.057  0.2145 -0.1287  0.0891
 1152loPI   C4B17764  11.610  10.467   7.428 -0.1073 -0.0421 -0.1661
 1153loPI    C117765   0.133  13.857   4.658 -0.1774 -0.1760  0.2358
 1153loPI    C217766   0.505  13.806   4.521 -0.2197  0.2815 -0.0701
 1153loPI    C317767   0.252  13.497   4.530  0.0558  0.0473 -0.1978
 1153loPI   PO417768   0.103  13.974   4.866 -0.0228  0.1002 -0.1156
 1153loPI   GL117769   0.069  13.991   5.225 -0.0541 -0.2196 -0.0383
 1153loPI   GL217770  -0.188  14.185   5.284  0.0527 -0.0092  0.1123
 1153loPI   C1A17771   0.334  14.028   5.652  0.0824  0.0513 -0.0568
 1153loPI   C2A17772   0.228  14.014   6.080 -0.1082 -0.0722  0.4350
 1153loPI   C3A17773   0.247  14.016   6.483  0.2444 -0.1387  0.0198
 1153loPI   C4A17774   0.327  14.298   6.849 -0.0077  0.4398  0.0797
 1153loPI   C5A17775   0.291  14.157   7.407 -0.1382 -0.1179 -0.1174
 1153loPI   C6A17776   0.330  14.449   7.826 -0.0441  0.1826 -0.0409
 1153loPI   C1B17777   0.001  14.449   5.677 -0.0735  0.0195 -0.1156
 1153loPI   C2B17778  -0.052  14.429   6.084 -0.1794 -0.2739 -0.0929
 1153loPI   C3B17779  -0.057  14.406   6.542  0.1585 -0.1021 -0.1242
 1153loPI   C4B17780  -0.138  14.369   7.045 -0.1986  0.3531 -0.3129
 1154loPI    C117781   6.619   4.680   5.205 -0.1651 -0.0454  0.0419
 1154loPI    C217782   6.556   4.303   5.084  0.0425 -0.1655  0.2987
 1154loPI    C317783   6.692   4.576   4.825  0.0766 -0.3148  0.1576
 1154loPI   PO417784   6.777   4.594   5.418  0.1333  0.1491 -0.0684
 1154loPI   GL117785   6.987   4.577   5.762 -0.1862 -0.2680 -0.0027
 1154loPI   GL217786   6.874   4.158   5.777  0.1675  0.0273  0.0610
 1154loPI   C1A17787   6.764   4.685   6.135 -0.1336  0.0518 -0.0523
 1154loPI   C2A17788   6.635   4.650   6.504 -0.0614 -0.1985  0.3711
 1154loPI   C3A17789   6.408   4.847   6.833 -0.3259  0.4015 -0.1675
 1154loPI   C4A17790   6.161   5.175   7.213  0.0897 -0.1110  0.0587
 1154loPI   C5A17791   6.064   5.244   7.660  0.2152  0.0991  0.1186
 1154loPI   C6A17792   5.611   5.329   7.862  0.0433  0.0633  0.1088
 1154loPI   C1B17793   7.153   3.978   6.029 -0.4086 -0.4032 -0.1556
 1154loPI   C2B17794   7.339   3.868   6.378 -0.1443 -0.2416 -0.2123
 1154loPI   C3B17795   7.344   3.924   6.797 -0.0474 -0.1167 -0.0971
 1154loPI   C4B17796   7.286   3.806   7.172 -0.0211  0.2468  0.0052
 1155loPI    C117797  10.588   4.712   5.399 -0.2007 -0.2946 -0.1248
 1155loPI    C217798  10.966   4.594   5.454 -0.1795 -0.1284  0.1021
 1155loPI    C317799  10.824   4.648   5.083  0.1244  0.1416  0.0206
 1155loPI   PO417800  10.443   4.569   5.594 -0.2364 -0.1043  0.4323
 1155loPI   GL117801   9.952   4.504   5.820 -0.1335  0.3103 -0.0206
 1155loPI   GL217802   9.933   4.283   6.077  0.1711 -0.2394 -0.2843
 1155loPI   C1A17803  10.078   4.836   6.010 -0.1098 -0.3262 -0.0161
 1155loPI   C2A17804  10.037   5.088   6.348  0.0034  0.5211 -0.1998
 1155loPI   C3A17805   9.941   5.234   6.755 -0.0041  0.3368  0.1411
 1155loPI   C4A17806  10.002   5.534   7.027 -0.1085  0.4033  0.0536
 1155loPI   C5A17807   9.917   5.718   7.444 -0.2586 -0.3856 -0.1399
 1155loPI   C6A17808   9.834   5.850   7.784 -0.1104 -0.0954  0.2121
 1155loPI   C1B17809   9.825   4.090   6.464 -0.0990  0.0859  0.0364
 1155loPI   C2B17810   9.692   4.007   6.817  0.0318 -0.0060 -0.0884
 1155loPI   C3B17811   9.528   4.104   7.250  0.2230 -0.2315 -0.3524
 1155loPI   C4B17812   9.497   4.370   7.707  0.3693  0.2537  0.1903
 1156loPI    C117813  13.118  17.392   5.549 -0.3376 -0.1070  0.0591
 1156loPI    C217814  12.931  17.708   5.707 -0.0221  0.0264  0.1745
 1156loPI    C317815  13.016  17.701   5.317  0.0844  0.1426  0.1950
 1156loPI   PO417816  12.986  17.200   5.691  0.1770  0.1112 -0.1461
 1156loPI   GL117817  12.997  17.207   6.063 -0.0522 -0.0548 -0.2477
 1156loPI   GL217818  12.704  17.375   6.101 -0.2265  0.0347  0.1260
 1156loPI   C1A17819  13.181  17.497   6.367 -0.2107 -0.1768 -0.2100
 1156loPI   C2A17820  13.243  17.696   6.750 -0.1983 -0.0301  0.1489
 1156loPI   C3A17821  13.276  17.640   7.077  0.0309 -0.1434 -0.3040
 1156loPI   C4A17822  13.107  17.755   7.442  0.2878  0.2085  0.0861
 1156loPI   C5A17823  12.812  17.813   7.654 -0.1865  0.0390  0.2728
 1156loPI   C6A17824  12.530  17.599   7.964 -0.0718 -0.1302 -0.0347
 1156loPI   C1B17825  12.707  17.688   6.499  0.2047 -0.0178  0.1173
 1156loPI   C2B17826  12.381  17.767   6.829  0.0770  0.0878  0.2022
 1156loPI   C3B17827  12.371  18.044   7.259  0.2589 -0.0188  0.2226
 1156loPI   C4B17828  12.292  17.958   7.743  0.0074 -0.1153 -0.1996
 1157loPI    C117829  11.165   0.980   5.077 -0.2303  0.0137 -0.0612
 1157loPI    C217830  11.382   0.645   5.052 -0.1606  0.0659 -0.1614
 1157loPI    C317831  11.205   0.794   4.726 -0.2955  0.0585 -0.0926
 1157loPI   PO417832  11.247   1.062   5.302 -0.1721 -0.0583  0.2096
 1157loPI   GL117833  11.114   0.892   5.732 -0.2705  0.1283 -0.0489
 1157loPI   GL217834  10.934   0.629   5.879  0.1054  0.1346 -0.0692
 1157loPI   C1A17835  11.126   1.104   6.139 -0.2148 -0.1122  0.3329
 1157loPI   C2A17836  11.253   1.118   6.609 -0.2400 -0.0692  0.1903
 1157loPI   C3A17837  11.585   1.327   6.837 -0.0744  0.1788 -0.1198
 1157loPI   C4A17838  11.614   1.538   7.212 -0.0197  0.0515 -0.3780
 1157loPI   C5A17839  11.524   1.466   7.681 -0.2660 -0.1210 -0.1669
 1157loPI   C6A17840  11.630   1.298   8.142 -0.1474 -0.0246  0.2351
 1157loPI   C1B17841  11.053   0.458   6.339 -0.3853  0.3018  0.4005
 1157loPI   C2B17842  11.215   0.264   6.772 -0.0954 -0.2186  0.2193
 1157loPI   C3B17843  11.250   0.124   7.232  0.2409 -0.1722  0.0280
 1157loPI   C4B17844  11.027  -0.039   7.617  0.1345 -0.1507  0.2365
 1158loPI    C117845   1.200   4.046   4.957  0.2768  0.1727 -0.1423
 1158loPI    C217846   1.170   4.389   4.754 -0.1419  0.2005 -0.0425
 1158loPI    C317847   0.878   4.278   5.003  0.1984 -0.0097  0.2733
 1158loPI   PO417848   1.381   4.023   5.111 -0.0303 -0.1491 -0.1724
 1158loPI   GL117849   1.496   3.822   5.422 -0.0776 -0.1156 -0.3420
 1158loPI   GL217850   1.665   4.029   5.720  0.1253  0.0730 -0.0994
 1158loPI   C1A17851   1.208   3.844   5.765 -0.3048 -0.2319 -0.0765
 1158loPI   C2A17852   1.125   4.134   6.033 -0.0502 -0.2956 -0.1641
 1158loPI   C3A17853   1.276   4.197   6.476 -0.0296  0.0826 -0.1095
 1158loPI   C4A17854   1.298   4.222   6.861  0.0335  0.1645  0.1033
 1158loPI   C5A17855   1.611   4.164   7.180 -0.1796 -0.0019 -0.0291
 1158loPI   C6A17856   1.832   4.105   7.591  0.2749 -0.1940  0.0392
 1158loPI   C1B17857   1.559   3.776   6.150 -0.0364 -0.2249  0.2103
 1158loPI   C2B17858   1.827   3.660   6.537  0.0683 -0.0158 -0.0923
 1158loPI   C3B17859   1.830   3.712   6.958  0.2819 -0.2077 -0.0221
 1158loPI   C4B17860   1.428   3.671   7.227  0.1720  0.0606  0.0779
 1159loPI    C117861   0.320  10.696   5.269 -0.1782  0.1665  0.1602
 1159loPI    C217862   0.486  10.865   4.947 -0.0907  0.3252  0.2868
 1159loPI    C317863   0.101  10.759   4.940  0.0495 -0.2035 -0.0693
 1159loPI   PO417864   0.235  10.792   5.535  0.2801 -0.1085  0.2874
 1159loPI   GL117865  -0.062  10.868   5.869  0.1418 -0.0891  0.0131
 1159loPI   GL217866   0.184  11.169   5.860 -0.1148 -0.1559  0.0133
 1159loPI   C1A17867  -0.315  10.675   6.305 -0.1368 -0.0234  0.0268
 1159loPI   C2A17868  -0.175  10.603   6.693 -0.0648 -0.0138 -0.2376
 1159loPI   C3A17869   0.058  10.606   6.857 -0.1929  0.1820  0.5435
 1159loPI   C4A17870   0.329  10.476   7.094  0.0102 -0.2548  0.1044
 1159loPI   C5A17871   0.536  10.166   7.309  0.0683  0.1004 -0.1548
 1159loPI   C6A17872   0.839   9.993   7.630 -0.0374  0.1104  0.4800
 1159loPI   C1B17873   0.441  11.094   6.239 -0.2691 -0.2344  0.0517
 1159loPI   C2B17874   0.845  10.813   6.270  0.3220 -0.1469  0.1342
 1159loPI   C3B17875   1.334  10.886   6.278 -0.1942  0.1227  0.0936
 1159loPI   C4B17876   1.809  11.005   6.299  0.0499 -0.3445 -0.5237
 1160loPI    C117877  13.952   1.731   5.233 -0.0482  0.2886  0.0769
 1160loPI    C217878  13.634   1.499   5.163  0.1642 -0.0149  0.0986
 1160loPI    C317879  13.733   1.786   4.903  0.1651 -0.2506 -0.1655
 1160loPI   PO417880  13.933   1.765   5.478 -0.3088  0.0086 -0.0418
 1160loPI   GL117881  14.140   1.603   5.818 -0.0050  0.0449 -0.1468
 1160loPI   GL217882  14.348   1.924   5.759  0.0918 -0.0872 -0.2503
 1160loPI   C1A17883  13.909   1.507   6.169  0.0407 -0.2213 -0.2063
 1160loPI   C2A17884  13.759   1.328   6.576 -0.2037 -0.1133 -0.3544
 1160loPI   C3A17885  13.947   1.136   6.944 -0.1692  0.0138 -0.4286
 1160loPI   C4A17886  14.396   1.068   7.036 -0.0283  0.0051 -0.2764
 1160loPI   C5A17887  14.700   1.044   7.210 -0.0239  0.2284 -0.0023
 1160loPI   C6A17888  14.953   1.212   7.308  0.3018 -0.0675 -0.2356
 1160loPI   C1B17889  14.367   2.380   5.808 -0.0107  0.2106  0.0821
 1160loPI   C2B17890  14.388   2.539   6.323  0.3277  0.0020  0.0922
 1160loPI   C3B17891  14.676   2.476   6.739 -0.2054 -0.1649  0.0934
 1160loPI   C4B17892  14.842   2.527   7.097 -0.0982  0.1015  0.1467
 1161loPI    C117893   6.293  11.355   5.262  0.0394  0.0890 -0.1879
 1161loPI    C217894   6.365  11.483   4.890 -0.1303  0.1204 -0.2107
 1161loPI    C317895   6.321  11.747   5.187 -0.1358  0.1011 -0.1943
 1161loPI   PO417896   6.486  11.140   5.297  0.2053  0.3301  0.1040
 1161loPI   GL117897   6.699  11.183   5.686  0.0247 -0.1066  0.0266
 1161loPI   GL217898   6.349  11.053   5.834  0.0670 -0.1373  0.0225
 1161loPI   C1A17899   6.718  11.460   5.997 -0.1614  0.0938  0.0671
 1161loPI   C2A17900   7.030  11.551   6.364 -0.1423 -0.0413 -0.1290
 1161loPI   C3A17901   7.154  11.647   6.786 -0.1858 -0.1836  0.2755
 1161loPI   C4A17902   7.037  11.705   7.175  0.1318  0.0302 -0.1221
 1161loPI   C5A17903   6.974  11.434   7.600 -0.2076 -0.2946 -0.0602
 1161loPI   C6A17904   7.117  11.362   8.081  0.0639  0.0268  0.1788
 1161loPI   C1B17905   6.312  11.103   6.301 -0.0604  0.3948 -0.1670
 1161loPI   C2B17906   6.291  10.992   6.721 -0.2781  0.3173 -0.3282
 1161loPI   C3B17907   6.444  10.947   7.200 -0.1099  0.0550 -0.2141
 1161loPI   C4B17908   6.463  11.174   7.487 -0.0049 -0.1147  0.1221
 1162loPI    C117909   8.395   1.466   5.019  0.0703 -0.0325 -0.0212
 1162loPI    C217910   8.773   1.334   5.026  0.1391  0.1676  0.1102
 1162loPI    C317911   8.645   1.559   4.721  0.0607 -0.0845 -0.0457
 1162loPI   PO417912   8.378   1.506   5.282  0.1157  0.0522  0.1525
 1162loPI   GL117913   8.362   1.312   5.771  0.1769 -0.0762 -0.1373
 1162loPI   GL217914   8.099   1.331   5.840  0.0171  0.3734 -0.0094
 1162loPI   C1A17915   8.404   1.126   6.190 -0.1541 -0.0451 -0.2785
 1162loPI   C2A17916   8.324   1.100   6.683  0.2761  0.0633 -0.0061
 1162loPI   C3A17917   8.359   1.082   7.131  0.1548  0.0674 -0.3938
 1162loPI   C4A17918   8.312   1.351   7.543  0.3118 -0.1495  0.1737
 1162loPI   C5A17919   8.219   1.721   7.851 -0.0082  0.0062 -0.0840
 1162loPI   C6A17920   8.694   1.936   8.041  0.2119 -0.1654 -0.1824
 1162loPI   C1B17921   7.896   1.244   6.187  0.5195  0.1058 -0.0616
 1162loPI   C2B17922   7.822   1.276   6.603 -0.0301 -0.1526  0.1196
 1162loPI   C3B17923   7.930   1.304   7.032 -0.1873  0.1027 -0.1372
 1162loPI   C4B17924   7.826   1.220   7.429 -0.2908 -0.0144 -0.0178
 1163loPI    C117925   0.499  10.261   5.059  0.2273  0.3279  0.0821
 1163loPI    C217926   0.667  10.165   4.709  0.0233  0.0238  0.0639
 1163loPI    C317927   0.365  10.428   4.721  0.0853  0.0971  0.0220
 1163loPI   PO417928   0.660  10.285   5.199 -0.0657 -0.1498 -0.2261
 1163loPI   GL117929   0.565  10.371   5.592 -0.3829 -0.1705  0.1809
 1163loPI   GL217930   0.930  10.330   5.643 -0.1630 -0.2489  0.2540
 1163loPI   C1A17931   0.683  10.086   5.940 -0.1833 -0.1057 -0.1209
 1163loPI   C2A17932   0.910  10.027   6.398  0.3931  0.1451 -0.2126
 1163loPI   C3A17933   1.095   9.814   6.738  0.1495 -0.2166  0.0307
 1163loPI   C4A17934   1.320   9.609   7.035  0.0935  0.0807  0.3034
 1163loPI   C5A17935   1.335   9.235   7.324 -0.0227 -0.0889 -0.0429
 1163loPI   C6A17936   1.209   9.123   7.798  0.1305  0.1119 -0.4001
 1163loPI   C1B17937   1.113  10.438   6.078 -0.1001 -0.0227 -0.0436
 1163loPI   C2B17938   1.157  10.467   6.482  0.5493 -0.0489  0.0654
 1163loPI   C3B17939   0.905  10.352   6.794  0.3533  0.0928  0.1793
 1163loPI   C4B17940   1.035  10.113   7.190  0.2341 -0.1693  0.2834
 1164loPI    C117941   9.613   0.729   5.411  0.0698 -0.1473 -0.0142
 1164loPI    C217942   9.903   0.882   5.182  0.1172 -0.1790  0.0247
 1164loPI    C317943   9.576   0.726   5.012  0.0144  0.0721 -0.0124
 1164loPI   PO417944   9.674   0.651   5.608 -0.0228 -0.5248  0.0856
 1164loPI   GL117945   9.808   0.386   5.947 -0.0674 -0.0681 -0.3092
 1164loPI   GL217946   9.503   0.260   5.858 -0.2184  0.2744 -0.1606
 1164loPI   C1A17947   9.818   0.484   6.402 -0.2271 -0.0536  0.0154
 1164loPI   C2A17948   9.717   0.626   6.836  0.0264 -0.0447  0.0560
 1164loPI   C3A17949   9.972   0.654   7.202  0.1768 -0.1709  0.0258
 1164loPI   C4A17950  10.141   0.402   7.604  0.0844 -0.1008  0.0069
 1164loPI   C5A17951   9.963   0.054   7.799  0.1393 -0.3703  0.0277
 1164loPI   C6A17952  10.076  -0.027   8.212  0.3146 -0.0405 -0.1499
 1164loPI   C1B17953   9.391   0.281   6.256 -0.1594  0.0324 -0.0994
 1164loPI   C2B17954   9.367   0.242   6.728  0.1623 -0.2396 -0.3129
 1164loPI   C3B17955   9.607   0.122   6.973 -0.1919  0.4389  0.0472
 1164loPI   C4B17956   9.778   0.100   7.328 -0.0219  0.1952  0.0341
 1165loPI    C117957  18.314   8.608   4.912  0.2547  0.1374 -0.0031
 1165loPI    C217958  18.038   8.549   4.629  0.0373  0.3507  0.1602
 1165loPI    C317959  18.411   8.649   4.527  0.0437  0.1126 -0.0603
 1165loPI   PO417960  18.348   8.374   5.025  0.1326  0.1312  0.1987
 1165loPI   GL117961  18.186   8.207   5.490 -0.2016 -0.2006  0.1163
 1165loPI   GL217962  18.558   8.208   5.580 -0.0426  0.0887  0.0818
 1165loPI   C1A17963  18.172   8.433   5.863 -0.1290 -0.1620 -0.0442
 1165loPI   C2A17964  18.187   8.479   6.286 -0.3290 -0.0650 -0.1222
 1165loPI   C3A17965  18.300   8.463   6.728  0.1437 -0.2736 -0.2599
 1165loPI   C4A17966  18.470   8.518   7.158 -0.0186  0.1731 -0.2326
 1165loPI   C5A17967  18.477   8.675   7.597  0.0392  0.1743 -0.4016
 1165loPI   C6A17968  18.265   8.947   7.752 -0.1059 -0.0825  0.2106
 1165loPI   C1B17969  18.610   8.257   6.008 -0.4158  0.1058 -0.2295
 1165loPI   C2B17970  18.693   8.397   6.429  0.1693 -0.0493 -0.0725
 1165loPI   C3B17971  18.853   8.496   6.827  0.0328 -0.1016 -0.1380
 1165loPI   C4B17972  18.976   8.688   7.236  0.0684 -0.0005  0.1019
 1166loPI    C117973  16.440   7.348   5.015  0.1058 -0.2011  0.0980
 1166loPI    C217974  16.108   7.463   4.825  0.2518 -0.0528 -0.0713
 1166loPI    C317975  16.165   7.077   4.912  0.0123 -0.0723  0.0061
 1166loPI   PO417976  16.489   7.523   5.164 -0.2208  0.2383  0.3611
 1166loPI   GL117977  16.468   7.298   5.636 -0.2941  0.4822 -0.2198
 1166loPI   GL217978  16.715   7.298   5.831 -0.0450 -0.0013 -0.0347
 1166loPI   C1A17979  16.287   7.109   5.908  0.0334  0.1342 -0.0552
 1166loPI   C2A17980  16.337   7.176   6.296  0.0841  0.0248  0.1994
 1166loPI   C3A17981  16.370   7.370   6.788  0.1070 -0.1725 -0.1265
 1166loPI   C4A17982  16.678   7.496   7.071 -0.0310 -0.0048  0.1231
 1166loPI   C5A17983  17.056   7.634   7.355 -0.0543 -0.2832  0.1197
 1166loPI   C6A17984  17.240   7.424   7.761  0.1081 -0.1661  0.1158
 1166loPI   C1B17985  16.874   7.010   6.086  0.1279  0.1497 -0.0511
 1166loPI   C2B17986  16.618   6.836   6.495 -0.0293 -0.0551  0.1590
 1166loPI   C3B17987  16.604   6.904   6.965  0.0420  0.0984 -0.4707
 1166loPI   C4B17988  16.473   6.995   7.347 -0.0568  0.3212 -0.0407
 1167loPI    C117989   1.069   5.913   5.175 -0.0787 -0.1319 -0.1251
 1167loPI    C217990   0.741   5.750   5.335  0.0746 -0.2215  0.1028
 1167loPI    C317991   0.856   5.646   4.967 -0.2317 -0.0805 -0.0362
 1167loPI   PO417992   1.145   6.041   5.412 -0.1551 -0.1846  0.0426
 1167loPI   GL117993   1.418   6.074   5.692  0.2069 -0.1006 -0.0521
 1167loPI   GL217994   1.415   6.385   5.599 -0.2282  0.0663  0.1783
 1167loPI   C1A17995   1.536   6.162   6.110 -0.1332 -0.0113  0.1596
 1167loPI   C2A17996   1.591   6.180   6.611 -0.2504 -0.1337  0.1390
 1167loPI   C3A17997   1.605   6.179   6.932 -0.0804 -0.2156 -0.0761
 1167loPI   C4A17998   1.540   6.101   7.371 -0.0875 -0.2856  0.1276
 1167loPI   C5A17999   1.549   5.697   7.515 -0.0691  0.0844  0.2238
 1167loPI   C6A18000   1.891   5.353   7.657 -0.2934 -0.0142 -0.1803
 1167loPI   C1B18001   1.354   6.608   6.033 -0.0367 -0.0206  0.1565
 1167loPI   C2B18002   1.206   6.745   6.401 -0.0511 -0.0722  0.0735
 1167loPI   C3B18003   1.226   6.595   6.773  0.1025 -0.1868  0.0007
 1167loPI   C4B18004   1.239   6.455   7.156 -0.1291 -0.2950 -0.2844
 1168loPI    C118005   8.509  16.407   5.540 -0.0060  0.1984 -0.0895
 1168loPI    C218006   8.431  16.686   5.264  0.0200  0.0720 -0.2255
 1168loPI    C318007   8.647  16.364   5.167  0.3676  0.2182  0.0426
 1168loPI   PO418008   8.289  16.329   5.580  0.0815 -0.3864  0.2077
 1168loPI   GL118009   8.204  16.026   5.843 -0.1496 -0.2093 -0.3469
 1168loPI   GL218010   8.055  15.765   5.751  0.0854 -0.0131 -0.0561
 1168loPI   C1A18011   8.408  15.982   6.312  0.2009  0.1614 -0.0892
 1168loPI   C2A18012   8.446  16.165   6.765  0.0453 -0.0789 -0.0636
 1168loPI   C3A18013   8.213  16.246   7.210  0.3070 -0.1778  0.1314
 1168loPI   C4A18014   8.383  16.296   7.601 -0.2137  0.0757 -0.0296
 1168loPI   C5A18015   8.667  16.426   7.853 -0.0164  0.0258 -0.0251
 1168loPI   C6A18016   8.984  16.516   8.160  0.0544 -0.1403 -0.0222
 1168loPI   C1B18017   8.018  15.650   6.107  0.1748  0.0026 -0.0879
 1168loPI   C2B18018   7.985  15.645   6.545 -0.0863  0.0211 -0.2727
 1168loPI   C3B18019   7.961  15.789   6.956 -0.1300 -0.1831  0.2537
 1168loPI   C4B18020   7.839  15.706   7.374  0.1659 -0.0629  0.3792
 1169loPI    C118021   0.972   4.758   4.961  0.2616  0.0737  0.0849
 1169loPI    C218022   0.815   5.121   5.020 -0.0577 -0.0516  0.0261
 1169loPI    C318023   0.857   4.980   4.648 -0.2995 -0.2283  0.0631
 1169loPI   PO418024   1.241   4.802   5.138 -0.0209 -0.1013 -0.1985
 1169loPI   GL118025   1.400   4.445   5.350  0.1514 -0.2115  0.0612
 1169loPI   GL218026   1.203   4.258   5.498 -0.0024 -0.1680 -0.3215
 1169loPI   C1A18027   1.524   4.622   5.746  0.2535  0.2272  0.0503
 1169loPI   C2A18028   1.492   4.734   6.156  0.0588 -0.1428 -0.1455
 1169loPI   C3A18029   1.429   4.698   6.618  0.0000  0.2431 -0.1099
 1169loPI   C4A18030   1.346   4.688   7.082  0.1730 -0.0204 -0.0919
 1169loPI   C5A18031   1.126   4.880   7.361  0.0984 -0.0472 -0.0153
 1169loPI   C6A18032   0.706   4.940   7.498 -0.0654 -0.0274  0.0116
 1169loPI   C1B18033   1.049   4.578   5.830 -0.1243 -0.0870 -0.2202
 1169loPI   C2B18034   1.030   4.634   6.248  0.0031 -0.0805  0.1671
 1169loPI   C3B18035   0.912   4.558   6.671  0.1920  0.1055 -0.1172
 1169loPI   C4B18036   0.824   4.615   7.074 -0.3461 -0.1596 -0.1320
 1170loPI    C118037   7.919   1.035   5.013  0.0880  0.0578  0.0461
 1170loPI    C218038   7.879   1.425   4.931 -0.0902  0.0187 -0.0577
 1170loPI    C318039   7.825   1.153   4.642  0.1935 -0.0762 -0.0238
 1170loPI   PO418040   7.815   0.903   5.187 -0.0187 -0.0201 -0.0001
 1170loPI   GL118041   7.907   0.804   5.540  0.2769 -0.1152 -0.1025
 1170loPI   GL218042   7.651   0.629   5.692  0.1390 -0.1107  0.1463
 1170loPI   C1A18043   8.053   0.839   5.951  0.0910 -0.0739  0.2240
 1170loPI   C2A18044   8.031   0.804   6.474 -0.0201 -0.0096 -0.0205
 1170loPI   C3A18045   7.866   0.706   6.892 -0.2173  0.4853  0.0814
 1170loPI   C4A18046   7.886   0.744   7.304  0.0509 -0.0154  0.2719
 1170loPI   C5A18047   8.165   0.847   7.670 -0.1409  0.0782  0.0884
 1170loPI   C6A18048   8.477   1.003   7.963  0.0930 -0.1851 -0.2517
 1170loPI   C1B18049   7.620   0.485   6.084 -0.1885 -0.4449  0.1254
 1170loPI   C2B18050   7.588   0.395   6.511  0.1141  0.1640  0.0468
 1170loPI   C3B18051   7.443   0.464   6.939 -0.1591 -0.0988 -0.1333
 1170loPI   C4B18052   7.492   0.439   7.375 -0.0753  0.0068  0.1247
 1171loPI    C118053   0.156  11.184   5.170  0.0733  0.1436  0.1230
 1171loPI    C218054   0.514  11.348   5.096  0.1809 -0.1225  0.0400
 1171loPI    C318055   0.240  11.325   4.805  0.0962  0.0768  0.1022
 1171loPI   PO418056   0.025  11.290   5.402  0.0713  0.2523  0.0050
 1171loPI   GL118057   0.342  11.581   5.570  0.3274  0.3117 -0.0178
 1171loPI   GL218058   0.620  11.313   5.588 -0.3453  0.0237  0.0592
 1171loPI   C1A18059   0.435  11.598   5.961 -0.1736  0.0042 -0.1582
 1171loPI   C2A18060   0.503  11.565   6.421  0.1553 -0.0437 -0.2098
 1171loPI   C3A18061   0.436  11.299   6.650 -0.0488  0.1565 -0.1319
 1171loPI   C4A18062   0.482  11.056   7.056  0.0278 -0.1231 -0.0410
 1171loPI   C5A18063   0.486  10.900   7.470  0.1655 -0.2188 -0.0255
 1171loPI   C6A18064   0.370  10.566   7.645 -0.2535  0.4063 -0.0687
 1171loPI   C1B18065   1.014  11.235   5.981  0.0126  0.1017 -0.2193
 1171loPI   C2B18066   1.063  11.221   6.407  0.1870 -0.0510  0.2568
 1171loPI   C3B18067   1.072  11.309   6.865 -0.1426 -0.0314  0.0372
 1171loPI   C4B18068   1.049  11.150   7.253  0.4286 -0.0205 -0.2672
 1172loPI    C118069   0.789  12.305   4.782  0.2686 -0.2630 -0.2450
 1172loPI    C218070   0.533  12.527   4.570  0.2260  0.1021  0.1735
 1172loPI    C318071   0.921  12.521   4.473  0.1348 -0.1166 -0.2007
 1172loPI   PO418072   0.719  12.414   5.043 -0.5988 -0.1558 -0.2818
 1172loPI   GL118073   0.908  12.307   5.411  0.2347  0.0673 -0.2183
 1172loPI   GL218074   1.096  12.251   5.492  0.0035 -0.0797 -0.1309
 1172loPI   C1A18075   0.827  12.510   5.776  0.0550 -0.2484 -0.0823
 1172loPI   C2A18076   1.003  12.598   6.123 -0.1839  0.0569 -0.0479
 1172loPI   C3A18077   1.059  12.589   6.570 -0.0342  0.1295  0.1051
 1172loPI   C4A18078   1.117  12.617   6.956  0.1416 -0.3311  0.0814
 1172loPI   C5A18079   0.889  12.934   7.239  0.2684  0.1996 -0.0290
 1172loPI   C6A18080   1.064  13.337   7.445 -0.1222 -0.2751 -0.1163
 1172loPI   C1B18081   1.235  12.228   5.891  0.2037 -0.2727  0.1009
 1172loPI   C2B18082   1.363  12.218   6.328 -0.0585 -0.1586 -0.2398
 1172loPI   C3B18083   1.482  12.286   6.819  0.1847  0.1557 -0.2331
 1172loPI   C4B18084   1.452  12.129   7.259  0.1732  0.0120  0.0067
 1173loPI    C118085   4.933   8.493   5.160 -0.3643  0.0908 -0.0665
 1173loPI    C218086   5.176   8.512   4.843 -0.2152  0.2894  0.0574
 1173loPI    C318087   4.830   8.714   4.842 -0.2244  0.2737  0.0134
 1173loPI   PO418088   5.113   8.612   5.378 -0.1903 -0.1257  0.2876
 1173loPI   GL118089   5.142   8.781   5.685 -0.0367  0.1971  0.0732
 1173loPI   GL218090   4.916   8.826   5.894  0.1018  0.2857 -0.1213
 1173loPI   C1A18091   5.323   8.893   6.097  0.0501 -0.0688 -0.0552
 1173loPI   C2A18092   5.445   8.730   6.554 -0.1648 -0.0691  0.0667
 1173loPI   C3A18093   5.429   8.648   6.951  0.1081 -0.1144 -0.0809
 1173loPI   C4A18094   5.499   8.518   7.377 -0.0291 -0.2548 -0.1731
 1173loPI   C5A18095   5.785   8.351   7.730  0.0027 -0.0149 -0.0733
 1173loPI   C6A18096   6.217   8.288   7.859 -0.0348 -0.1141 -0.2465
 1173loPI   C1B18097   4.878   8.693   6.276  0.3078  0.0373  0.0162
 1173loPI   C2B18098   4.900   8.586   6.671 -0.2255 -0.1035  0.0777
 1173loPI   C3B18099   4.870   8.629   7.142  0.1785  0.1256  0.3216
 1173loPI   C4B18100   4.888   8.365   7.414  0.2304  0.0461  0.1708
 1174loPI    C118101   1.058   1.610   4.518 -0.1372  0.0815  0.2262
 1174loPI    C218102   0.683   1.478   4.568 -0.0152 -0.4355 -0.1376
 1174loPI    C318103   0.769   1.727   4.267 -0.1500  0.0927  0.2461
 1174loPI   PO418104   1.101   1.620   4.845 -0.0186 -0.2112  0.1493
 1174loPI   GL118105   1.102   1.884   5.270 -0.1181  0.0698 -0.1834
 1174loPI   GL218106   0.766   1.785   5.277  0.0522  0.2853 -0.2625
 1174loPI   C1A18107   1.248   2.086   5.563  0.3527  0.0923  0.0217
 1174loPI   C2A18108   1.247   2.202   5.965  0.3302  0.2481 -0.1001
 1174loPI   C3A18109   1.559   2.412   6.195 -0.0449 -0.2037 -0.1708
 1174loPI   C4A18110   1.421   2.403   6.653  0.0522  0.0520 -0.1771
 1174loPI   C5A18111   1.356   2.370   7.022  0.1350 -0.0609 -0.0694
 1174loPI   C6A18112   1.212   2.609   7.398  0.1127 -0.0148  0.1287
 1174loPI   C1B18113   0.781   1.482   5.566  0.0498 -0.0489 -0.0679
 1174loPI   C2B18114   0.897   1.302   5.963 -0.1852 -0.0772 -0.2705
 1174loPI   C3B18115   0.894   1.256   6.369 -0.0768 -0.0812  0.0470
 1174loPI   C4B18116   0.841   1.208   6.834 -0.2957  0.0805  0.3510
 1175loPI    C118117   2.286   4.552   4.733 -0.1494  0.1507 -0.2996
 1175loPI    C218118   2.228   4.160   4.681 -0.0045  0.0815  0.0315
 1175loPI    C318119   2.348   4.387   4.374 -0.2240 -0.1048 -0.1970
 1175loPI   PO418120   2.154   4.557   5.043  0.0251 -0.1770 -0.0989
 1175loPI   GL118121   2.099   4.574   5.436 -0.0356  0.3515  0.1228
 1175loPI   GL218122   1.836   4.840   5.371  0.0516 -0.0761  0.2138
 1175loPI   C1A18123   1.991   4.440   5.875 -0.1734  0.1014 -0.0003
 1175loPI   C2A18124   1.764   4.317   6.248  0.1193  0.0768  0.0241
 1175loPI   C3A18125   1.782   4.161   6.671 -0.0922 -0.1982  0.1260
 1175loPI   C4A18126   2.170   4.153   6.981 -0.1759  0.1386  0.1551
 1175loPI   C5A18127   2.369   3.962   7.148 -0.1612 -0.0190  0.1001
 1175loPI   C6A18128   2.374   3.655   7.540 -0.2416 -0.1588  0.0829
 1175loPI   C1B18129   1.913   4.973   5.811  0.0606  0.2638  0.0247
 1175loPI   C2B18130   1.983   4.776   6.222 -0.1509  0.1037  0.0642
 1175loPI   C3B18131   1.929   4.708   6.652 -0.0423  0.0812  0.1251
 1175loPI   C4B18132   1.816   4.582   6.998 -0.0856 -0.1855 -0.0320
 1176loPI    C118133  14.243  13.450   5.349 -0.2179 -0.0831 -0.1760
 1176loPI    C218134  14.320  13.194   5.051  0.0375 -0.1000 -0.0980
 1176loPI    C318135  14.238  13.577   4.970 -0.0947 -0.1492 -0.2003
 1176loPI   PO418136  14.334  13.428   5.599  0.1234  0.2377 -0.2132
 1176loPI   GL118137  14.227  13.330   5.973  0.2985  0.1656  0.0071
 1176loPI   GL218138  13.922  13.314   6.075  0.0300 -0.1459  0.0601
 1176loPI   C1A18139  14.255  13.613   6.378 -0.1732 -0.0110  0.0607
 1176loPI   C2A18140  14.355  13.645   6.747  0.1161 -0.1443 -0.1119
 1176loPI   C3A18141  14.415  13.813   7.169  0.2119 -0.1687  0.0034
 1176loPI   C4A18142  14.468  14.109   7.530  0.2033  0.2519  0.0702
 1176loPI   C5A18143  14.354  14.424   7.839 -0.1025 -0.0004 -0.2306
 1176loPI   C6A18144  14.431  14.654   8.247 -0.0501  0.0755  0.0693
 1176loPI   C1B18145  13.858  12.932   6.400 -0.0666 -0.3421  0.1445
 1176loPI   C2B18146  13.627  12.847   6.716  0.0735 -0.1822 -0.2064
 1176loPI   C3B18147  13.413  12.998   7.137 -0.4936  0.0442  0.0288
 1176loPI   C4B18148  13.230  13.419   7.447 -0.0894  0.1585 -0.1838
 1177loPI    C118149   1.189   3.589   4.839 -0.0603 -0.0043 -0.0962
 1177loPI    C218150   1.447   3.743   4.574 -0.2400  0.1067 -0.2093
 1177loPI    C318151   1.263   3.396   4.496  0.2285 -0.2186  0.0830
 1177loPI   PO418152   1.314   3.488   5.086 -0.0140  0.1437  0.0267
 1177loPI   GL118153   1.453   3.166   5.289 -0.1571 -0.2644  0.2486
 1177loPI   GL218154   1.706   3.299   5.450 -0.0550  0.0009  0.0308
 1177loPI   C1A18155   1.447   2.939   5.711  0.0260  0.1003  0.0401
 1177loPI   C2A18156   1.200   2.766   6.132 -0.2360 -0.0812 -0.2954
 1177loPI   C3A18157   0.969   2.819   6.417 -0.0175 -0.0250 -0.4388
 1177loPI   C4A18158   0.696   2.876   6.728  0.1847 -0.4759  0.0831
 1177loPI   C5A18159   0.283   2.776   6.893  0.0806  0.1456 -0.0393
 1177loPI   C6A18160  -0.059   2.698   7.270  0.0578 -0.1141  0.0723
 1177loPI   C1B18161   1.540   3.370   5.869 -0.0466 -0.2339 -0.0391
 1177loPI   C2B18162   1.286   3.314   6.315 -0.2565  0.1319  0.1533
 1177loPI   C3B18163   1.160   3.229   6.687  0.1076  0.1775  0.0500
 1177loPI   C4B18164   1.573   3.306   6.856 -0.0976 -0.0710 -0.0904
 1178loPI    C118165  12.475  14.313   5.174  0.1662  0.2733 -0.0144
 1178loPI    C218166  12.694  14.171   4.871  0.2244  0.1621  0.0791
 1178loPI    C318167  12.315  14.051   4.917  0.2743  0.0328  0.1595
 1178loPI   PO418168  12.655  14.275   5.387  0.2590 -0.1926  0.4762
 1178loPI   GL118169  12.608  14.334   5.855 -0.1094  0.0863  0.1028
 1178loPI   GL218170  12.903  14.365   6.070  0.1861 -0.1710 -0.2879
 1178loPI   C1A18171  12.488  14.468   6.365  0.0210 -0.0536  0.2102
 1178loPI   C2A18172  12.505  14.692   6.686  0.0073 -0.0141  0.1488
 1178loPI   C3A18173  12.339  14.593   7.164 -0.2079 -0.0651  0.0301
 1178loPI   C4A18174  12.152  14.184   7.309 -0.0176  0.2441  0.1304
 1178loPI   C5A18175  11.993  13.914   7.641  0.0701  0.2564 -0.0429
 1178loPI   C6A18176  12.218  13.812   8.012  0.0125  0.0140  0.1887
 1178loPI   C1B18177  13.161  14.242   6.421 -0.4347  0.0809 -0.3458
 1178loPI   C2B18178  13.490  14.185   6.755 -0.1894  0.2646 -0.1443
 1178loPI   C3B18179  13.568  14.135   7.141  0.0948  0.1783  0.0537
 1178loPI   C4B18180  13.162  14.105   7.152 -0.0503  0.1613 -0.2036
 1179loPI    C118181   2.950  16.954   4.749  0.1389  0.1742  0.3207
 1179loPI    C218182   2.669  17.084   5.001 -0.0143  0.1338  0.1728
 1179loPI    C318183   2.852  17.341   4.755 -0.2201  0.0954 -0.0239
 1179loPI   PO418184   3.110  16.822   4.904  0.0156 -0.0149 -0.0417
 1179loPI   GL118185   3.421  16.529   5.093 -0.0297  0.2028 -0.2394
 1179loPI   GL218186   3.474  16.889   5.250  0.0400 -0.1553  0.0083
 1179loPI   C1A18187   3.518  16.474   5.586 -0.1362  0.0700 -0.2489
 1179loPI   C2A18188   3.527  16.691   5.914 -0.0793  0.0460  0.4646
 1179loPI   C3A18189   3.477  16.716   6.381  0.0806  0.0360  0.1819
 1179loPI   C4A18190   3.205  16.626   6.710  0.0162  0.1636  0.0776
 1179loPI   C5A18191   2.845  16.918   6.904  0.0620  0.0634  0.0303
 1179loPI   C6A18192   2.763  17.345   7.008 -0.3367 -0.1911 -0.0743
 1179loPI   C1B18193   3.468  17.191   5.595 -0.0978  0.0823  0.0790
 1179loPI   C2B18194   3.627  17.311   6.039  0.0741  0.1700 -0.0918
 1179loPI   C3B18195   3.626  17.425   6.448  0.3201  0.0185 -0.1372
 1179loPI   C4B18196   3.724  17.417   6.842 -0.0524  0.0673 -0.0778
 1180loPI    C118197  13.557   4.755   5.163  0.0573 -0.1304 -0.0578
 1180loPI    C218198  13.873   4.905   4.969 -0.0376 -0.0054 -0.1177
 1180loPI    C318199  13.559   4.767   4.763  0.0220 -0.2308 -0.0614
 1180loPI   PO418200  13.677   4.604   5.341  0.1140 -0.0220 -0.0161
 1180loPI   GL118201  13.981   4.588   5.708  0.1548 -0.0948 -0.0623
 1180loPI   GL218202  14.205   4.683   5.911  0.0071 -0.0033 -0.1011
 1180loPI   C1A18203  13.600   4.622   5.964  0.1576  0.2411 -0.0348
 1180loPI   C2A18204  13.512   4.695   6.452 -0.2595 -0.0140  0.0095
 1180loPI   C3A18205  13.297   4.697   6.827  0.3529 -0.2069 -0.1772
 1180loPI   C4A18206  13.195   4.962   7.197 -0.0373  0.4068  0.2287
 1180loPI   C5A18207  13.218   5.010   7.654  0.0883  0.2062 -0.4101
 1180loPI   C6A18208  13.284   5.121   8.154  0.1470 -0.3974  0.0923
 1180loPI   C1B18209  13.922   4.397   6.316 -0.4811  0.0925  0.0224
 1180loPI   C2B18210  13.850   4.390   6.719  0.2418 -0.1695 -0.1584
 1180loPI   C3B18211  13.733   4.473   7.068 -0.0557  0.0651 -0.1718
 1180loPI   C4B18212  13.543   4.639   7.419 -0.1581  0.0587 -0.2228
 1181loPI    C118213   1.060  15.620   4.778 -0.0564 -0.0919  0.0389
 1181loPI    C218214   0.819  15.507   4.480  0.0127  0.0275 -0.0636
 1181loPI    C318215   1.138  15.736   4.403 -0.1064  0.2643  0.1348
 1181loPI   PO418216   0.757  15.692   4.946  0.0030  0.1224 -0.5174
 1181loPI   GL118217   0.674  15.949   5.421  0.1293 -0.2333 -0.1279
 1181loPI   GL218218   0.747  16.146   5.638  0.3285  0.2050 -0.1669
 1181loPI   C1A18219   0.420  15.827   5.850  0.1569 -0.0139 -0.4467
 1181loPI   C2A18220   0.526  15.825   6.233 -0.0241  0.2694  0.1094
 1181loPI   C3A18221   0.423  15.675   6.631 -0.0383  0.0256  0.1682
 1181loPI   C4A18222   0.423  15.549   7.065  0.2484 -0.4625  0.2921
 1181loPI   C5A18223   0.315  15.672   7.336 -0.0430  0.0521  0.2485
 1181loPI   C6A18224   0.304  15.990   7.611  0.2587  0.2411  0.0691
 1181loPI   C1B18225   0.773  16.239   6.103  0.0995 -0.0260  0.1251
 1181loPI   C2B18226   0.755  16.108   6.545 -0.1115  0.0788 -0.1982
 1181loPI   C3B18227   0.746  15.992   6.899 -0.2088 -0.0585  0.1319
 1181loPI   C4B18228   0.781  15.927   7.346  0.0946  0.2002 -0.1791
 1182loPI    C118229   9.036  11.995   5.171 -0.2598  0.0938 -0.0739
 1182loPI    C218230   9.249  11.798   4.896  0.1145  0.0601  0.2316
 1182loPI    C318231   9.111  12.165   4.817 -0.0683 -0.0791 -0.1178
 1182loPI   PO418232   9.212  11.806   5.418  0.2710  0.1696 -0.1146
 1182loPI   GL118233   9.440  11.654   5.729  0.1468  0.0340  0.2423
 1182loPI   GL218234   9.622  11.642   5.941  0.2035 -0.2837 -0.2415
 1182loPI   C1A18235   9.122  11.462   6.033 -0.4409  0.1274  0.0633
 1182loPI   C2A18236   9.075  11.296   6.404  0.2581  0.1939 -0.2641
 1182loPI   C3A18237   9.054  11.114   6.882  0.3033  0.0284 -0.2416
 1182loPI   C4A18238   9.064  11.010   7.283 -0.0745  0.1725  0.3305
 1182loPI   C5A18239   9.078  10.859   7.734 -0.1272  0.0011 -0.0096
 1182loPI   C6A18240   8.949  10.470   7.898  0.0777  0.2057  0.1684
 1182loPI   C1B18241   9.552  11.465   6.302  0.0570  0.1073  0.2701
 1182loPI   C2B18242   9.619  11.597   6.775 -0.2910  0.1149 -0.0156
 1182loPI   C3B18243   9.754  11.593   7.204  0.1482  0.2297 -0.0078
 1182loPI   C4B18244   9.889  11.508   7.643  0.1960 -0.2888  0.0394
 1183loPI    C118245   1.501  17.351   4.627 -0.0663  0.0790  0.2173
 1183loPI    C218246   1.845  17.365   4.830  0.0972  0.1351 -0.0589
 1183loPI    C318247   1.681  17.702   4.691  0.0494  0.0853 -0.1243
 1183loPI   PO418248   1.332  17.078   4.880 -0.2038 -0.1951 -0.0961
 1183loPI   GL118249   1.453  17.017   5.266 -0.0438 -0.0874  0.0532
 1183loPI   GL218250   1.790  17.129   5.363  0.0375  0.2438 -0.2133
 1183loPI   C1A18251   1.441  16.894   5.676  0.0641  0.2707 -0.0888
 1183loPI   C2A18252   1.199  16.632   5.948  0.1486  0.0748 -0.2031
 1183loPI   C3A18253   1.155  16.515   6.335  0.0681  0.2426  0.2253
 1183loPI   C4A18254   1.044  16.395   6.790 -0.2410 -0.0078  0.1208
 1183loPI   C5A18255   1.134  16.693   7.114 -0.1013 -0.0471 -0.1211
 1183loPI   C6A18256   1.040  16.726   7.505 -0.2376 -0.2145  0.1440
 1183loPI   C1B18257   1.832  17.167   5.808 -0.3484  0.0019  0.0858
 1183loPI   C2B18258   1.558  16.909   6.133 -0.1997 -0.0279 -0.0423
 1183loPI   C3B18259   1.445  16.825   6.569 -0.0446 -0.3043  0.3801
 1183loPI   C4B18260   1.528  16.885   6.990 -0.4611 -0.1634 -0.2192
 1184loPI    C118261   4.707  13.895   5.173  0.2847 -0.0570  0.0265
 1184loPI    C218262   4.528  13.663   4.900  0.1800 -0.1606  0.1820
 1184loPI    C318263   4.879  13.835   4.816 -0.1589  0.3422 -0.2652
 1184loPI   PO418264   4.688  13.740   5.512  0.0511  0.0978  0.0983
 1184loPI   GL118265   4.336  13.628   5.766  0.2567  0.0559 -0.4344
 1184loPI   GL218266   4.191  13.910   5.856 -0.0238 -0.0915  0.1342
 1184loPI   C1A18267   4.398  13.599   6.243 -0.0611  0.2482 -0.3312
 1184loPI   C2A18268   4.559  13.659   6.641  0.2095  0.0608 -0.0019
 1184loPI   C3A18269   4.365  13.683   7.040 -0.1521  0.1216  0.2070
 1184loPI   C4A18270   4.001  13.543   7.295  0.0482  0.2362 -0.0287
 1184loPI   C5A18271   3.703  13.446   7.485  0.0406 -0.3133 -0.2204
 1184loPI   C6A18272   3.264  13.429   7.399 -0.1039 -0.1202  0.1025
 1184loPI   C1B18273   4.060  13.996   6.190 -0.0896  0.0166 -0.2536
 1184loPI   C2B18274   4.097  13.890   6.708 -0.2142 -0.1673 -0.0179
 1184loPI   C3B18275   3.919  14.141   7.095  0.2298 -0.0247 -0.0801
 1184loPI   C4B18276   3.733  14.279   7.529  0.0461 -0.0110 -0.2836
 1185loPI    C118277  16.247   0.701   5.448  0.2448  0.0448 -0.1486
 1185loPI    C218278  16.243   0.516   5.094 -0.0008  0.2089 -0.2339
 1185loPI    C318279  16.106   0.891   5.125  0.3458  0.3224 -0.0321
 1185loPI   PO418280  16.324   0.490   5.592  0.3635 -0.1444  0.0226
 1185loPI   GL118281  16.446   0.599   5.919 -0.0184  0.4763 -0.3529
 1185loPI   GL218282  16.469   0.892   5.972  0.2325  0.1392  0.0411
 1185loPI   C1A18283  16.515   0.460   6.329 -0.0275 -0.1460 -0.1635
 1185loPI   C2A18284  16.361   0.410   6.743 -0.1168 -0.3668  0.0348
 1185loPI   C3A18285  16.544   0.456   7.113 -0.2346  0.1194 -0.2722
 1185loPI   C4A18286  16.901   0.627   7.084  0.2475  0.0800  0.1146
 1185loPI   C5A18287  17.315   0.762   7.196 -0.3040 -0.0459  0.1049
 1185loPI   C6A18288  17.602   0.958   7.537  0.1946 -0.0259 -0.1270
 1185loPI   C1B18289  16.531   1.007   6.394 -0.2859  0.0400 -0.3304
 1185loPI   C2B18290  16.536   0.871   6.830 -0.0421 -0.1402 -0.2686
 1185loPI   C3B18291  16.490   1.052   7.220 -0.2225 -0.3053 -0.3273
 1185loPI   C4B18292  16.583   0.922   7.568 -0.0729 -0.2864 -0.3109
 1186loPI    C118293   3.322  15.211   4.760 -0.1484  0.0705 -0.0306
 1186loPI    C218294   3.681  15.186   4.934 -0.1996  0.1637  0.0900
 1186loPI    C318295   3.652  15.285   4.548 -0.0789 -0.1586 -0.0054
 1186loPI   PO418296   3.171  15.163   4.944 -0.1982  0.0449 -0.2755
 1186loPI   GL118297   3.409  14.968   5.345  0.1151  0.0648  0.1386
 1186loPI   GL218298   3.393  15.198   5.392 -0.2494 -0.1658 -0.1519
 1186loPI   C1A18299   3.580  14.886   5.790 -0.1735  0.1553  0.0128
 1186loPI   C2A18300   3.245  14.806   6.092 -0.0408 -0.1470  0.0502
 1186loPI   C3A18301   3.088  14.840   6.475 -0.0891  0.1198 -0.0060
 1186loPI   C4A18302   2.934  14.697   6.891  0.1134 -0.2684  0.1414
 1186loPI   C5A18303   2.501  14.786   7.104  0.0379  0.0154  0.1534
 1186loPI   C6A18304   2.030  14.675   7.191 -0.2844  0.0340 -0.1467
 1186loPI   C1B18305   3.428  15.379   5.810 -0.2825 -0.0844 -0.2368
 1186loPI   C2B18306   3.373  15.375   6.309 -0.0940  0.0137  0.0335
 1186loPI   C3B18307   3.225  15.383   6.701  0.1904  0.1771 -0.1048
 1186loPI   C4B18308   3.086  15.559   7.088  0.0180 -0.5546 -0.0674
 1187loPI    C118309  18.244   1.478   4.970 -0.0664 -0.0271 -0.1010
 1187loPI    C218310  18.394   1.730   4.698 -0.0081  0.1184  0.0636
 1187loPI    C318311  18.007   1.630   4.686  0.0382 -0.0403 -0.1960
 1187loPI   PO418312  18.346   1.612   5.178 -0.1242 -0.1320  0.0034
 1187loPI   GL118313  18.523   1.634   5.509 -0.0147  0.1556  0.4955
 1187loPI   GL218314  18.794   1.718   5.592 -0.1286  0.0990 -0.0794
 1187loPI   C1A18315  18.345   1.699   5.868  0.0291  0.0631  0.1882
 1187loPI   C2A18316  18.573   1.996   5.936  0.2131  0.1769 -0.0691
 1187loPI   C3A18317  18.966   2.007   6.273 -0.0527 -0.0139  0.2726
 1187loPI   C4A18318  19.192   1.906   6.653  0.0446  0.2568  0.2824
 1187loPI   C5A18319  19.134   1.816   7.170  0.1553 -0.1849 -0.4061
 1187loPI   C6A18320  18.999   2.031   7.482  0.0041 -0.4155 -0.0612
 1187loPI   C1B18321  19.053   1.616   5.989  0.1279  0.0117 -0.0358
 1187loPI   C2B18322  19.090   1.538   6.398 -0.0835 -0.0177  0.0224
 1187loPI   C3B18323  18.902   1.472   6.802 -0.2316  0.1911  0.0439
 1187loPI   C4B18324  19.090   1.266   7.198 -0.1680 -0.1810  0.2335
 1188loPI    C118325   9.420  15.668   5.542  0.2832 -0.0051  0.4074
 1188loPI    C218326   9.568  15.771   5.185 -0.4147  0.1073  0.1340
 1188loPI    C318327   9.809  15.619   5.466  0.1158 -0.1638 -0.4437
 1188loPI   PO418328   9.240  15.855   5.611 -0.3727  0.2644  0.2940
 1188loPI   GL118329   9.114  15.980   5.974  0.2480 -0.2270  0.1892
 1188loPI   GL218330   9.385  16.235   5.994  0.0025  0.0474 -0.0806
 1188loPI   C1A18331   8.857  15.772   6.295  0.1959  0.2619 -0.1623
 1188loPI   C2A18332   8.636  15.681   6.708 -0.2102 -0.3932 -0.1883
 1188loPI   C3A18333   8.493  15.812   7.116  0.0105 -0.0907 -0.0741
 1188loPI   C4A18334   8.343  15.795   7.531  0.1243  0.0509 -0.0374
 1188loPI   C5A18335   8.261  15.398   7.781 -0.2883 -0.1282  0.1644
 1188loPI   C6A18336   8.045  15.366   8.116 -0.0675 -0.2345 -0.2300
 1188loPI   C1B18337   9.313  16.190   6.492 -0.1766  0.2352 -0.0774
 1188loPI   C2B18338   9.135  16.069   6.793 -0.2615  0.2299 -0.2905
 1188loPI   C3B18339   8.835  16.225   7.173  0.2246 -0.2328 -0.2562
 1188loPI   C4B18340   8.608  16.612   7.323 -0.0575 -0.1245  0.2301
 1189loPI    C118341  14.315   3.417   5.025  0.0258 -0.0418  0.2068
 1189loPI    C218342  14.648   3.627   4.951 -0.0736  0.0708  0.0750
 1189loPI    C318343  14.519   3.356   4.686 -0.0499 -0.0216  0.1574
 1189loPI   PO418344  14.397   3.483   5.341  0.2716  0.2505 -0.0361
 1189loPI   GL118345  14.703   3.223   5.661  0.1784 -0.0247  0.0031
 1189loPI   GL218346  14.520   3.003   5.536  0.3047  0.0778  0.0199
 1189loPI   C1A18347  14.921   3.494   5.887 -0.1094  0.0784 -0.3390
 1189loPI   C2A18348  14.861   3.351   6.291 -0.0883  0.1721 -0.0823
 1189loPI   C3A18349  14.868   3.413   6.792 -0.0535  0.0038  0.2213
 1189loPI   C4A18350  14.790   3.594   7.215  0.0968  0.0450 -0.0460
 1189loPI   C5A18351  15.131   3.712   7.615  0.0242  0.1010  0.0284
 1189loPI   C6A18352  15.258   4.058   7.895 -0.0960  0.0233  0.1533
 1189loPI   C1B18353  14.319   2.900   5.930  0.0342  0.1168 -0.2158
 1189loPI   C2B18354  14.391   3.090   6.383 -0.1471 -0.1047  0.3690
 1189loPI   C3B18355  14.562   2.953   6.797 -0.2163  0.0215 -0.3052
 1189loPI   C4B18356  14.585   3.092   7.180 -0.2835 -0.1887  0.1903
 1190loPI    C118357   1.885   3.773   4.876 -0.2397  0.1187  0.1353
 1190loPI    C218358   2.227   3.591   4.777 -0.2207  0.2089  0.0332
 1190loPI    C318359   1.945   3.651   4.499 -0.3893 -0.0131  0.1529
 1190loPI   PO418360   1.820   3.734   5.067 -0.0780  0.0929 -0.2643
 1190loPI   GL118361   2.019   3.708   5.503 -0.0659  0.1886  0.0628
 1190loPI   GL218362   2.290   3.447   5.567 -0.0701 -0.1564 -0.0298
 1190loPI   C1A18363   1.965   3.623   5.899  0.1715  0.1725 -0.2541
 1190loPI   C2A18364   2.035   3.318   6.234  0.1530 -0.2268  0.0031
 1190loPI   C3A18365   2.100   3.199   6.577  0.0003  0.0129  0.1009
 1190loPI   C4A18366   2.009   3.073   7.075 -0.0569  0.0040 -0.0146
 1190loPI   C5A18367   2.239   3.147   7.417 -0.1860  0.2166 -0.2023
 1190loPI   C6A18368   2.393   3.024   7.816  0.0302  0.1342 -0.0970
 1190loPI   C1B18369   2.459   3.481   6.003  0.0444  0.2331 -0.1790
 1190loPI   C2B18370   2.547   3.342   6.354 -0.0522  0.0500  0.1464
 1190loPI   C3B18371   2.571   3.171   6.764  0.3135 -0.0810 -0.0016
 1190loPI   C4B18372   2.896   2.945   7.129  0.0009 -0.0525  0.1994
 1191loPI    C118373  17.247   1.955   5.564  0.1157  0.1259 -0.1365
 1191loPI    C218374  17.435   1.922   5.212  0.1439  0.0312 -0.1127
 1191loPI    C318375  17.642   1.894   5.553  0.0765 -0.1470 -0.0856
 1191loPI   PO418376  17.015   1.963   5.671 -0.2720  0.0953  0.3887
 1191loPI   GL118377  16.834   1.761   6.047  0.0923  0.2026  0.0846
 1191loPI   GL218378  17.115   1.675   6.089  0.2102 -0.0075 -0.2275
 1191loPI   C1A18379  16.767   1.512   6.415 -0.1656  0.1463  0.4527
 1191loPI   C2A18380  16.624   1.385   6.765  0.1145 -0.0421  0.2564
 1191loPI   C3A18381  16.674   1.504   7.168  0.0518 -0.2346  0.0100
 1191loPI   C4A18382  16.902   1.533   7.522 -0.1012  0.0467 -0.1038
 1191loPI   C5A18383  17.072   1.118   7.572  0.0323  0.1957 -0.3286
 1191loPI   C6A18384  17.069   0.721   7.584  0.2286 -0.0026 -0.1736
 1191loPI   C1B18385  17.222   1.904   6.459 -0.1833 -0.0740 -0.2976
 1191loPI   C2B18386  17.461   2.073   6.737 -0.1118  0.1003  0.0259
 1191loPI   C3B18387  17.573   2.415   7.012 -0.0564  0.1560  0.0463
 1191loPI   C4B18388  17.685   2.412   7.456  0.1470 -0.0334  0.0768
 1192loPI    C118389   6.484  16.622   5.301  0.0785 -0.1400 -0.1230
 1192loPI    C218390   6.404  16.715   4.921 -0.0815  0.3112  0.0152
 1192loPI    C318391   6.662  16.937   5.131 -0.1997  0.2282  0.2502
 1192loPI   PO418392   6.321  16.461   5.416  0.1961 -0.0964 -0.2017
 1192loPI   GL118393   6.250  16.199   5.784  0.0977  0.2112  0.0348
 1192loPI   GL218394   6.496  16.081   5.975 -0.0813 -0.3897  0.3308
 1192loPI   C1A18395   5.852  16.212   6.017  0.1202 -0.0869 -0.1072
 1192loPI   C2A18396   5.702  16.310   6.372 -0.1579 -0.1842 -0.2654
 1192loPI   C3A18397   5.726  16.348   6.796 -0.0204 -0.1209 -0.0812
 1192loPI   C4A18398   5.579  16.143   7.025 -0.1557  0.0904 -0.3465
 1192loPI   C5A18399   5.654  15.801   7.380  0.0601  0.2692  0.1542
 1192loPI   C6A18400   5.664  15.733   7.740  0.0859  0.0751 -0.0169
 1192loPI   C1B18401   6.515  15.979   6.472 -0.4316  0.0522 -0.1295
 1192loPI   C2B18402   6.453  16.119   6.824 -0.1780  0.0758 -0.0114
 1192loPI   C3B18403   6.663  16.363   7.185 -0.2132 -0.2801  0.0154
 1192loPI   C4B18404   6.575  16.666   7.538 -0.2359  0.0856  0.0275
 1193loPI    C118405   9.616   3.138   5.498  0.1376 -0.0136 -0.0272
 1193loPI    C218406   9.382   2.816   5.542 -0.0474  0.1202 -0.0220
 1193loPI    C318407   9.497   2.931   5.177  0.0872  0.0016 -0.0182
 1193loPI   PO418408   9.712   3.124   5.706 -0.0496 -0.2556 -0.1699
 1193loPI   GL118409   9.564   3.081   6.005  0.1330  0.0161  0.0566
 1193loPI   GL218410   9.407   2.790   5.998  0.2535 -0.0774 -0.2627
 1193loPI   C1A18411   9.280   3.300   6.345 -0.0684 -0.3533 -0.0614
 1193loPI   C2A18412   9.145   3.198   6.802 -0.1047 -0.2635 -0.0777
 1193loPI   C3A18413   9.158   3.315   7.183  0.0875 -0.0525 -0.4585
 1193loPI   C4A18414   9.198   3.302   7.607  0.0295 -0.0015  0.0817
 1193loPI   C5A18415   9.388   3.417   7.939  0.1015 -0.0823  0.4897
 1193loPI   C6A18416   9.511   3.343   8.383  0.1494  0.0965 -0.0536
 1193loPI   C1B18417   9.342   2.797   6.446  0.0272 -0.0771  0.0263
 1193loPI   C2B18418   9.001   2.708   6.782 -0.3292 -0.0751 -0.3342
 1193loPI   C3B18419   8.818   2.536   7.145  0.0556  0.0070 -0.1198
 1193loPI   C4B18420   8.858   2.312   7.574 -0.0018  0.1320 -0.0110
 1194loPI    C118421  16.785   8.205   5.125  0.0778 -0.4023 -0.0406
 1194loPI    C218422  16.916   8.368   5.466 -0.0920  0.0435 -0.1810
 1194loPI    C318423  17.118   8.426   5.126 -0.1850  0.0065 -0.2430
 1194loPI   PO418424  16.597   8.039   5.269 -0.0215  0.0177 -0.3539
 1194loPI   GL118425  16.313   8.257   5.606  0.2997 -0.3829 -0.0748
 1194loPI   GL218426  16.138   8.547   5.562  0.1780  0.2993 -0.2901
 1194loPI   C1A18427  16.087   8.154   5.938 -0.0178  0.2645 -0.1708
 1194loPI   C2A18428  16.064   8.137   6.426 -0.4186 -0.0157 -0.2592
 1194loPI   C3A18429  16.319   8.382   6.634  0.2031  0.0466  0.0525
 1194loPI   C4A18430  16.488   8.606   6.977 -0.0305 -0.2442 -0.2177
 1194loPI   C5A18431  16.679   8.747   7.450  0.1005 -0.0591  0.1557
 1194loPI   C6A18432  16.513   9.097   7.711  0.2268 -0.0159 -0.0705
 1194loPI   C1B18433  16.145   8.604   6.139 -0.0276  0.2930 -0.2029
 1194loPI   C2B18434  15.956   8.747   6.541  0.0787  0.2259  0.2132
 1194loPI   C3B18435  15.905   8.542   6.945 -0.3103 -0.3113 -0.2231
 1194loPI   C4B18436  15.870   8.552   7.443  0.2580 -0.0851  0.0487
 1195loPI    C118437   5.701  18.418   5.012 -0.0257 -0.0552 -0.0568
 1195loPI    C218438   5.747  18.816   5.002  0.0940 -0.0694 -0.0877
 1195loPI    C318439   5.498  18.637   4.745 -0.0362 -0.0048 -0.0079
 1195loPI   PO418440   5.685  18.357   5.345  0.1436  0.0875  0.0445
 1195loPI   GL118441   5.580  18.227   5.701  0.4005 -0.1541  0.1279
 1195loPI   GL218442   5.204  18.390   5.571 -0.1487  0.0756  0.0811
 1195loPI   C1A18443   5.470  18.296   6.049 -0.1533  0.1039 -0.0097
 1195loPI   C2A18444   5.405  18.348   6.523  0.2085 -0.0527  0.1593
 1195loPI   C3A18445   5.212  18.343   6.889 -0.1664 -0.1701  0.4973
 1195loPI   C4A18446   5.297  18.361   7.261 -0.0318 -0.2171  0.2351
 1195loPI   C5A18447   5.279  18.022   7.452 -0.0858 -0.4036 -0.0172
 1195loPI   C6A18448   5.141  17.667   7.390 -0.0115 -0.1949 -0.0970
 1195loPI   C1B18449   5.043  18.487   5.955  0.1216 -0.1988  0.0439
 1195loPI   C2B18450   4.932  18.528   6.389 -0.0775 -0.1091 -0.1104
 1195loPI   C3B18451   4.630  18.419   6.672  0.2093 -0.0069  0.2174
 1195loPI   C4B18452   4.367  18.761   6.760  0.1315  0.0539 -0.1014
 1196loPI    C118453  11.306  16.738   5.724 -0.0710  0.1358 -0.0226
 1196loPI    C218454  11.176  16.795   5.350 -0.0557 -0.1410 -0.0726
 1196loPI    C318455  11.551  16.892   5.448 -0.1179  0.1119 -0.0778
 1196loPI   PO418456  11.151  16.491   5.801 -0.2480  0.4036 -0.0098
 1196loPI   GL118457  10.824  16.409   6.090  0.2057 -0.1132  0.0514
 1196loPI   GL218458  10.679  16.689   6.177 -0.0043 -0.2353 -0.1196
 1196loPI   C1A18459  10.778  16.193   6.447 -0.0661 -0.0832 -0.0062
 1196loPI   C2A18460  10.650  16.115   6.891 -0.0875  0.3964 -0.2439
 1196loPI   C3A18461  10.595  15.994   7.358  0.2845  0.1728  0.2151
 1196loPI   C4A18462  10.509  15.709   7.705  0.0632 -0.1152  0.0165
 1196loPI   C5A18463  10.654  15.338   7.937  0.1473  0.0665  0.1125
 1196loPI   C6A18464  10.949  15.251   8.246 -0.2172  0.1014 -0.0835
 1196loPI   C1B18465  10.591  16.691   6.611 -0.0786 -0.5211 -0.1653
 1196loPI   C2B18466  10.510  16.713   7.020 -0.1041 -0.0723  0.4337
 1196loPI   C3B18467  10.533  16.801   7.463  0.2972 -0.2176 -0.1129
 1196loPI   C4B18468  10.826  16.800   7.774 -0.2581  0.0538 -0.0920
 1197loPI    C118469  17.199  16.723   5.160  0.3010 -0.1089  0.3176
 1197loPI    C218470  17.510  16.971   5.118  0.2147 -0.0408  0.0628
 1197loPI    C318471  17.291  16.869   4.799 -0.1258  0.0433  0.2646
 1197loPI   PO418472  17.255  16.471   5.372  0.0911 -0.2154  0.0133
 1197loPI   GL118473  17.083  16.505   5.720 -0.0088 -0.0854  0.0876
 1197loPI   GL218474  16.900  16.633   5.864 -0.0858 -0.0311 -0.0210
 1197loPI   C1A18475  17.362  16.352   6.073  0.1269 -0.5080 -0.4031
 1197loPI   C2A18476  17.358  16.144   6.430  0.0022 -0.1014 -0.0747
 1197loPI   C3A18477  17.491  16.065   6.802  0.0442  0.3871 -0.1412
 1197loPI   C4A18478  17.369  16.192   7.263  0.1387  0.1490  0.0419
 1197loPI   C5A18479  17.163  16.179   7.657  0.1102 -0.2510  0.0064
 1197loPI   C6A18480  16.908  16.319   8.030 -0.1412 -0.3221 -0.1764
 1197loPI   C1B18481  17.008  16.701   6.308 -0.1012 -0.2733 -0.0885
 1197loPI   C2B18482  17.353  16.598   6.724  0.0631 -0.0183 -0.1321
 1197loPI   C3B18483  17.417  16.623   7.075  0.0049 -0.0623 -0.2053
 1197loPI   C4B18484  17.443  16.587   7.469  0.0651  0.1128 -0.2731
 1198loPI    C118485   6.282   7.579   5.061  0.1565 -0.0607 -0.2410
 1198loPI    C218486   6.258   7.182   5.103  0.1081 -0.0356 -0.0175
 1198loPI    C318487   6.005   7.420   5.301  0.2318  0.1130 -0.0358
 1198loPI   PO418488   6.561   7.654   5.127 -0.0067  0.0648 -0.3008
 1198loPI   GL118489   6.743   7.482   5.493 -0.0789 -0.2408  0.0623
 1198loPI   GL218490   6.514   7.290   5.537  0.1706  0.0715  0.1626
 1198loPI   C1A18491   6.709   7.468   5.934  0.3266  0.0677  0.0779
 1198loPI   C2A18492   6.527   7.491   6.357 -0.0122 -0.0119  0.1282
 1198loPI   C3A18493   6.533   7.618   6.795 -0.0689  0.1094  0.2094
 1198loPI   C4A18494   6.624   7.699   7.235  0.0917 -0.2401  0.2604
 1198loPI   C5A18495   6.896   7.985   7.485  0.3484 -0.0574  0.1825
 1198loPI   C6A18496   7.001   7.984   7.866  0.1686  0.0750  0.0424
 1198loPI   C1B18497   6.492   7.016   5.896  0.0017 -0.0045  0.1841
 1198loPI   C2B18498   6.456   6.820   6.225 -0.0230 -0.0175  0.0384
 1198loPI   C3B18499   6.276   7.106   6.512 -0.1251 -0.0666  0.0032
 1198loPI   C4B18500   6.169   7.335   6.850  0.0217  0.1313 -0.2851
 1199loPI    C118501  11.458  13.052   5.497 -0.0871 -0.0184  0.0589
 1199loPI    C218502  11.472  12.800   5.186 -0.1271 -0.0353  0.0708
 1199loPI    C318503  11.312  13.164   5.142  0.1849  0.0935 -0.0202
 1199loPI   PO418504  11.390  12.984   5.653  0.1367  0.0337 -0.2889
 1199loPI   GL118505  11.228  12.704   5.877  0.1264 -0.1752 -0.1486
 1199loPI   GL218506  10.982  13.044   5.957 -0.0934  0.0429  0.2166
 1199loPI   C1A18507  11.225  12.416   6.269 -0.1462  0.1027  0.0577
 1199loPI   C2A18508  11.374  12.499   6.681  0.3207 -0.3143 -0.2610
 1199loPI   C3A18509  11.663  12.620   7.045 -0.1053 -0.0863 -0.0848
 1199loPI   C4A18510  11.807  12.823   7.391  0.0223 -0.3018  0.2001
 1199loPI   C5A18511  11.845  12.487   7.716  0.2101  0.2720  0.0245
 1199loPI   C6A18512  11.870  12.007   7.724  0.0710 -0.0647  0.0377
 1199loPI   C1B18513  11.030  12.835   6.383  0.1170 -0.1521  0.0603
 1199loPI   C2B18514  10.866  12.721   6.786  0.0885  0.2512  0.2519
 1199loPI   C3B18515  11.057  12.515   7.101  0.0446  0.2223  0.0381
 1199loPI   C4B18516  11.071  12.125   7.426 -0.1367 -0.0760 -0.1972
 1200loPI    C118517   0.214  18.167   5.157 -0.2387  0.0610  0.1225
 1200loPI    C218518   0.359  18.135   4.786 -0.0417  0.0255  0.2015
 1200loPI    C318519   0.192  17.818   4.962 -0.1075  0.0340  0.1550
 1200loPI   PO418520   0.350  18.211   5.297 -0.0958  0.0778 -0.0991
 1200loPI   GL118521   0.688  18.171   5.525  0.2470 -0.0731 -0.0766
 1200loPI   GL218522   0.728  18.483   5.662  0.2075 -0.1799  0.2598
 1200loPI   C1A18523   0.754  18.071   5.918 -0.2712 -0.3528 -0.1916
 1200loPI   C2A18524   0.829  18.104   6.360 -0.0154  0.0048  0.0527
 1200loPI   C3A18525   0.930  18.130   6.799  0.0900  0.3921  0.2379
 1200loPI   C4A18526   1.057  18.118   7.261  0.1390  0.0844 -0.0337
 1200loPI   C5A18527   1.280  18.373   7.597 -0.0502  0.1145  0.0930
 1200loPI   C6A18528   1.236  18.748   7.790  0.1731 -0.0604 -0.0322
 1200loPI   C1B18529   0.974  18.530   6.054 -0.4005 -0.1208 -0.1528
 1200loPI   C2B18530   1.082  18.500   6.484 -0.0695 -0.1356 -0.0448
 1200loPI   C3B18531   1.137  18.494   6.993  0.0089 -0.0631 -0.0327
 1200loPI   C4B18532   1.388  18.793   7.295 -0.0775 -0.0346  0.0465
 1201loPI    C118533   0.287   7.840   4.907  0.1637 -0.0042  0.0872
 1201loPI    C218534   0.659   7.831   4.759  0.0292  0.0273 -0.2636
 1201loPI    C318535   0.412   7.522   4.698 -0.0288  0.0403 -0.0996
 1201loPI   PO418536   0.274   7.951   5.166  0.0814  0.0675 -0.1383
 1201loPI   GL118537   0.467   8.045   5.568  0.0865 -0.2533  0.0136
 1201loPI   GL218538   0.614   8.373   5.701  0.2585 -0.0108  0.0363
 1201loPI   C1A18539   0.430   7.979   5.995  0.0040 -0.0272 -0.1462
 1201loPI   C2A18540   0.321   7.786   6.430 -0.0959 -0.0490  0.4300
 1201loPI   C3A18541   0.194   7.699   6.869 -0.2777  0.0370  0.0788
 1201loPI   C4A18542   0.316   7.641   7.263  0.3826  0.2460  0.1744
 1201loPI   C5A18543   0.381   7.635   7.673  0.0330  0.1167  0.1842
 1201loPI   C6A18544   0.192   7.826   7.981 -0.1390  0.1827 -0.0292
 1201loPI   C1B18545   0.457   8.575   6.045 -0.1472 -0.1089 -0.0466
 1201loPI   C2B18546   0.516   8.847   6.441  0.0269 -0.1641 -0.2187
 1201loPI   C3B18547   0.498   9.023   6.851  0.2488  0.0098  0.2091
 1201loPI   C4B18548   0.434   9.204   7.207  0.1612 -0.0392  0.0694
 1202loPI    C118549   5.894   1.029   5.051 -0.0272  0.0124  0.4726
 1202loPI    C218550   5.911   0.669   5.226 -0.0972 -0.1845  0.0872
 1202loPI    C318551   5.910   0.697   4.827  0.0910  0.2559  0.1120
 1202loPI   PO418552   5.750   1.137   5.304  0.0708  0.2163  0.1916
 1202loPI   GL118553   5.749   1.050   5.780  0.0336  0.4536  0.0942
 1202loPI   GL218554   5.608   1.367   5.715 -0.1382 -0.0402 -0.0073
 1202loPI   C1A18555   5.646   1.079   6.178  0.0930 -0.0702  0.0839
 1202loPI   C2A18556   5.653   1.052   6.669 -0.2248 -0.1165 -0.0074
 1202loPI   C3A18557   5.521   1.080   7.130 -0.0222 -0.0934 -0.0367
 1202loPI   C4A18558   5.516   1.054   7.588 -0.0095 -0.0312 -0.0434
 1202loPI   C5A18559   5.323   0.966   7.986 -0.1390 -0.0738 -0.1058
 1202loPI   C6A18560   5.060   0.839   8.223  0.0626 -0.2765 -0.4495
 1202loPI   C1B18561   5.556   1.608   6.200  0.0046  0.4461 -0.1394
 1202loPI   C2B18562   5.567   1.538   6.560 -0.0484  0.0929  0.0059
 1202loPI   C3B18563   5.498   1.548   6.952  0.2712  0.1004 -0.0155
 1202loPI   C4B18564   5.533   1.667   7.383 -0.0743  0.0761  0.2327
 1203loPI    C118565  15.983  13.682   5.311 -0.2034 -0.0420  0.1461
 1203loPI    C218566  15.840  13.986   5.528 -0.0229  0.2164 -0.0897
 1203loPI    C318567  15.745  13.955   5.141 -0.1911 -0.1357 -0.0238
 1203loPI   PO418568  15.916  13.472   5.468  0.2541 -0.0267  0.2989
 1203loPI   GL118569  15.598  13.636   5.839  0.2358 -0.0352 -0.4350
 1203loPI   GL218570  15.737  13.304   5.916  0.1950  0.2420 -0.1654
 1203loPI   C1A18571  15.726  13.863   6.209  0.0333 -0.2250 -0.0431
 1203loPI   C2A18572  15.831  13.825   6.567 -0.1639 -0.2329  0.0665
 1203loPI   C3A18573  15.802  13.845   6.987  0.1626  0.0453  0.2070
 1203loPI   C4A18574  15.770  14.060   7.388  0.1587 -0.1023  0.1097
 1203loPI   C5A18575  15.857  14.340   7.647  0.2320 -0.2490  0.1183
 1203loPI   C6A18576  16.020  14.359   8.008  0.1095  0.1412  0.1418
 1203loPI   C1B18577  15.667  13.356   6.342 -0.4000  0.0489  0.0474
 1203loPI   C2B18578  15.793  13.257   6.782 -0.2411  0.1360  0.2062
 1203loPI   C3B18579  15.973  13.417   7.142  0.0216  0.0801 -0.0606
 1203loPI   C4B18580  16.011  13.455   7.584 -0.2235 -0.0542  0.0479
 1204loPI    C118581  12.789  18.094   5.109  0.0271 -0.0691 -0.1224
 1204loPI    C218582  12.537  17.856   5.309 -0.0252 -0.0351 -0.1473
 1204loPI    C318583  12.577  17.817   4.913 -0.0827  0.0408 -0.1609
 1204loPI   PO418584  13.035  18.217   5.406 -0.0259 -0.0645  0.2756
 1204loPI   GL118585  12.955  18.198   5.886  0.0379 -0.1173 -0.0347
 1204loPI   GL218586  12.744  18.490   6.020  0.0933 -0.0083 -0.0733
 1204loPI   C1A18587  13.090  18.038   6.262 -0.0450  0.3047 -0.0955
 1204loPI   C2A18588  12.986  18.152   6.613 -0.1190 -0.2456  0.2799
 1204loPI   C3A18589  13.120  18.152   7.068 -0.2692 -0.0675 -0.1955
 1204loPI   C4A18590  13.234  18.222   7.462 -0.0436  0.0301  0.3740
 1204loPI   C5A18591  13.188  18.146   7.850  0.0106 -0.0513 -0.0820
 1204loPI   C6A18592  13.328  18.457   8.088  0.0121 -0.2204  0.1350
 1204loPI   C1B18593  12.786  18.783   6.368  0.1883  0.0709  0.2008
 1204loPI   C2B18594  12.987  18.691   6.750 -0.1295  0.0212 -0.1823
 1204loPI   C3B18595  13.108  18.723   7.257 -0.1272  0.1346  0.1773
 1204loPI   C4B18596  13.022  18.637   7.658  0.3486  0.2273 -0.1377
 1205loPI    C118597  13.852  16.145   5.089 -0.0056 -0.0692 -0.1582
 1205loPI    C218598  13.468  16.259   5.070  0.0544  0.1461 -0.1120
 1205loPI    C318599  13.725  16.373   4.785  0.1398  0.2211 -0.0061
 1205loPI   PO418600  13.907  16.199   5.293  0.0565 -0.1063 -0.1070
 1205loPI   GL118601  14.121  16.374   5.754 -0.2794 -0.0310 -0.0220
 1205loPI   GL218602  14.103  16.025   5.785 -0.0316  0.1709  0.2670
 1205loPI   C1A18603  14.154  16.563   6.097 -0.1643  0.0115  0.0564
 1205loPI   C2A18604  14.185  16.529   6.501 -0.1430 -0.2976 -0.0566
 1205loPI   C3A18605  14.263  16.740   6.897  0.1532 -0.1890 -0.0271
 1205loPI   C4A18606  14.344  16.726   7.367  0.0366 -0.0900 -0.1785
 1205loPI   C5A18607  14.318  16.831   7.800  0.0899  0.1064  0.0156
 1205loPI   C6A18608  13.941  16.813   8.034 -0.2441 -0.0986  0.3439
 1205loPI   C1B18609  14.119  16.052   6.180 -0.0138 -0.0654  0.2697
 1205loPI   C2B18610  14.065  16.052   6.720  0.1587  0.3318  0.3342
 1205loPI   C3B18611  14.041  15.930   7.125 -0.0245  0.0456  0.0156
 1205loPI   C4B18612  14.087  15.865   7.569  0.1967  0.0357 -0.0123
 1206loPI    C118613   8.085   3.917   4.979 -0.3308  0.1682 -0.0497
 1206loPI    C218614   8.053   4.311   5.041 -0.0010  0.1942 -0.0263
 1206loPI    C318615   8.404   4.154   4.931 -0.0764 -0.1216  0.1726
 1206loPI   PO418616   8.006   3.793   5.173 -0.0834  0.2971  0.0731
 1206loPI   GL118617   7.946   3.694   5.533 -0.0460 -0.1862 -0.0911
 1206loPI   GL218618   7.720   3.599   5.616  0.1587  0.1403  0.0693
 1206loPI   C1A18619   8.127   3.772   5.903 -0.3065 -0.3460  0.2239
 1206loPI   C2A18620   8.416   3.913   6.253  0.2378  0.0394 -0.2659
 1206loPI   C3A18621   8.290   4.104   6.633 -0.4823  0.1509  0.0447
 1206loPI   C4A18622   8.014   4.170   6.967  0.2324 -0.0401  0.1024
 1206loPI   C5A18623   7.952   4.418   7.312  0.1940  0.3264 -0.1905
 1206loPI   C6A18624   7.564   4.538   7.504 -0.0242  0.1607  0.3754
 1206loPI   C1B18625   7.615   3.695   6.014 -0.0876  0.0974 -0.0236
 1206loPI   C2B18626   7.848   3.702   6.372 -0.0075 -0.2669 -0.0068
 1206loPI   C3B18627   7.799   3.652   6.898  0.2393  0.0989  0.2002
 1206loPI   C4B18628   7.746   3.953   7.330  0.2238  0.2000 -0.1362
 1207loPI    C118629   7.572   6.449   5.100 -0.0814 -0.1210  0.2333
 1207loPI    C218630   7.907   6.496   5.313  0.1465 -0.1725 -0.1069
 1207loPI    C318631   7.918   6.304   4.962 -0.1344  0.3060 -0.3894
 1207loPI   PO418632   7.434   6.303   5.313 -0.2479 -0.0554  0.1564
 1207loPI   GL118633   7.174   6.329   5.566 -0.0535  0.2067 -0.0395
 1207loPI   GL218634   6.966   6.531   5.495 -0.1421  0.0495 -0.1774
 1207loPI   C1A18635   7.241   6.616   5.914 -0.1005  0.2992 -0.1727
 1207loPI   C2A18636   6.929   6.596   6.235  0.0510  0.0352 -0.4051
 1207loPI   C3A18637   6.922   6.482   6.650 -0.0307  0.2082 -0.1225
 1207loPI   C4A18638   6.804   6.638   6.991 -0.3216  0.1201  0.0423
 1207loPI   C5A18639   6.450   6.642   7.206 -0.1711  0.0614  0.2031
 1207loPI   C6A18640   6.422   6.660   7.642 -0.2078 -0.2628  0.0622
 1207loPI   C1B18641   6.600   6.506   5.848 -0.2251  0.0832 -0.1889
 1207loPI   C2B18642   6.468   6.361   6.346  0.1824  0.2926 -0.0661
 1207loPI   C3B18643   6.374   6.402   6.780 -0.4158  0.1057 -0.0715
 1207loPI   C4B18644   5.960   6.440   6.995 -0.1039 -0.5094 -0.0301
 1208loPI    C118645  10.972  17.309   5.118 -0.0294  0.1526  0.0288
 1208loPI    C218646  11.353  17.186   5.104 -0.1031 -0.1023  0.1938
 1208loPI    C318647  11.082  17.025   4.858 -0.1274 -0.0019  0.1543
 1208loPI   PO418648  10.903  17.216   5.397  0.1931  0.1813  0.3112
 1208loPI   GL118649  11.101  17.230   5.791 -0.0593  0.0432 -0.2906
 1208loPI   GL218650  11.276  17.498   6.078  0.2694 -0.1839 -0.0224
 1208loPI   C1A18651  10.868  17.124   6.133  0.0962  0.2213 -0.0426
 1208loPI   C2A18652  10.517  17.250   6.428 -0.1077  0.0853 -0.0921
 1208loPI   C3A18653  10.393  17.143   6.825  0.1584  0.0385 -0.4241
 1208loPI   C4A18654  10.389  17.206   7.192 -0.2183 -0.1551  0.0411
 1208loPI   C5A18655  10.458  17.228   7.698  0.0813  0.2554  0.1345
 1208loPI   C6A18656  10.749  17.219   8.047 -0.2282  0.0568  0.2168
 1208loPI   C1B18657  11.222  17.344   6.495 -0.0638  0.1872 -0.0109
 1208loPI   C2B18658  10.954  17.069   6.745 -0.2566  0.0069 -0.1371
 1208loPI   C3B18659  10.930  17.011   7.268 -0.0851 -0.1782  0.2115
 1208loPI   C4B18660  10.918  17.335   7.573  0.2550  0.1310  0.0052
 1209loPI    C118661  15.701  16.478   5.367 -0.1287 -0.0597  0.2045
 1209loPI    C218662  15.315  16.581   5.346 -0.0928  0.0630  0.1373
 1209loPI    C318663  15.562  16.667   5.043 -0.0234 -0.0626  0.1573
 1209loPI   PO418664  15.646  16.219   5.487 -0.0119  0.2094 -0.0512
 1209loPI   GL118665  15.554  15.883   5.795 -0.1509 -0.0405  0.1633
 1209loPI   GL218666  15.883  15.851   5.752  0.0142  0.0065 -0.1923
 1209loPI   C1A18667  15.494  16.061   6.158  0.3235 -0.1648  0.1525
 1209loPI   C2A18668  15.561  16.024   6.527  0.1242  0.1042  0.3531
 1209loPI   C3A18669  15.561  16.099   6.934  0.1222  0.1174 -0.5183
 1209loPI   C4A18670  15.349  16.007   7.251 -0.3308  0.0822  0.3131
 1209loPI   C5A18671  15.227  15.855   7.633  0.3608  0.0772  0.1666
 1209loPI   C6A18672  14.894  15.815   7.909 -0.0884  0.2235  0.0808
 1209loPI   C1B18673  16.010  15.734   6.210 -0.0658 -0.0721  0.0078
 1209loPI   C2B18674  15.961  15.772   6.713 -0.3276  0.1202 -0.0329
 1209loPI   C3B18675  16.097  15.833   7.152  0.3187 -0.0001 -0.5731
 1209loPI   C4B18676  16.247  16.049   7.497  0.1683 -0.1611 -0.0521
 1210loPI    C118677   5.835   4.911   5.319  0.0086 -0.2558 -0.2083
 1210loPI    C218678   5.898   5.261   5.136  0.2350 -0.2909 -0.1997
 1210loPI    C318679   5.576   5.043   5.044 -0.1448  0.1226  0.1085
 1210loPI   PO418680   6.084   4.939   5.541 -0.0083 -0.0820 -0.0386
 1210loPI   GL118681   6.157   4.692   5.803  0.0633 -0.0029 -0.2042
 1210loPI   GL218682   6.319   4.497   5.779 -0.2418  0.1891 -0.0078
 1210loPI   C1A18683   6.274   4.882   6.165 -0.1992  0.1227 -0.0598
 1210loPI   C2A18684   6.089   5.088   6.508 -0.1408  0.0075 -0.0900
 1210loPI   C3A18685   5.850   4.992   6.839 -0.0503  0.2628  0.1660
 1210loPI   C4A18686   5.694   5.031   7.279  0.1929 -0.6720  0.0961
 1210loPI   C5A18687   5.771   4.808   7.716 -0.1021 -0.0232  0.2146
 1210loPI   C6A18688   6.046   4.873   8.024 -0.1191 -0.0024 -0.4150
 1210loPI   C1B18689   6.465   4.312   6.084 -0.3338  0.2626  0.3055
 1210loPI   C2B18690   6.776   4.198   6.335  0.1587 -0.1236  0.0836
 1210loPI   C3B18691   6.883   3.892   6.611 -0.0379  0.1873 -0.1147
 1210loPI   C4B18692   6.862   3.904   7.024 -0.0925 -0.2215 -0.0798
 1211loPI    C118693   3.708  12.601   4.749 -0.2102  0.1478  0.0812
 1211loPI    C218694   3.426  12.558   4.468  0.0886 -0.1998 -0.1759
 1211loPI    C318695   3.802  12.645   4.362  0.1350  0.0072  0.1451
 1211loPI   PO418696   3.658  12.775   4.856  0.1185  0.0789 -0.4460
 1211loPI   GL118697   3.487  13.027   5.266 -0.0887  0.3956  0.0343
 1211loPI   GL218698   3.695  13.040   5.419 -0.1110  0.2127  0.1166
 1211loPI   C1A18699   3.276  12.994   5.650  0.0950  0.0618  0.1415
 1211loPI   C2A18700   3.218  13.028   6.111  0.0883  0.1140 -0.0662
 1211loPI   C3A18701   3.215  13.040   6.456 -0.1250 -0.0848  0.1639
 1211loPI   C4A18702   3.172  13.012   6.828  0.1646 -0.0814  0.0594
 1211loPI   C5A18703   3.099  12.883   7.259  0.0446  0.2260 -0.2677
 1211loPI   C6A18704   2.970  12.955   7.674 -0.0766 -0.0072 -0.0577
 1211loPI   C1B18705   3.752  13.019   5.828  0.0262 -0.0803 -0.0909
 1211loPI   C2B18706   3.739  13.114   6.216  0.1766 -0.0795 -0.2177
 1211loPI   C3B18707   3.735  13.039   6.653 -0.0443 -0.0181  0.2170
 1211loPI   C4B18708   3.615  13.187   7.060  0.0460 -0.0197 -0.1555
 1212loPI    C118709  11.628   5.389   5.302 -0.4620  0.0943  0.0355
 1212loPI    C218710  11.708   5.324   4.915 -0.0259 -0.1084  0.1537
 1212loPI    C318711  11.435   5.101   5.104  0.0436 -0.2746  0.0597
 1212loPI   PO418712  11.855   5.463   5.420  0.1734  0.1140  0.2209
 1212loPI   GL118713  11.834   5.599   5.896  0.0383  0.0322  0.0100
 1212loPI   GL218714  11.918   5.869   6.150 -0.3052 -0.0109  0.0407
 1212loPI   C1A18715  11.940   5.410   6.275 -0.0756  0.0984  0.1761
 1212loPI   C2A18716  12.244   5.456   6.591  0.2229  0.0003  0.1465
 1212loPI   C3A18717  12.220   5.374   7.021  0.3106  0.1675  0.0172
 1212loPI   C4A18718  12.148   5.678   7.404  0.0106 -0.1451  0.1603
 1212loPI   C5A18719  11.968   5.864   7.794 -0.1040  0.5532  0.2288
 1212loPI   C6A18720  11.606   5.930   8.060  0.2965  0.2673 -0.0850
 1212loPI   C1B18721  11.779   5.752   6.624 -0.0864 -0.0888  0.4185
 1212loPI   C2B18722  11.644   5.612   7.141  0.1144  0.1605 -0.0849
 1212loPI   C3B18723  11.364   5.434   7.308  0.3082  0.1091  0.1474
 1212loPI   C4B18724  11.168   5.116   7.517  0.0943  0.2767 -0.0453
 1213loPI    C118725   0.727   8.178   5.084  0.0442  0.1797 -0.0571
 1213loPI    C218726   0.870   8.301   4.731  0.2220 -0.0274 -0.0593
 1213loPI    C318727   0.475   8.275   4.789  0.1639  0.8006  0.0308
 1213loPI   PO418728   0.882   8.224   5.307  0.0114 -0.3992 -0.0230
 1213loPI   GL118729   0.939   8.030   5.626  0.0757 -0.1479  0.2730
 1213loPI   GL218730   1.301   8.012   5.502  0.1462  0.1043 -0.2906
 1213loPI   C1A18731   0.983   7.988   6.051  0.3324 -0.1024 -0.1674
 1213loPI   C2A18732   1.066   7.868   6.465  0.1224 -0.0568 -0.1242
 1213loPI   C3A18733   1.013   7.880   6.939  0.0513 -0.0131  0.0848
 1213loPI   C4A18734   0.794   8.242   7.329  0.1348 -0.0587  0.0035
 1213loPI   C5A18735   0.819   8.568   7.648  0.1118  0.0474  0.0900
 1213loPI   C6A18736   0.883   8.817   8.052 -0.0129 -0.0889  0.2692
 1213loPI   C1B18737   1.572   7.936   5.945 -0.0480 -0.0220 -0.0970
 1213loPI   C2B18738   1.596   7.893   6.451  0.0243  0.0163  0.0165
 1213loPI   C3B18739   1.541   7.794   6.883 -0.0581 -0.1962  0.1503
 1213loPI   C4B18740   1.314   7.800   7.323 -0.1748 -0.0253 -0.1638
 1214POPI    C118741  12.681  15.656   5.381  0.0844 -0.0388  0.0654
 1214POPI    C218742  12.577  16.035   5.307  0.1628 -0.0280  0.0085
 1214POPI    C318743  12.765  15.820   5.026  0.1098 -0.1123  0.0370
 1214POPI   PO418744  12.830  15.654   5.729  0.0066 -0.0789  0.2427
 1214POPI   GL118745  13.211  15.839   6.078  0.0238 -0.4265 -0.0996
 1214POPI   GL218746  13.520  15.809   6.053  0.3203  0.1776  0.1381
 1214POPI   C1A18747  13.126  15.676   6.498 -0.3998  0.1008 -0.1082
 1214POPI   D2A18748  12.966  15.738   6.972 -0.2024 -0.0096  0.0146
 1214POPI   C3A18749  12.657  15.504   7.148  0.0516 -0.0712 -0.0120
 1214POPI   C4A18750  12.670  15.611   7.563 -0.2994  0.1321 -0.2938
 1214POPI   C1B18751  13.625  15.931   6.425 -0.0650 -0.0168  0.1481
 1214POPI   C2B18752  13.462  15.956   6.850 -0.2663 -0.1680 -0.0035
 1214POPI   C3B18753  13.586  16.140   7.291  0.3683 -0.1445 -0.3221
 1214POPI   C4B18754  13.715  16.117   7.777  0.0573  0.0947 -0.1232
 1215POPI    C118755   4.144   0.928   5.207  0.2074 -0.1016 -0.0447
 1215POPI    C218756   4.143   0.790   4.832  0.0194 -0.0700 -0.0571
 1215POPI    C318757   4.343   0.593   5.117  0.0665 -0.1581 -0.1501
 1215POPI   PO418758   3.915   1.138   5.174  0.0118  0.0003 -0.1039
 1215POPI   GL118759   3.738   1.224   5.495  0.0472 -0.1805  0.0247
 1215POPI   GL218760   3.451   1.104   5.526 -0.1408 -0.1239 -0.1062
 1215POPI   C1A18761   3.730   1.154   5.966 -0.2553 -0.1627 -0.1529
 1215POPI   D2A18762   3.794   1.122   6.385  0.0012  0.0493  0.0656
 1215POPI   C3A18763   3.790   1.354   6.792  0.0679  0.1490  0.3740
 1215POPI   C4A18764   3.757   1.408   7.200 -0.1684 -0.2959 -0.2703
 1215POPI   C1B18765   3.220   0.928   5.908 -0.0740  0.0045 -0.2037
 1215POPI   C2B18766   3.390   0.847   6.316 -0.1223 -0.0849 -0.0195
 1215POPI   C3B18767   3.663   0.773   6.728  0.0962  0.2391  0.1049
 1215POPI   C4B18768   3.525   0.729   7.090 -0.2480 -0.2031  0.0459
 1216POPI    C118769   0.736  13.357   4.565 -0.0050 -0.0349  0.0310
 1216POPI    C218770   0.690  12.995   4.401 -0.0334 -0.0992  0.1794
 1216POPI    C318771   0.562  13.320   4.207 -0.2616 -0.1935  0.1691
 1216POPI   PO418772   0.615  13.314   4.792 -0.0414  0.1932 -0.1978
 1216POPI   GL118773   0.761  13.280   5.148 -0.0327  0.0693 -0.1088
 1216POPI   GL218774   0.523  13.169   5.309 -0.0886  0.0523 -0.0743
 1216POPI   C1A18775   0.717  13.549   5.586  0.0578  0.2654  0.1957
 1216POPI   D2A18776   0.811  13.887   5.792  0.3109 -0.2011 -0.0591
 1216POPI   C3A18777   0.812  13.793   6.192 -0.3755  0.3794 -0.1678
 1216POPI   C4A18778   0.937  13.456   6.516 -0.2170  0.0294 -0.2085
 1216POPI   C1B18779   0.442  12.981   5.778 -0.1401 -0.2815  0.0337
 1216POPI   C2B18780   0.328  13.104   6.114  0.0180 -0.1588  0.0772
 1216POPI   C3B18781   0.319  13.022   6.474 -0.0466 -0.0940  0.0957
 1216POPI   C4B18782   0.231  12.928   6.966  0.1056  0.3210 -0.1022
 1217POPI    C118783  13.528  15.906   5.485  0.2037  0.5320 -0.2032
 1217POPI    C218784  13.192  15.860   5.274 -0.0371  0.1745  0.2414
 1217POPI    C318785  13.514  15.641   5.185 -0.1255  0.0514  0.2210
 1217POPI   PO418786  13.490  16.115   5.567 -0.1396  0.1592  0.2140
 1217POPI   GL118787  13.443  16.355   5.892  0.0343 -0.0513  0.2761
 1217POPI   GL218788  13.698  16.226   5.991 -0.1239 -0.2772 -0.1420
 1217POPI   C1A18789  13.151  16.275   6.254 -0.0568 -0.1199  0.2576
 1217POPI   D2A18790  13.280  16.371   6.636 -0.0804 -0.4860  0.0293
 1217POPI   C3A18791  13.321  16.677   6.917  0.0120 -0.1720  0.2087
 1217POPI   C4A18792  13.382  16.683   7.328  0.1035 -0.1667 -0.0707
 1217POPI   C1B18793  13.698  16.526   6.333  0.2383 -0.0970  0.0792
 1217POPI   C2B18794  13.800  16.437   6.769 -0.1525 -0.0535  0.2383
 1217POPI   C3B18795  13.883  16.509   7.249 -0.0502 -0.0396 -0.0752
 1217POPI   C4B18796  13.745  16.626   7.621  0.2579 -0.3723 -0.0054
 1218POPI    C118797   7.560  11.060   5.249 -0.1522 -0.0617  0.1591
 1218POPI    C218798   7.711  10.929   4.903 -0.0954  0.2412  0.0658
 1218POPI    C318799   7.833  10.768   5.249 -0.2089 -0.1164 -0.0557
 1218POPI   PO418800   7.542  11.325   5.221  0.3731 -0.1852 -0.1796
 1218POPI   GL118801   7.476  11.504   5.658 -0.0922  0.2548 -0.0469
 1218POPI   GL218802   7.090  11.642   5.683  0.0463 -0.1043 -0.0742
 1218POPI   C1A18803   7.149  11.259   5.943 -0.3320 -0.0555  0.0197
 1218POPI   D2A18804   6.898  11.101   6.287 -0.1292 -0.1124 -0.1409
 1218POPI   C3A18805   6.903  11.119   6.703  0.0560 -0.0538  0.1127
 1218POPI   C4A18806   6.980  11.132   7.204  0.0190  0.2231  0.1100
 1218POPI   C1B18807   7.399  11.740   6.111  0.0906 -0.3799  0.1836
 1218POPI   C2B18808   7.589  11.744   6.505 -0.1966 -0.3913  0.0782
 1218POPI   C3B18809   7.695  11.513   6.867 -0.1716 -0.1656 -0.1356
 1218POPI   C4B18810   7.887  11.524   7.249 -0.0515  0.0884 -0.1134
 1219POPI    C118811  10.710  15.911   5.473 -0.1379  0.0012  0.0005
 1219POPI    C218812  10.758  15.515   5.460  0.1236  0.0315 -0.0005
 1219POPI    C318813  11.052  15.756   5.336 -0.0859  0.2245 -0.1280
 1219POPI   PO418814  10.573  16.067   5.770 -0.2523 -0.0323 -0.2595
 1219POPI   GL118815  10.431  15.920   6.147  0.1031  0.0730  0.2083
 1219POPI   GL218816  10.705  15.749   6.155 -0.0511  0.1339 -0.1330
 1219POPI   C1A18817  10.343  15.769   6.573  0.0417 -0.0907 -0.1632
 1219POPI   D2A18818  10.244  15.648   7.027  0.3839  0.1878  0.3082
 1219POPI   C3A18819   9.866  15.406   7.083  0.2326 -0.2391 -0.2475
 1219POPI   C4A18820   9.596  15.020   7.356 -0.0224  0.1259  0.0026
 1219POPI   C1B18821  10.840  15.684   6.534  0.0451 -0.0954  0.0014
 1219POPI   C2B18822  10.797  15.689   7.009  0.0723 -0.0982  0.0747
 1219POPI   C3B18823  10.657  15.448   7.320  0.4221 -0.0402 -0.1052
 1219POPI   C4B18824  10.231  15.368   7.445 -0.2280  0.2719  0.0087
 1220POPI    C118825   1.162  14.908   4.896  0.1289 -0.1026  0.1102
 1220POPI    C218826   1.175  15.148   4.576 -0.0785 -0.0721  0.1234
 1220POPI    C318827   0.955  14.813   4.567 -0.0044 -0.1232  0.1990
 1220POPI   PO418828   1.231  15.136   5.128 -0.1152  0.0621  0.1750
 1220POPI   GL118829   0.930  15.473   5.345  0.2118 -0.1466 -0.2433
 1220POPI   GL218830   1.180  15.413   5.538  0.1273 -0.1908  0.0353
 1220POPI   C1A18831   0.909  15.726   5.835 -0.4066  0.0481  0.1361
 1220POPI   D2A18832   1.006  15.687   6.217 -0.0734  0.3746  0.3157
 1220POPI   C3A18833   0.940  15.558   6.635 -0.1100 -0.1885 -0.0634
 1220POPI   C4A18834   0.967  15.449   7.126  0.4457  0.1781  0.3411
 1220POPI   C1B18835   1.198  15.248   5.859 -0.1646  0.0859  0.0270
 1220POPI   C2B18836   1.064  15.184   6.316 -0.1327  0.0021  0.1178
 1220POPI   C3B18837   1.097  14.946   6.746 -0.0263 -0.1765  0.1122
 1220POPI   C4B18838   1.063  14.823   7.061 -0.2812 -0.2584 -0.0185
 1221POPI    C118839   3.335  14.092   4.671  0.1040  0.0847  0.2240
 1221POPI    C218840   3.476  13.786   4.886  0.1523 -0.0373  0.0215
 1221POPI    C318841   3.217  13.719   4.589 -0.1954  0.1665  0.2724
 1221POPI   PO418842   3.327  14.262   4.844  0.1554  0.0054 -0.3212
 1221POPI   GL118843   3.179  14.420   5.270 -0.1166  0.1491  0.0219
 1221POPI   GL218844   3.265  14.052   5.325  0.1617  0.0138  0.0759
 1221POPI   C1A18845   3.062  14.758   5.587  0.0752  0.1721  0.3220
 1221POPI   D2A18846   2.998  15.204   5.897  0.1058 -0.0566 -0.2158
 1221POPI   C3A18847   2.660  15.368   6.149  0.1658 -0.2558 -0.1408
 1221POPI   C4A18848   2.446  15.699   6.204  0.1311 -0.1852 -0.2553
 1221POPI   C1B18849   3.210  13.933   5.703  0.0525  0.1887  0.3025
 1221POPI   C2B18850   3.114  13.846   6.110  0.0932 -0.3193 -0.0108
 1221POPI   C3B18851   2.998  13.889   6.520 -0.1037  0.2553 -0.0855
 1221POPI   C4B18852   2.719  13.801   6.950  0.2469 -0.0236  0.2365
 1222POPI    C118853   8.702  12.439   5.011  0.1630 -0.3236 -0.0381
 1222POPI    C218854   8.588  12.203   5.314  0.1130 -0.1984  0.0413
 1222POPI    C318855   8.341  12.267   5.006 -0.0090  0.0196  0.1815
 1222POPI   PO418856   8.979  12.551   5.172 -0.2581 -0.0473  0.3374
 1222POPI   GL118857   9.044  12.683   5.569  0.3665  0.0420 -0.1624
 1222POPI   GL218858   9.085  12.285   5.607  0.0170 -0.0895  0.2141
 1222POPI   C1A18859   8.774  12.957   5.867  0.1345  0.0177 -0.0203
 1222POPI   D2A18860   8.768  13.180   6.157  0.1432 -0.0084 -0.3153
 1222POPI   C3A18861   8.707  13.103   6.558  0.0317 -0.0670 -0.1538
 1222POPI   C4A18862   8.519  13.161   7.015  0.1277  0.0024  0.0008
 1222POPI   C1B18863   8.751  12.354   5.883 -0.4221 -0.2078  0.0517
 1222POPI   C2B18864   8.651  12.600   6.239  0.3580  0.1749  0.0523
 1222POPI   C3B18865   8.346  12.496   6.552  0.3946 -0.1526 -0.2142
 1222POPI   C4B18866   8.085  12.194   6.503  0.0126  0.0610 -0.0840
 1223POPI    C118867  16.717  13.412   5.180  0.2564 -0.0774  0.0022
 1223POPI    C218868  16.441  13.548   4.924  0.0790 -0.0740  0.1925
 1223POPI    C318869  16.829  13.623   4.859  0.0604 -0.3059 -0.2203
 1223POPI   PO418870  16.691  13.433   5.460 -0.0309 -0.3358  0.2601
 1223POPI   GL118871  17.023  13.679   5.546 -0.2104 -0.1548 -0.2578
 1223POPI   GL218872  16.817  13.877   5.698  0.0756 -0.1744  0.6326
 1223POPI   C1A18873  17.212  13.668   5.922  0.0049 -0.0244  0.0163
 1223POPI   D2A18874  17.239  13.618   6.339 -0.4307  0.1846  0.1954
 1223POPI   C3A18875  17.502  13.609   6.601  0.0035  0.0212  0.1843
 1223POPI   C4A18876  17.443  13.524   6.943 -0.0931 -0.1164  0.1459
 1223POPI   C1B18877  16.718  13.885   6.163  0.0275  0.1874  0.0939
 1223POPI   C2B18878  16.671  13.925   6.617 -0.2851 -0.1857 -0.1171
 1223POPI   C3B18879  16.705  13.883   7.067  0.1245  0.3666  0.1714
 1223POPI   C4B18880  16.799  14.062   7.380  0.3548 -0.1204 -0.0104
 1224POPI    C118881  11.153   6.939   5.165 -0.0820  0.0201  0.1538
 1224POPI    C218882  11.135   6.802   4.789 -0.2302  0.0016  0.1673
 1224POPI    C318883  11.304   7.157   4.865  0.0142 -0.1015  0.1130
 1224POPI   PO418884  10.904   6.984   5.307 -0.1434 -0.2186  0.0731
 1224POPI   GL118885  10.722   6.820   5.678  0.2736 -0.1935 -0.1548
 1224POPI   GL218886  10.843   7.098   5.816  0.0503  0.1275 -0.4622
 1224POPI   C1A18887  10.595   6.784   6.039 -0.1171  0.0371 -0.0901
 1224POPI   D2A18888  10.761   6.701   6.504  0.0718 -0.0517 -0.1110
 1224POPI   C3A18889  10.554   6.737   6.821 -0.0886 -0.4608  0.0232
 1224POPI   C4A18890  10.533   6.549   7.207 -0.1212 -0.1295 -0.4352
 1224POPI   C1B18891  10.551   7.264   6.123 -0.1016  0.0601  0.0502
 1224POPI   C2B18892  10.539   7.235   6.519  0.3373  0.0176 -0.4664
 1224POPI   C3B18893  10.512   7.238   6.987 -0.1211  0.0302  0.0963
 1224POPI   C4B18894  10.596   7.159   7.428 -0.0007  0.0695  0.2016
 1225POPI    C118895  16.775   0.686   5.258  0.2216 -0.5236  0.0023
 1225POPI    C218896  16.857   0.620   4.872  0.1773  0.2770 -0.1615
 1225POPI    C318897  16.568   0.877   4.975 -0.0566 -0.1926  0.4164
 1225POPI   PO418898  16.787   0.543   5.390  0.1106 -0.0603 -0.1643
 1225POPI   GL118899  16.928   0.659   5.765  0.0096 -0.1206  0.2890
 1225POPI   GL218900  16.917   0.992   5.846  0.1165 -0.0805 -0.0408
 1225POPI   C1A18901  16.940   0.579   6.153 -0.1835  0.1238 -0.1267
 1225POPI   D2A18902  16.928   0.623   6.599  0.1967 -0.0194 -0.0819
 1225POPI   C3A18903  17.347   0.748   6.686 -0.0545 -0.0960  0.1802
 1225POPI   C4A18904  17.490   1.130   6.839 -0.1007  0.2506  0.0212
 1225POPI   C1B18905  17.034   1.127   6.198  0.0259  0.1737  0.1004
 1225POPI   C2B18906  16.993   1.096   6.649 -0.0437 -0.1038  0.1969
 1225POPI   C3B18907  17.038   1.147   7.046  0.0857  0.2779  0.0059
 1225POPI   C4B18908  17.384   1.423   7.303  0.2295  0.0852  0.1101
 1226POPI    C118909  14.836   0.896   5.241 -0.2683 -0.4012 -0.4053
 1226POPI    C218910  14.445   0.952   5.305 -0.2112  0.0212 -0.3976
 1226POPI    C318911  14.624   1.126   4.992  0.0714  0.2562 -0.1122
 1226POPI   PO418912  15.047   0.955   5.511 -0.1044  0.3269  0.1330
 1226POPI   GL118913  15.175   0.622   5.778 -0.1743  0.1058 -0.0206
 1226POPI   GL218914  15.436   0.444   5.771 -0.2966  0.0096  0.1225
 1226POPI   C1A18915  15.057   0.855   6.108 -0.0461 -0.0903 -0.0837
 1226POPI   D2A18916  15.028   0.990   6.574 -0.1786 -0.3474  0.0953
 1226POPI   C3A18917  15.082   0.766   6.927  0.0154 -0.1978 -0.1327
 1226POPI   C4A18918  15.162   0.409   7.160 -0.0348 -0.0360 -0.0149
 1226POPI   C1B18919  15.515   0.467   6.129  0.1474 -0.0172  0.2046
 1226POPI   C2B18920  15.476   0.606   6.472 -0.1759  0.1365  0.2203
 1226POPI   C3B18921  15.566   0.516   6.931 -0.1592  0.1740  0.0616
 1226POPI   C4B18922  15.631   0.636   7.352 -0.0232  0.0632 -0.1360
 1227POPI    C118923  11.053  13.339   5.580  0.0305 -0.0696  0.0604
 1227POPI    C218924  10.750  13.587   5.496 -0.0046 -0.0722  0.1780
 1227POPI    C318925  10.852  13.301   5.235  0.0922  0.1194  0.0026
 1227POPI   PO418926  11.393  13.470   5.755  0.0383  0.1998 -0.0779
 1227POPI   GL118927  11.445  13.723   6.084  0.4746 -0.2033  0.1134
 1227POPI   GL218928  11.293  13.369   6.218  0.2399  0.0740 -0.0121
 1227POPI   C1A18929  11.561  13.865   6.423 -0.1764  0.1144 -0.0855
 1227POPI   D2A18930  11.589  14.033   6.825  0.1343 -0.0439  0.2950
 1227POPI   C3A18931  11.653  13.777   7.203  0.4070 -0.0647 -0.0573
 1227POPI   C4A18932  12.032  13.577   7.237 -0.1039  0.0301 -0.1146
 1227POPI   C1B18933  11.094  13.593   6.514 -0.1965 -0.0952 -0.1985
 1227POPI   C2B18934  11.193  13.655   6.871  0.0406 -0.1073 -0.0488
 1227POPI   C3B18935  11.230  13.486   7.384 -0.2140 -0.3087  0.0786
 1227POPI   C4B18936  11.127  13.342   7.746 -0.0393 -0.0625  0.0059
 1228POPI    C118937  14.672   8.010   4.989  0.0447  0.1962 -0.1299
 1228POPI    C218938  14.591   7.726   4.720 -0.0974  0.0815  0.0316
 1228POPI    C318939  14.636   8.106   4.603  0.0298  0.0036 -0.1771
 1228POPI   PO418940  14.585   7.924   5.269  0.0193  0.0496  0.1447
 1228POPI   GL118941  14.458   7.918   5.717  0.2635  0.5478 -0.0650
 1228POPI   GL218942  14.172   7.876   5.768  0.0417 -0.1548 -0.0706
 1228POPI   C1A18943  14.629   8.003   6.141  0.2782 -0.0241 -0.0077
 1228POPI   D2A18944  14.734   8.116   6.602 -0.1263 -0.2491  0.1301
 1228POPI   C3A18945  14.942   8.165   6.993  0.0850 -0.3124  0.3647
 1228POPI   C4A18946  14.932   8.358   7.404  0.4210  0.2050 -0.1577
 1228POPI   C1B18947  14.160   8.161   6.183 -0.1624  0.0084 -0.0690
 1228POPI   C2B18948  14.245   8.041   6.589 -0.0348  0.1751 -0.3615
 1228POPI   C3B18949  14.453   8.042   6.993 -0.0137  0.2644  0.3598
 1228POPI   C4B18950  14.674   7.918   7.298  0.3151 -0.1451 -0.0375
 1229POPI    C118951   2.997   8.970   5.159 -0.0599 -0.0324  0.0715
 1229POPI    C218952   2.599   9.014   5.157 -0.0615 -0.0448  0.1022
 1229POPI    C318953   2.824   9.219   4.898 -0.0912 -0.0699  0.0563
 1229POPI   PO418954   3.072   9.013   5.332 -0.4546  0.0029 -0.0337
 1229POPI   GL118955   3.155   8.773   5.694  0.1923  0.1056  0.0980
 1229POPI   GL218956   3.003   9.109   5.829 -0.0017  0.1465 -0.3248
 1229POPI   C1A18957   3.083   8.810   6.209 -0.0365  0.3035 -0.2348
 1229POPI   D2A18958   3.043   8.685   6.633  0.0764  0.1452  0.0991
 1229POPI   C3A18959   3.071   8.846   7.089  0.0386 -0.1682 -0.3666
 1229POPI   C4A18960   2.814   9.081   7.453  0.0889 -0.0223 -0.0268
 1229POPI   C1B18961   3.124   9.373   6.276 -0.1051  0.2856 -0.0754
 1229POPI   C2B18962   3.200   9.208   6.617 -0.2133  0.2696 -0.1906
 1229POPI   C3B18963   3.227   9.412   6.972 -0.0036  0.0653  0.0081
 1229POPI   C4B18964   3.197   9.373   7.321  0.0417 -0.0541 -0.2461
 1230POPI    C118965   4.090  15.515   4.822 -0.3864  0.0732  0.1927
 1230POPI    C218966   3.891  15.738   4.555  0.0244  0.1612 -0.0498
 1230POPI    C318967   4.285  15.788   4.603 -0.0121  0.0237  0.4551
 1230POPI   PO418968   4.046  15.657   5.074 -0.0161 -0.0219  0.4056
 1230POPI   GL118969   3.833  15.547   5.449  0.0754  0.4191 -0.0589
 1230POPI   GL218970   3.943  15.192   5.416  0.1994 -0.1836  0.0751
 1230POPI   C1A18971   3.895  15.567   5.901 -0.0738  0.1007 -0.4400
 1230POPI   D2A18972   3.788  15.451   6.124  0.0177  0.1453 -0.2577
 1230POPI   C3A18973   3.847  15.400   6.571  0.1195  0.1870  0.0764
 1230POPI   C4A18974   3.837  15.160   6.994 -0.0997  0.0045  0.0110
 1230POPI   C1B18975   4.078  14.970   5.826 -0.0772 -0.0557  0.0299
 1230POPI   C2B18976   4.126  14.972   6.206 -0.4091 -0.3113 -0.4238
 1230POPI   C3B18977   4.113  14.996   6.576 -0.0297  0.1361 -0.0414
 1230POPI   C4B18978   4.284  14.946   6.947  0.0885 -0.1826 -0.0383
 1231POPI    C118979  10.005  12.354   5.257 -0.1460  0.0310  0.1443
 1231POPI    C218980  10.100  11.993   5.115 -0.1551  0.0364  0.1248
 1231POPI    C318981  10.184  12.320   4.901 -0.1884  0.0429  0.1219
 1231POPI   PO418982  10.011  12.253   5.565 -0.1600  0.2048  0.2432
 1231POPI   GL118983  10.006  12.298   5.899 -0.0364 -0.1026  0.2253
 1231POPI   GL218984  10.307  12.401   5.966 -0.1333 -0.1216  0.0094
 1231POPI   C1A18985   9.782  12.031   6.179  0.0443 -0.0376  0.0715
 1231POPI   D2A18986   9.437  11.979   6.533 -0.3426  0.0615 -0.1292
 1231POPI   C3A18987   9.520  12.039   7.020 -0.1488 -0.3914  0.1961
 1231POPI   C4A18988   9.423  12.039   7.461  0.0375 -0.0710  0.0433
 1231POPI   C1B18989  10.108  12.506   6.347 -0.3750  0.0403 -0.3324
 1231POPI   C2B18990   9.895  12.567   6.745 -0.0587  0.0213 -0.0578
 1231POPI   C3B18991   9.619  12.538   7.026  0.1021  0.0338  0.4482
 1231POPI   C4B18992   9.248  12.493   7.172 -0.0361 -0.2400  0.1418
 1232POPI    C118993  11.902  14.527   5.142  0.1369  0.0125  0.1139
 1232POPI    C218994  11.814  14.915   5.186 -0.0712 -0.0423  0.1941
 1232POPI    C318995  11.871  14.763   4.820 -0.2249  0.0143  0.1461
 1232POPI   PO418996  11.808  14.438   5.461  0.0490 -0.1365  0.0651
 1232POPI   GL118997  11.935  14.242   5.810  0.3390  0.2878 -0.2237
 1232POPI   GL218998  11.806  14.133   6.057  0.0215  0.0897 -0.1369
 1232POPI   C1A18999  12.286  14.092   6.107 -0.1404  0.2756  0.0777
 1232POPI   D2A19000  12.322  13.717   6.232  0.1847  0.3048  0.1595
 1232POPI   C3A19001  12.483  13.647   6.644 -0.1277 -0.2919 -0.0786
 1232POPI   C4A19002  12.438  13.384   6.871  0.1098 -0.0324  0.1202
 1232POPI   C1B19003  11.923  14.251   6.467 -0.0391 -0.0046 -0.2117
 1232POPI   C2B19004  12.022  14.594   6.723  0.3055  0.0051  0.2565
 1232POPI   C3B19005  11.857  14.841   7.060  0.0565 -0.2274  0.0703
 1232POPI   C4B19006  11.903  14.623   7.462 -0.0080 -0.2989  0.1034
 1233POPI    C119007   5.738   8.977   4.861  0.0261 -0.0751  0.0270
 1233POPI    C219008   5.642   8.631   4.684  0.5228 -0.2624  0.1076
 1233POPI    C319009   5.796   8.930   4.468 -0.0429 -0.0270  0.0108
 1233POPI   PO419010   5.860   8.964   5.075  0.0616  0.0043  0.0862
 1233POPI   GL119011   6.049   8.986   5.579  0.1147 -0.0013 -0.1778
 1233POPI   GL219012   5.947   8.745   5.508 -0.0736 -0.2653 -0.3447
 1233POPI   C1A19013   6.302   8.641   5.821  0.1736 -0.1502 -0.2272
 1233POPI   D2A19014   6.133   8.266   5.999 -0.2289  0.2815  0.1046
 1233POPI   C3A19015   6.307   7.816   6.090  0.4534  0.0236  0.0947
 1233POPI   C4A19016   6.220   7.430   5.918 -0.0760 -0.0778 -0.0702
 1233POPI   C1B19017   5.794   8.652   5.998  0.0749  0.0726 -0.0154
 1233POPI   C2B19018   5.757   8.407   6.351  0.0025  0.2802  0.0326
 1233POPI   C3B19019   5.725   8.220   6.760  0.2707 -0.0044  0.3211
 1233POPI   C4B19020   5.821   8.174   7.249  0.1633  0.0795 -0.0213
 1234POPI    C119021  13.686   0.567   5.369  0.1879 -0.1356  0.0920
 1234POPI    C219022  13.411   0.302   5.250  0.0187 -0.0056  0.1890
 1234POPI    C319023  13.471   0.637   5.039  0.2060 -0.1020  0.0873
 1234POPI   PO419024  13.678   0.617   5.601 -0.0413 -0.0662  0.0086
 1234POPI   GL119025  13.480   0.645   5.993 -0.0825  0.2277 -0.0449
 1234POPI   GL219026  13.612   1.051   5.903  0.0191  0.2104 -0.1059
 1234POPI   C1A19027  13.414   0.470   6.407 -0.0108 -0.0952  0.2585
 1234POPI   D2A19028  13.390   0.433   6.875 -0.3094  0.0979  0.1506
 1234POPI   C3A19029  13.147   0.791   6.984  0.1363  0.0072 -0.0997
 1234POPI   C4A19030  12.938   1.078   7.367 -0.0273 -0.2810 -0.1414
 1234POPI   C1B19031  13.480   1.311   6.144 -0.1612  0.4816 -0.1378
 1234POPI   C2B19032  13.268   1.573   6.425 -0.0627  0.0811 -0.3241
 1234POPI   C3B19033  13.314   1.769   6.863 -0.0750 -0.5128 -0.0220
 1234POPI   C4B19034  13.438   1.817   7.255  0.1534 -0.0853 -0.0080
 1235POPI    C119035   0.185   3.193   4.864  0.1217 -0.0594  0.0005
 1235POPI    C219036   0.092   2.809   4.801  0.0884 -0.0481 -0.0187
 1235POPI    C319037   0.319   3.006   4.536 -0.1184  0.0219 -0.1465
 1235POPI   PO419038   0.267   3.230   5.093 -0.2122 -0.2723 -0.2122
 1235POPI   GL119039   0.021   3.313   5.432  0.0762 -0.1653 -0.0285
 1235POPI   GL219040  -0.073   3.108   5.554 -0.3029 -0.0491 -0.4191
 1235POPI   C1A19041   0.170   3.499   5.758  0.1340 -0.0393 -0.0604
 1235POPI   D2A19042  -0.128   3.712   5.871 -0.1787 -0.2770  0.0243
 1235POPI   C3A19043  -0.174   3.735   6.326 -0.1368  0.2774  0.0966
 1235POPI   C4A19044  -0.118   3.722   6.729 -0.1035 -0.3152 -0.3153
 1235POPI   C1B19045   0.166   3.009   6.016  0.2046  0.0585 -0.0933
 1235POPI   C2B19046   0.386   3.308   6.168  0.3942  0.2645 -0.0164
 1235POPI   C3B19047   0.701   3.356   6.425 -0.2574 -0.2450  0.2539
 1235POPI   C4B19048   0.784   3.549   6.818  0.0669 -0.0415  0.2085
 1236POPI    C119049   4.578   0.913   4.478 -0.0924  0.1748  0.1956
 1236POPI    C219050   4.196   1.002   4.399 -0.0463  0.1949 -0.0116
 1236POPI    C319051   4.470   1.023   4.109  0.1203  0.2192  0.1453
 1236POPI   PO419052   4.565   1.006   4.751  0.2916 -0.2392 -0.0232
 1236POPI   GL119053   4.569   1.176   5.120 -0.0814  0.3877  0.2327
 1236POPI   GL219054   4.704   1.280   5.330  0.2436  0.0259 -0.0047
 1236POPI   C1A19055   4.421   0.926   5.551  0.3199  0.0540  0.0563
 1236POPI   D2A19056   4.261   1.043   6.027  0.1528 -0.2816 -0.0055
 1236POPI   C3A19057   4.244   1.011   6.412 -0.1986 -0.1610  0.0175
 1236POPI   C4A19058   4.171   0.739   6.682 -0.2447  0.0397  0.4094
 1236POPI   C1B19059   4.628   1.269   5.788 -0.1191 -0.1612  0.1006
 1236POPI   C2B19060   4.707   1.288   6.189 -0.3030  0.1011  0.0769
 1236POPI   C3B19061   4.705   1.385   6.670 -0.3854  0.0352 -0.2791
 1236POPI   C4B19062   4.670   1.559   7.092 -0.0498  0.1455 -0.1148
 1237POPI    C119063  17.837   7.902   5.162  0.2626 -0.0743  0.2475
 1237POPI    C219064  17.550   8.158   5.051  0.1363 -0.3012  0.0414
 1237POPI    C319065  17.888   8.131   4.838  0.3019 -0.0554  0.2670
 1237POPI   PO419066  17.823   7.883   5.438 -0.0247 -0.1940 -0.2385
 1237POPI   GL119067  17.761   8.014   5.827 -0.0835 -0.0639 -0.1774
 1237POPI   GL219068  17.556   7.817   6.007  0.2933 -0.3179  0.1746
 1237POPI   C1A19069  17.969   7.989   6.180 -0.0329 -0.0889  0.1580
 1237POPI   D2A19070  17.889   8.111   6.612 -0.1356  0.1357 -0.2848
 1237POPI   C3A19071  18.044   8.195   7.034  0.0361  0.0853  0.2705
 1237POPI   C4A19072  18.179   8.166   7.388 -0.0164 -0.0578 -0.0276
 1237POPI   C1B19073  17.490   7.725   6.417 -0.1228  0.1063 -0.1035
 1237POPI   C2B19074  17.157   7.816   6.746  0.2795  0.2392  0.0121
 1237POPI   C3B19075  17.014   8.059   6.996 -0.2496  0.0707 -0.1533
 1237POPI   C4B19076  16.805   8.150   7.511  0.0668  0.1997  0.0955
 1238POPI    C119077   1.523  10.062   4.853  0.0936 -0.0760  0.1932
 1238POPI    C219078   1.488   9.674   4.760  0.1327 -0.0325 -0.0067
 1238POPI    C319079   1.763   9.900   4.577  0.2794  0.0330  0.2891
 1238POPI   PO419080   1.559  10.032   5.149  0.2465  0.1658 -0.1572
 1238POPI   GL119081   1.709   9.783   5.435 -0.2033  0.1791  0.3051
 1238POPI   GL219082   1.795   9.730   5.788  0.1481  0.3088  0.2101
 1238POPI   C1A19083   1.330   9.738   5.703  0.0552  0.0367  0.0976
 1238POPI   D2A19084   1.061   9.743   5.968  0.0788  0.1711 -0.1180
 1238POPI   C3A19085   1.190   9.504   6.329 -0.3089  0.1642 -0.0795
 1238POPI   C4A19086   1.238   9.233   6.699  0.1865  0.1514 -0.1384
 1238POPI   C1B19087   1.778   9.628   6.199  0.0785  0.0859 -0.1760
 1238POPI   C2B19088   1.816   9.690   6.650  0.1120 -0.1102  0.0004
 1238POPI   C3B19089   1.770   9.707   7.077 -0.0466  0.1019  0.0231
 1238POPI   C4B19090   1.843   9.636   7.488 -0.1036  0.3987 -0.0011
 1239POPI    C119091   9.547  14.442   5.488 -0.0242 -0.2392  0.0731
 1239POPI    C219092   9.157  14.410   5.572 -0.0900  0.0326 -0.1135
 1239POPI    C319093   9.290  14.327   5.204  0.0506 -0.1897 -0.0150
 1239POPI   PO419094   9.702  14.468   5.636  0.1390  0.0690 -0.2029
 1239POPI   GL119095   9.749  14.786   5.976  0.2126  0.1417  0.2928
 1239POPI   GL219096   9.402  14.803   5.871 -0.1349 -0.0364  0.1054
 1239POPI   C1A19097   9.600  14.663   6.283 -0.0303  0.1350  0.2127
 1239POPI   D2A19098   9.297  14.438   6.595 -0.1236  0.0999 -0.0501
 1239POPI   C3A19099   9.232  14.335   7.012  0.0484 -0.2657  0.0755
 1239POPI   C4A19100   9.165  14.432   7.495 -0.0965 -0.0410  0.2718
 1239POPI   C1B19101   9.083  14.672   6.206  0.0679  0.0887  0.0542
 1239POPI   C2B19102   8.857  14.597   6.735  0.0429 -0.5009 -0.0564
 1239POPI   C3B19103   8.612  14.759   7.025  0.2084  0.1970  0.0061
 1239POPI   C4B19104   8.409  15.008   7.346  0.3858  0.1203 -0.0827
 1240POPI    C119105  13.920   5.746   5.367 -0.1100  0.0851  0.1167
 1240POPI    C219106  14.150   6.071   5.402  0.0874 -0.0295 -0.0949
 1240POPI    C319107  13.903   6.033   5.090  0.1047 -0.1068 -0.0994
 1240POPI   PO419108  13.988   5.626   5.580 -0.0280 -0.0803  0.0887
 1240POPI   GL119109  13.964   5.143   5.830  0.3280 -0.0334 -0.0845
 1240POPI   GL219110  13.669   5.141   5.851  0.1413 -0.0319 -0.2111
 1240POPI   C1A19111  13.910   4.893   6.234  0.3071  0.0873  0.0433
 1240POPI   D2A19112  13.950   4.949   6.615  0.0247  0.0986  0.4528
 1240POPI   C3A19113  13.972   4.936   7.009 -0.1708  0.1135 -0.2878
 1240POPI   C4A19114  14.006   4.960   7.394 -0.1152 -0.0151 -0.0660
 1240POPI   C1B19115  13.343   5.027   6.076 -0.2776 -0.2308 -0.1102
 1240POPI   C2B19116  13.092   5.156   6.397  0.1025 -0.2806 -0.0275
 1240POPI   C3B19117  12.965   5.166   6.776  0.0945 -0.0477  0.0020
 1240POPI   C4B19118  12.659   5.257   7.028 -0.0186 -0.1304  0.1387
 1241POPI    C119119  12.443  13.635   5.717  0.3144 -0.1413 -0.1851
 1241POPI    C219120  12.286  13.943   5.515  0.0300  0.0143  0.2600
 1241POPI    C319121  12.252  13.571   5.371  0.0599  0.1484 -0.1026
 1241POPI   PO419122  12.694  13.689   5.764  0.0570 -0.0683  0.3030
 1241POPI   GL119123  12.829  13.833   6.172 -0.4047 -0.1450 -0.0109
 1241POPI   GL219124  13.000  13.490   6.111 -0.0048 -0.3923  0.0582
 1241POPI   C1A19125  12.664  14.060   6.510  0.1298 -0.0580 -0.2176
 1241POPI   D2A19126  12.386  14.166   6.787  0.0833 -0.2512 -0.1839
 1241POPI   C3A19127  12.091  13.939   6.836  0.0801  0.1049  0.2057
 1241POPI   C4A19128  12.005  13.586   6.565  0.1490  0.3393 -0.1733
 1241POPI   C1B19129  12.935  13.470   6.512 -0.0393  0.1979 -0.2725
 1241POPI   C2B19130  12.923  13.363   6.943 -0.0272 -0.0278  0.1243
 1241POPI   C3B19131  12.660  13.363   7.330  0.0830 -0.3520 -0.0386
 1241POPI   C4B19132  12.423  13.580   7.596 -0.1074  0.0966 -0.6218
 1242POPI    C119133  16.770  18.250   5.054  0.0584 -0.1031  0.0303
 1242POPI    C219134  17.032  18.022   5.252  0.2057 -0.1025 -0.1612
 1242POPI    C319135  17.063  18.063   4.855  0.1703  0.2361 -0.1319
 1242POPI   PO419136  16.537  18.161   5.162 -0.3073 -0.0444 -0.0897
 1242POPI   GL119137  16.642  18.048   5.551  0.0864 -0.1905 -0.0782
 1242POPI   GL219138  16.626  18.319   5.646  0.1185  0.0033 -0.0704
 1242POPI   C1A19139  16.980  17.853   5.788  0.3318  0.1539  0.1234
 1242POPI   D2A19140  17.212  17.794   6.178  0.0925 -0.2470 -0.1967
 1242POPI   C3A19141  17.051  18.132   6.425 -0.0175  0.3560 -0.2785
 1242POPI   C4A19142  17.179  18.394   6.753 -0.1283  0.1489  0.0886
 1242POPI   C1B19143  16.681  18.153   6.048 -0.2486  0.0106 -0.2716
 1242POPI   C2B19144  16.565  18.152   6.425 -0.0508 -0.0750  0.2588
 1242POPI   C3B19145  16.740  18.210   6.869 -0.0015  0.1069 -0.1380
 1242POPI   C4B19146  16.871  17.908   7.125 -0.1822 -0.0235 -0.2107
 1243POPI    C119147   6.003  17.336   4.774 -0.1713 -0.1497  0.0204
 1243POPI    C219148   6.388  17.228   4.774 -0.1040  0.0792 -0.2467
 1243POPI    C319149   6.114  16.990   4.608 -0.0915 -0.1219  0.0150
 1243POPI   PO419150   5.959  17.535   5.052 -0.1183  0.1390  0.2299
 1243POPI   GL119151   5.910  17.527   5.415 -0.3196 -0.0723 -0.2433
 1243POPI   GL219152   5.799  17.844   5.446  0.0377  0.1133  0.1882
 1243POPI   C1A19153   5.823  17.272   5.866  0.2072 -0.0880  0.0747
 1243POPI   D2A19154   6.182  17.104   6.040 -0.1462  0.0660 -0.0687
 1243POPI   C3A19155   6.149  17.132   6.458  0.2442  0.3398 -0.2144
 1243POPI   C4A19156   6.041  17.105   6.892 -0.0448  0.2267  0.0880
 1243POPI   C1B19157   5.690  17.786   5.903  0.0596  0.2172  0.0899
 1243POPI   C2B19158   5.516  17.756   6.191  0.0717 -0.1278  0.0347
 1243POPI   C3B19159   5.336  17.630   6.550 -0.1076  0.0805  0.2319
 1243POPI   C4B19160   5.358  17.823   6.882  0.0423  0.2416 -0.0670
 1244POPI    C119161  11.577  16.189   5.608  0.2457 -0.0676 -0.1289
 1244POPI    C219162  11.267  16.212   5.356  0.0522  0.1680  0.1246
 1244POPI    C319163  11.606  16.408   5.275 -0.0897  0.4313  0.1564
 1244POPI   PO419164  11.555  16.158   5.896  0.0777  0.0847 -0.1314
 1244POPI   GL119165  11.255  16.209   6.242 -0.1015  0.1667 -0.0249
 1244POPI   GL219166  11.362  16.472   6.226 -0.1935 -0.0620 -0.2112
 1244POPI   C1A19167  11.194  16.028   6.725 -0.1190  0.2284  0.0135
 1244POPI   D2A19168  11.172  16.023   7.111  0.0741 -0.1019 -0.3105
 1244POPI   C3A19169  11.204  15.990   7.452  0.1084 -0.4506  0.2220
 1244POPI   C4A19170  11.366  16.018   7.926  0.0628 -0.0268  0.0588
 1244POPI   C1B19171  11.092  16.575   6.471  0.0557 -0.1478 -0.1830
 1244POPI   C2B19172  10.998  16.485   6.917 -0.0925  0.2045 -0.0423
 1244POPI   C3B19173  10.938  16.426   7.377  0.1229  0.2279 -0.0547
 1244POPI   C4B19174  10.765  16.229   7.766  0.0092 -0.1999  0.1234
 1245POPI    C119175   9.431  12.346   5.205  0.1545  0.0106 -0.0212
 1245POPI    C219176   9.618  12.245   4.866  0.1800 -0.0518  0.0113
 1245POPI    C319177   9.621  11.995   5.179  0.0378 -0.0556  0.0104
 1245POPI   PO419178   9.483  12.571   5.315  0.0615  0.2399  0.0551
 1245POPI   GL119179   9.592  12.482   5.767 -0.2313 -0.3367 -0.1609
 1245POPI   GL219180   9.544  12.156   5.663 -0.0264 -0.2496 -0.0004
 1245POPI   C1A19181   9.267  12.619   5.995  0.0312 -0.0308 -0.0731
 1245POPI   D2A19182   9.178  12.875   6.384  0.1193  0.0987 -0.5041
 1245POPI   C3A19183   9.437  12.914   6.762 -0.0892  0.1811 -0.2910
 1245POPI   C4A19184   9.799  13.074   6.906 -0.0524  0.1113 -0.2567
 1245POPI   C1B19185   9.295  12.044   6.044  0.3343  0.0417 -0.3407
 1245POPI   C2B19186   9.051  12.246   6.350  0.1415  0.0936 -0.1335
 1245POPI   C3B19187   8.975  12.607   6.690 -0.1599  0.1806  0.0044
 1245POPI   C4B19188   8.997  12.918   7.072  0.0219  0.0419  0.2768
 1246POPI    C119189   7.306  13.322   5.311 -0.0669  0.0453 -0.2239
 1246POPI    C219190   7.020  13.257   5.038 -0.1387  0.0420 -0.1485
 1246POPI    C319191   6.952  13.171   5.423 -0.0507  0.0805 -0.1239
 1246POPI   PO419192   7.378  13.600   5.242  0.0806  0.1342  0.0102
 1246POPI   GL119193   7.314  13.808   5.573 -0.2101 -0.1139  0.0419
 1246POPI   GL219194   7.035  13.700   5.700  0.3359  0.1507  0.6252
 1246POPI   C1A19195   7.430  13.590   5.999  0.2598 -0.4158  0.0956
 1246POPI   D2A19196   7.461  13.498   6.395  0.1997  0.4350  0.1018
 1246POPI   C3A19197   7.679  13.368   6.719  0.0212 -0.0240 -0.1720
 1246POPI   C4A19198   7.978  13.346   7.070  0.3611  0.0046 -0.0198
 1246POPI   C1B19199   6.948  13.399   5.971  0.0865 -0.0291  0.1718
 1246POPI   C2B19200   6.944  13.403   6.380 -0.1141 -0.1915  0.0958
 1246POPI   C3B19201   6.954  13.517   6.776  0.1926  0.4108  0.2204
 1246POPI   C4B19202   7.287  13.387   7.010  0.0302 -0.0382  0.0477
 1247DPPI    C119203  11.143  12.045   5.042 -0.3044  0.1823  0.0276
 1247DPPI    C219204  11.205  12.406   4.882 -0.0002  0.1474  0.0602
 1247DPPI    C319205  11.287  12.077   4.670  0.0583  0.0993  0.1567
 1247DPPI   PO419206  11.309  12.014   5.250 -0.2760 -0.2995  0.0423
 1247DPPI   GL119207  11.419  11.879   5.650 -0.0282 -0.0388 -0.0824
 1247DPPI   GL219208  11.190  12.073   5.809  0.1214 -0.3362 -0.1422
 1247DPPI   C1A19209  11.533  11.569   6.087  0.2212 -0.2001  0.2559
 1247DPPI   C2A19210  11.774  11.412   6.530  0.1514 -0.1967  0.2691
 1247DPPI   C3A19211  11.745  11.325   6.993 -0.0073  0.0468  0.1409
 1247DPPI   C4A19212  11.633  11.286   7.365 -0.2349 -0.0642 -0.0833
 1247DPPI   C1B19213  11.161  11.854   6.221  0.2549 -0.0238  0.1309
 1247DPPI   C2B19214  11.177  11.566   6.594 -0.0349  0.0259 -0.4131
 1247DPPI   C3B19215  11.251  11.391   6.967 -0.2460 -0.0776 -0.0328
 1247DPPI   C4B19216  11.141  11.379   7.412  0.0362  0.1093  0.1460
 1248DPPI    C119217   9.725  18.221   5.134 -0.2223  0.0592 -0.0252
 1248DPPI    C219218  10.062  18.179   4.923  0.0471 -0.0511  0.4121
 1248DPPI    C319219   9.752  17.936   4.855 -0.0013  0.1380 -0.0871
 1248DPPI   PO419220   9.847  18.301   5.348 -0.2828 -0.1706  0.0400
 1248DPPI   GL119221   9.837  18.012   5.754  0.1152 -0.0534  0.1794
 1248DPPI   GL219222   9.804  18.377   5.867  0.0940 -0.3157  0.2156
 1248DPPI   C1A19223   9.873  18.042   6.191  0.0608  0.0965  0.1938
 1248DPPI   C2A19224   9.887  18.157   6.560  0.1091  0.2159  0.2922
 1248DPPI   C3A19225   9.951  18.206   7.007 -0.0847  0.0451 -0.1995
 1248DPPI   C4A19226   9.947  18.179   7.467 -0.0731 -0.3567  0.4702
 1248DPPI   C1B19227   9.797  18.557   6.287  0.1321  0.0140  0.1385
 1248DPPI   C2B19228   9.953  18.639   6.651  0.0422  0.0042  0.1083
 1248DPPI   C3B19229  10.093  18.721   6.970  0.1898 -0.1474  0.0733
 1248DPPI   C4B19230  10.298  18.563   7.403  0.1708  0.0940  0.2295
 1249DPPI    C119231   8.366  13.309   5.418  0.1877  0.4006  0.0338
 1249DPPI    C219232   8.748  13.215   5.346  0.0657  0.0762 -0.2122
 1249DPPI    C319233   8.504  13.306   5.043 -0.0920  0.1269 -0.0712
 1249DPPI   PO419234   8.237  13.026   5.532 -0.0601 -0.2913  0.1273
 1249DPPI   GL119235   8.295  13.012   5.958  0.0913 -0.0808  0.1811
 1249DPPI   GL219236   8.298  12.641   5.909  0.0277  0.1247  0.2861
 1249DPPI   C1A19237   8.289  13.263   6.318 -0.1318  0.2521  0.0178
 1249DPPI   C2A19238   8.229  13.601   6.553  0.0035 -0.3887 -0.3064
 1249DPPI   C3A19239   8.394  14.080   6.553 -0.1544 -0.0175  0.2694
 1249DPPI   C4A19240   8.511  14.417   6.349 -0.2181  0.3062  0.0704
 1249DPPI   C1B19241   8.084  12.746   6.276  0.1543  0.1741  0.0995
 1249DPPI   C2B19242   8.169  12.962   6.678  0.5151 -0.0546 -0.3604
 1249DPPI   C3B19243   8.123  12.786   7.148  0.0636  0.1336 -0.1256
 1249DPPI   C4B19244   7.822  12.413   7.346  0.0581  0.1427 -0.2037
 1250DPPI    C119245  11.077  10.995   5.294 -0.0162 -0.1487  0.0478
 1250DPPI    C219246  10.934  10.622   5.322 -0.1561 -0.1089 -0.1179
 1250DPPI    C319247  10.755  10.887   5.082 -0.1576  0.1139  0.1244
 1250DPPI   PO419248  11.232  11.019   5.443 -0.0437 -0.4361 -0.0683
 1250DPPI   GL119249  11.220  11.231   5.789  0.1704 -0.3372 -0.2140
 1250DPPI   GL219250  11.086  11.481   5.755 -0.1719  0.0953 -0.2781
 1250DPPI   C1A19251  10.905  10.969   6.062  0.1462 -0.0781 -0.0031
 1250DPPI   C2A19252  10.697  10.598   5.962  0.0147 -0.1098 -0.0142
 1250DPPI   C3A19253  10.784  10.162   6.153  0.0544 -0.0143 -0.0634
 1250DPPI   C4A19254  10.978   9.809   6.341 -0.1038 -0.0183 -0.2114
 1250DPPI   C1B19255  10.847  11.460   6.201 -0.4652  0.1800  0.0599
 1250DPPI   C2B19256  10.686  11.639   6.488  0.0741 -0.2884  0.1542
 1250DPPI   C3B19257  10.515  11.877   6.804 -0.0655 -0.3191 -0.4044
 1250DPPI   C4B19258  10.544  12.156   7.260 -0.0477 -0.1412 -0.0864
 1251DPPI    C119259  17.683  10.784   5.167  0.1952 -0.0709 -0.0980
 1251DPPI    C219260  17.627  10.992   4.830 -0.0075 -0.1501 -0.1145
 1251DPPI    C319261  17.620  10.592   4.822 -0.3700 -0.1508  0.0401
 1251DPPI   PO419262  17.841  10.886   5.340 -0.2384 -0.1281 -0.1189
 1251DPPI   GL119263  17.978  10.917   5.769  0.0958  0.1357 -0.0827
 1251DPPI   GL219264  18.173  11.196   5.680 -0.0494  0.0295  0.1209
 1251DPPI   C1A19265  18.062  10.434   5.850 -0.0100 -0.2571 -0.0673
 1251DPPI   C2A19266  18.251  10.229   6.140 -0.2263 -0.0842 -0.1388
 1251DPPI   C3A19267  18.576  10.204   6.463  0.1257  0.1120  0.0901
 1251DPPI   C4A19268  18.967  10.261   6.582  0.0511  0.4518 -0.0765
 1251DPPI   C1B19269  18.385  11.201   6.136  0.0187  0.1105  0.3385
 1251DPPI   C2B19270  18.603  11.044   6.436 -0.4087  0.2449  0.0790
 1251DPPI   C3B19271  18.534  11.079   6.865 -0.1630 -0.3460  0.2953
 1251DPPI   C4B19272  18.536  10.794   7.321 -0.2853 -0.0659  0.1919
 1252DPPI    C119273  14.483  12.486   5.096  0.1626 -0.2193 -0.2400
 1252DPPI    C219274  14.323  12.434   4.733 -0.1207  0.0332 -0.1556
 1252DPPI    C319275  14.448  12.796   4.847  0.0547 -0.0636 -0.0338
 1252DPPI   PO419276  14.278  12.375   5.241  0.0586 -0.0591 -0.2752
 1252DPPI   GL119277  14.117  12.363   5.668  0.2738 -0.2509  0.1444
 1252DPPI   GL219278  14.025  12.069   5.625 -0.0620 -0.1233  0.0571
 1252DPPI   C1A19279  13.918  12.481   6.095 -0.0427  0.2513  0.0592
 1252DPPI   C2A19280  13.740  12.348   6.501  0.1530  0.0450 -0.2270
 1252DPPI   C3A19281  13.722  12.411   7.003  0.0798 -0.0439 -0.2105
 1252DPPI   C4A19282  13.865  12.823   7.204  0.0899  0.1043  0.0012
 1252DPPI   C1B19283  13.956  11.622   5.812  0.0728 -0.0926 -0.1309
 1252DPPI   C2B19284  13.957  11.513   6.224 -0.1466  0.3893  0.2373
 1252DPPI   C3B19285  13.774  11.380   6.647  0.0453 -0.1154  0.5702
 1252DPPI   C4B19286  13.659  11.369   7.054 -0.4261 -0.1549  0.3026
 1253DPPI    C119287   8.277  15.359   5.069  0.1504 -0.3373 -0.2153
 1253DPPI    C219288   8.124  15.305   4.704  0.0267 -0.0851 -0.2027
 1253DPPI    C319289   8.236  15.671   4.822  0.3723 -0.2180 -0.1055
 1253DPPI   PO419290   8.176  15.221   5.250 -0.0736 -0.2524 -0.0129
 1253DPPI   GL119291   8.241  15.189   5.584 -0.0152  0.2577  0.0639
 1253DPPI   GL219292   8.422  15.539   5.527  0.2174  0.1063  0.0186
 1253DPPI   C1A19293   8.039  15.126   5.896 -0.1008  0.0682  0.0379
 1253DPPI   C2A19294   7.886  15.162   6.428 -0.1269 -0.3675  0.0118
 1253DPPI   C3A19295   7.749  15.266   6.815  0.1594  0.3469  0.1655
 1253DPPI   C4A19296   7.711  15.238   7.194 -0.0987  0.3150 -0.0846
 1253DPPI   C1B19297   8.503  15.444   5.951  0.1530 -0.2593  0.0411
 1253DPPI   C2B19298   8.372  15.396   6.384 -0.1919 -0.2983  0.0128
 1253DPPI   C3B19299   8.337  15.334   6.870 -0.0103 -0.3152 -0.4316
 1253DPPI   C4B19300   8.217  15.431   7.260  0.2524  0.1201  0.0811
 1254DPPI    C119301   9.582  17.776   5.328  0.1549  0.0056 -0.2536
 1254DPPI    C219302   9.364  17.636   5.023 -0.2055 -0.2624  0.1158
 1254DPPI    C319303   9.551  17.382   5.270  0.1468 -0.0461  0.0782
 1254DPPI   PO419304   9.491  17.930   5.452 -0.0997 -0.0967  0.1602
 1254DPPI   GL119305   9.387  18.142   5.910  0.0685 -0.0510  0.1276
 1254DPPI   GL219306   9.127  18.302   5.954  0.1285 -0.1420 -0.3154
 1254DPPI   C1A19307   9.429  18.218   6.358  0.1544 -0.0900 -0.4065
 1254DPPI   C2A19308   9.383  18.106   6.737  0.1602  0.1420 -0.2394
 1254DPPI   C3A19309   9.473  18.228   7.181  0.0173 -0.0037 -0.3279
 1254DPPI   C4A19310   9.510  18.333   7.669  0.0041 -0.1515  0.5223
 1254DPPI   C1B19311   9.038  18.510   6.221  0.0795 -0.0238  0.1133
 1254DPPI   C2B19312   9.031  18.399   6.665  0.2681  0.0618 -0.0371
 1254DPPI   C3B19313   9.032  18.409   7.121  0.0937 -0.0440  0.3481
 1254DPPI   C4B19314   8.849  18.441   7.625 -0.0478  0.2299  0.0893
 1255DPPI    C119315  11.945  12.815   5.433 -0.1009 -0.1609  0.0944
 1255DPPI    C219316  11.957  13.201   5.537  0.1272 -0.1040 -0.1325
 1255DPPI    C319317  11.909  13.098   5.153 -0.0618 -0.3042 -0.0575
 1255DPPI   PO419318  11.920  12.686   5.684 -0.2317  0.1009 -0.0256
 1255DPPI   GL119319  11.687  12.628   6.040  0.1816 -0.1238 -0.1306
 1255DPPI   GL219320  11.883  12.521   6.238 -0.1278  0.2343  0.1370
 1255DPPI   C1A19321  11.507  12.915   6.320  0.1389 -0.0251  0.0429
 1255DPPI   C2A19322  11.492  13.092   6.730 -0.2833 -0.0823  0.0478
 1255DPPI   C3A19323  11.606  13.300   7.111 -0.0355 -0.1603 -0.1163
 1255DPPI   C4A19324  11.688  13.395   7.559 -0.2393  0.2168  0.0538
 1255DPPI   C1B19325  11.995  12.285   6.568 -0.3081 -0.2959  0.0916
 1255DPPI   C2B19326  11.987  12.240   6.960 -0.1781 -0.1763 -0.2517
 1255DPPI   C3B19327  11.705  12.224   7.315 -0.1597  0.1263 -0.4758
 1255DPPI   C4B19328  11.356  12.547   7.526 -0.2319 -0.0053  0.0017
 1256DPPI    C119329   6.790  11.603   5.304 -0.1898  0.0871 -0.1177
 1256DPPI    C219330   7.126  11.570   5.090 -0.1155  0.2630 -0.0309
 1256DPPI    C319331   6.810  11.341   5.003  0.0622  0.0181 -0.0436
 1256DPPI   PO419332   6.881  11.942   5.352  0.0388 -0.0405  0.0447
 1256DPPI   GL119333   6.749  12.198   5.698 -0.1002 -0.2068  0.1304
 1256DPPI   GL219334   6.459  12.158   5.654 -0.0785 -0.1039 -0.0873
 1256DPPI   C1A19335   6.910  11.954   6.076  0.2714  0.0568  0.0647
 1256DPPI   C2A19336   6.901  12.113   6.613 -0.0618 -0.0817  0.1488
 1256DPPI   C3A19337   6.667  11.960   6.981  0.0285 -0.1325  0.2031
 1256DPPI   C4A19338   6.219  12.020   7.054  0.0329 -0.1000 -0.0040
 1256DPPI   C1B19339   6.380  11.951   6.132  0.2237  0.0389  0.2404
 1256DPPI   C2B19340   6.616  11.747   6.449 -0.5227 -0.1595 -0.1789
 1256DPPI   C3B19341   6.539  11.446   6.644  0.2333  0.0143 -0.2870
 1256DPPI   C4B19342   6.580  11.483   7.108 -0.1103 -0.2790  0.3202
 1257DPPI    C119343   8.917  18.360   5.394 -0.2502 -0.3474  0.0274
 1257DPPI    C219344   8.579  18.571   5.355 -0.0131  0.0080 -0.1696
 1257DPPI    C319345   8.730  18.374   5.041 -0.0631 -0.1951 -0.0681
 1257DPPI   PO419346   8.958  18.124   5.537 -0.2553 -0.1966  0.1692
 1257DPPI   GL119347   8.685  17.730   5.679 -0.1425  0.0097 -0.2930
 1257DPPI   GL219348   9.035  17.815   5.913 -0.2758 -0.2256 -0.0520
 1257DPPI   C1A19349   8.435  17.789   5.992  0.2056 -0.0047  0.1097
 1257DPPI   C2A19350   8.247  17.705   6.353 -0.0548  0.0264 -0.0821
 1257DPPI   C3A19351   8.253  17.697   6.769  0.0035  0.0859 -0.0714
 1257DPPI   C4A19352   8.281  17.803   7.175 -0.0918  0.0574  0.0723
 1257DPPI   C1B19353   9.213  17.718   6.311 -0.3132 -0.3094  0.2385
 1257DPPI   C2B19354   9.138  17.578   6.721  0.0720 -0.2343 -0.1580
 1257DPPI   C3B19355   9.221  17.422   7.027 -0.1045 -0.0136  0.1186
 1257DPPI   C4B19356   9.463  17.280   7.383  0.3130  0.2072 -0.3467
 1258DPPI    C119357  14.602  17.948   5.009  0.0266 -0.0393  0.0689
 1258DPPI    C219358  14.293  18.173   4.891  0.1745  0.1340  0.0079
 1258DPPI    C319359  14.317  17.791   4.775  0.0406  0.1509 -0.0785
 1258DPPI   PO419360  14.704  17.970   5.245 -0.1337 -0.1946  0.5101
 1258DPPI   GL119361  14.603  17.894   5.583  0.3429 -0.2552 -0.1456
 1258DPPI   GL219362  14.251  17.748   5.765  0.0190 -0.0717 -0.0237
 1258DPPI   C1A19363  14.826  17.861   5.886  0.0807 -0.0280  0.0680
 1258DPPI   C2A19364  15.039  17.867   6.326 -0.0732 -0.1117 -0.4018
 1258DPPI   C3A19365  15.424  17.898   6.642  0.0647 -0.2809 -0.0327
 1258DPPI   C4A19366  15.422  18.132   7.055 -0.1102  0.0967  0.2662
 1258DPPI   C1B19367  14.383  17.791   6.187 -0.1181  0.0738  0.3857
 1258DPPI   C2B19368  14.586  17.716   6.477  0.1121 -0.1675 -0.1283
 1258DPPI   C3B19369  14.500  17.606   6.798 -0.1710  0.0778  0.0183
 1258DPPI   C4B19370  14.736  17.502   7.098 -0.0499 -0.1162 -0.2520
 1259DPPI    C119371   3.705   8.558   5.581 -0.1596  0.1429  0.0548
 1259DPPI    C219372   3.827   8.452   5.215 -0.0790  0.1268  0.0861
 1259DPPI    C319373   4.079   8.636   5.465 -0.1685  0.2428  0.0920
 1259DPPI   PO419374   3.464   8.422   5.573 -0.1798  0.2961 -0.1148
 1259DPPI   GL119375   3.474   8.159   5.874 -0.2278 -0.0115  0.0767
 1259DPPI   GL219376   3.749   8.176   5.963  0.1209 -0.0425  0.2834
 1259DPPI   C1A19377   3.348   8.377   6.277  0.2109 -0.0669  0.0212
 1259DPPI   C2A19378   3.391   8.292   6.738 -0.1996 -0.0343 -0.2850
 1259DPPI   C3A19379   3.494   8.348   7.197 -0.2158 -0.0677 -0.1292
 1259DPPI   C4A19380   3.653   8.414   7.589 -0.3789  0.1229  0.0664
 1259DPPI   C1B19381   3.812   8.360   6.442  0.2487 -0.1182 -0.1290
 1259DPPI   C2B19382   3.888   8.376   6.807  0.3431  0.0379 -0.3234
 1259DPPI   C3B19383   4.017   8.437   7.205 -0.1654  0.0892 -0.1813
 1259DPPI   C4B19384   4.244   8.484   7.609  0.2335 -0.0903 -0.3163
 1260DPPI    C119385   6.666  15.535   4.951  0.0036 -0.2651 -0.0754
 1260DPPI    C219386   6.528  15.857   5.142  0.3506 -0.2152  0.0996
 1260DPPI    C319387   6.557  15.859   4.743  0.1571 -0.1089  0.0846
 1260DPPI   PO419388   6.597  15.324   5.188  0.1080  0.2108 -0.1604
 1260DPPI   GL119389   6.473  15.461   5.569 -0.2423  0.1167 -0.0942
 1260DPPI   GL219390   6.443  15.725   5.623 -0.0316 -0.2355 -0.2516
 1260DPPI   C1A19391   6.502  15.362   6.007 -0.3014  0.2389  0.2180
 1260DPPI   C2A19392   6.401  15.495   6.381 -0.3496  0.0110 -0.2186
 1260DPPI   C3A19393   6.344  15.545   6.740  0.1447 -0.2765  0.1596
 1260DPPI   C4A19394   6.198  15.625   7.111 -0.1548  0.0422  0.0936
 1260DPPI   C1B19395   6.148  15.715   5.977 -0.2096 -0.0554 -0.2212
 1260DPPI   C2B19396   6.000  15.895   6.364 -0.3571  0.0060 -0.0220
 1260DPPI   C3B19397   6.003  15.918   6.759  0.0893 -0.0802  0.0084
 1260DPPI   C4B19398   6.038  16.160   7.139 -0.1398 -0.0695  0.2107
 1261DPPI    C119399  11.113  13.912   5.627  0.1017 -0.2162 -0.0824
 1261DPPI    C219400  11.270  14.147   5.344  0.0913  0.0347  0.1171
 1261DPPI    C319401  11.501  14.007   5.639  0.0743 -0.1194  0.0581
 1261DPPI   PO419402  10.885  14.050   5.730 -0.1548 -0.3071  0.1176
 1261DPPI   GL119403  10.686  14.218   6.153 -0.0607 -0.0946 -0.0267
 1261DPPI   GL219404  10.821  14.505   6.061 -0.0068 -0.2265  0.1141
 1261DPPI   C1A19405  10.652  13.856   6.386 -0.2387  0.0197 -0.0439
 1261DPPI   C2A19406  10.605  13.681   6.763  0.0612 -0.3919 -0.5161
 1261DPPI   C3A19407  10.744  13.685   7.205  0.1757 -0.0278  0.0691
 1261DPPI   C4A19408  10.710  13.385   7.440 -0.1453  0.5001  0.2361
 1261DPPI   C1B19409  10.908  14.601   6.409  0.0334  0.0543  0.0391
 1261DPPI   C2B19410  10.963  14.627   6.832 -0.1253 -0.0074  0.2190
 1261DPPI   C3B19411  11.090  14.610   7.267  0.3406 -0.4046  0.1186
 1261DPPI   C4B19412  10.877  14.460   7.679  0.1669 -0.1995  0.0907
 1262DPPI    C119413   8.996   4.142   5.149 -0.1428  0.0948  0.1611
 1262DPPI    C219414   8.982   4.119   4.750  0.2365  0.3438  0.1280
 1262DPPI    C319415   9.249   3.902   4.953 -0.0782  0.0762  0.2666
 1262DPPI   PO419416   8.854   4.269   5.189  0.0228  0.0213  0.0990
 1262DPPI   GL119417   8.586   4.235   5.526 -0.0093  0.2396  0.0016
 1262DPPI   GL219418   8.241   4.251   5.463 -0.2750  0.2483  0.0503
 1262DPPI   C1A19419   8.800   4.213   5.972 -0.2610 -0.2325  0.3336
 1262DPPI   C2A19420   8.903   4.094   6.359  0.0245 -0.2757 -0.0208
 1262DPPI   C3A19421   8.825   4.005   6.813 -0.0546  0.0491  0.1960
 1262DPPI   C4A19422   8.544   4.157   7.145 -0.1950 -0.0532  0.3772
 1262DPPI   C1B19423   8.315   4.282   5.887 -0.1020  0.0234 -0.0173
 1262DPPI   C2B19424   8.233   4.424   6.240 -0.2801  0.3067 -0.2450
 1262DPPI   C3B19425   8.154   4.646   6.698 -0.1211  0.2052  0.0321
 1262DPPI   C4B19426   7.896   4.797   7.030 -0.0058  0.0138 -0.0698
 1263DPPI    C119427  15.539  12.987   5.072 -0.1368 -0.1362 -0.0021
 1263DPPI    C219428  15.750  12.810   4.782 -0.1506  0.0507 -0.1274
 1263DPPI    C319429  15.365  12.716   4.835 -0.0949 -0.1304 -0.0393
 1263DPPI   PO419430  15.797  13.040   5.280  0.1194  0.3334 -0.0325
 1263DPPI   GL119431  16.000  12.900   5.601 -0.3284 -0.1009  0.1844
 1263DPPI   GL219432  15.884  12.555   5.670 -0.2605 -0.1549  0.0637
 1263DPPI   C1A19433  16.017  12.963   6.113  0.0568  0.1945 -0.2340
 1263DPPI   C2A19434  16.195  12.685   6.453 -0.1163 -0.2522 -0.3386
 1263DPPI   C3A19435  16.194  12.922   6.876  0.1562 -0.1361  0.2353
 1263DPPI   C4A19436  16.275  13.028   7.270 -0.0665 -0.0190  0.0796
 1263DPPI   C1B19437  15.818  12.466   6.093  0.2979 -0.3681  0.2434
 1263DPPI   C2B19438  15.679  12.287   6.419  0.0683  0.2291 -0.0245
 1263DPPI   C3B19439  15.612  12.032   6.735 -0.0229  0.1784  0.3089
 1263DPPI   C4B19440  15.663  11.527   6.924  0.4262  0.0713  0.1214
 1264DPPI    C119441  13.057  16.729   5.708 -0.2203 -0.0161 -0.0615
 1264DPPI    C219442  12.933  16.807   5.336  0.1070  0.1891 -0.1316
 1264DPPI    C319443  13.249  16.570   5.395 -0.1958 -0.1839  0.0374
 1264DPPI   PO419444  12.843  16.633   5.838 -0.0923 -0.1855  0.0534
 1264DPPI   GL119445  12.689  16.560   6.255 -0.0442 -0.1206  0.2246
 1264DPPI   GL219446  12.656  16.853   6.175  0.0026  0.0990  0.2045
 1264DPPI   C1A19447  12.791  16.618   6.622 -0.0490  0.0447  0.1787
 1264DPPI   C2A19448  12.878  16.730   7.111  0.1698 -0.0072 -0.0260
 1264DPPI   C3A19449  12.880  16.790   7.503 -0.0412 -0.0131 -0.1444
 1264DPPI   C4A19450  12.915  16.695   8.012 -0.3027  0.2101  0.2033
 1264DPPI   C1B19451  12.523  17.075   6.441 -0.0264  0.0593 -0.0934
 1264DPPI   C2B19452  12.507  17.071   6.913 -0.0781 -0.0164 -0.2682
 1264DPPI   C3B19453  12.358  16.912   7.266  0.0912  0.0284  0.1123
 1264DPPI   C4B19454  12.316  16.736   7.707  0.4612  0.1444  0.0986
 1265DPPI    C119455   8.849  14.592   4.954 -0.2305  0.1278 -0.2218
 1265DPPI    C219456   9.205  14.646   4.781 -0.2518 -0.0637 -0.3279
 1265DPPI    C319457   9.002  14.308   4.718 -0.3388 -0.0621 -0.0656
 1265DPPI   PO419458   8.889  14.653   5.282 -0.0538 -0.2294  0.1558
 1265DPPI   GL119459   8.741  14.876   5.613 -0.0921  0.2355  0.1463
 1265DPPI   GL219460   8.885  15.013   5.825  0.1090  0.0927  0.0920
 1265DPPI   C1A19461   8.348  14.749   5.844 -0.3987  0.1030  0.2109
 1265DPPI   C2A19462   8.098  14.727   6.130  0.1555  0.3771  0.0034
 1265DPPI   C3A19463   7.737  14.693   6.439 -0.0933 -0.0337 -0.1100
 1265DPPI   C4A19464   7.594  14.723   6.895 -0.0613 -0.2219 -0.0418
 1265DPPI   C1B19465   8.608  14.973   6.185  0.0966  0.1407  0.3044
 1265DPPI   C2B19466   8.319  14.906   6.540  0.0469 -0.0315 -0.1363
 1265DPPI   C3B19467   8.067  14.909   6.882 -0.1747  0.1628 -0.1588
 1265DPPI   C4B19468   7.982  14.699   7.189  0.1167 -0.0604  0.0548
 1266DPPI    C119469   3.380  17.452   4.317 -0.1013 -0.0349 -0.2520
 1266DPPI    C219470   3.011  17.319   4.240 -0.1449  0.0207 -0.1412
 1266DPPI    C319471   3.163  17.620   4.026 -0.1089 -0.0967 -0.2821
 1266DPPI   PO419472   3.367  17.380   4.608 -0.1406  0.2768 -0.0357
 1266DPPI   GL119473   3.255  17.332   5.074 -0.1008 -0.2451 -0.0311
 1266DPPI   GL219474   3.297  17.622   5.396  0.0232 -0.2387  0.0576
 1266DPPI   C1A19475   2.909  17.322   5.399  0.2482  0.0927 -0.0558
 1266DPPI   C2A19476   2.741  17.454   5.831 -0.0740 -0.3403  0.2276
 1266DPPI   C3A19477   2.641  17.530   6.215  0.2787 -0.1705  0.1728
 1266DPPI   C4A19478   2.869  17.430   6.520  0.1637  0.1003  0.0418
 1266DPPI   C1B19479   3.257  17.682   5.909  0.1350  0.2793 -0.1181
 1266DPPI   C2B19480   3.218  17.663   6.275  0.0870  0.1304 -0.0539
 1266DPPI   C3B19481   3.218  17.591   6.821  0.1997 -0.3216 -0.1388
 1266DPPI   C4B19482   3.244  17.830   7.195  0.0176  0.1180  0.0657
 1267PYPI    C119483  14.204   5.378   5.195  0.0667  0.0396 -0.2625
 1267PYPI    C219484  14.219   5.243   4.819 -0.2189  0.1006 -0.2983
 1267PYPI    C319485  13.888   5.422   4.954 -0.0894  0.1515 -0.0414
 1267PYPI   PO419486  14.450   5.240   5.280  0.1098  0.3018  0.2470
 1267PYPI   GL119487  14.470   5.274   5.718  0.1733 -0.0483 -0.1823
 1267PYPI   GL219488  14.368   5.445   5.928 -0.3232  0.0855  0.1255
 1267PYPI   C1A19489  14.529   5.033   6.126 -0.2394 -0.0521  0.1191
 1267PYPI   C2A19490  14.528   4.999   6.637  0.0681 -0.3406 -0.0782
 1267PYPI   D3A19491  14.460   4.951   7.018  0.3114  0.0493 -0.0423
 1267PYPI   C4A19492  14.734   5.022   7.359 -0.1983 -0.0518 -0.3388
 1267PYPI   C1B19493  14.208   5.289   6.330 -0.2083  0.0428 -0.1004
 1267PYPI   C2B19494  14.034   5.404   6.740  0.1804  0.0535  0.1689
 1267PYPI   C3B19495  14.222   5.329   7.102  0.2687 -0.1416 -0.1064
 1267PYPI   C4B19496  14.167   5.393   7.518 -0.1740 -0.2125 -0.0245
 1268PYPI    C119497   8.202   0.636   4.927  0.0916 -0.1586  0.0920
 1268PYPI    C219498   8.053   0.309   4.752  0.1623 -0.1442  0.0034
 1268PYPI    C319499   7.992   0.668   4.588 -0.0576 -0.0940  0.1899
 1268PYPI   PO419500   8.126   0.513   5.179  0.0388 -0.1707  0.0723
 1268PYPI   GL119501   8.117   0.350   5.562  0.0919  0.1771 -0.2620
 1268PYPI   GL219502   8.492   0.322   5.744  0.1177  0.1012 -0.0157
 1268PYPI   C1A19503   8.095   0.376   5.995  0.1359 -0.0010  0.2101
 1268PYPI   C2A19504   8.095   0.315   6.401  0.0056 -0.1069 -0.0664
 1268PYPI   D3A19505   8.116   0.048   6.717 -0.2959  0.0874  0.1552
 1268PYPI   C4A19506   7.925   0.229   7.064 -0.0513  0.1559 -0.2099
 1268PYPI   C1B19507   8.490   0.102   6.159 -0.0224  0.1825 -0.2886
 1268PYPI   C2B19508   8.597   0.090   6.511  0.0932  0.1198 -0.1216
 1268PYPI   C3B19509   8.535  -0.000   6.980  0.0894  0.1695  0.0299
 1268PYPI   C4B19510   8.603  -0.382   7.283 -0.2038  0.2254  0.1931
 1269PYPI    C119511  12.613   2.361   5.307  0.1204  0.0430 -0.1794
 1269PYPI    C219512  12.405   2.474   4.985  0.1049  0.3632 -0.0608
 1269PYPI    C319513  12.772   2.321   4.942 -0.1942 -0.3356 -0.2827
 1269PYPI   PO419514  12.509   2.491   5.566  0.1586 -0.1193  0.1405
 1269PYPI   GL119515  12.710   2.756   6.009 -0.0062 -0.1177 -0.2085
 1269PYPI   GL219516  12.986   2.644   5.954  0.1372  0.1487  0.0543
 1269PYPI   C1A19517  12.969   3.124   6.188 -0.0608 -0.2147 -0.0642
 1269PYPI   C2A19518  13.052   3.263   6.555 -0.0841  0.4340 -0.0195
 1269PYPI   D3A19519  13.110   3.122   7.105 -0.0430 -0.1532 -0.2703
 1269PYPI   C4A19520  13.246   2.824   7.323  0.1017 -0.1839 -0.2090
 1269PYPI   C1B19521  13.079   2.568   6.362  0.0347  0.0308  0.1605
 1269PYPI   C2B19522  13.065   2.610   6.845 -0.1353  0.4594  0.0480
 1269PYPI   C3B19523  12.844   2.596   7.182 -0.1718 -0.0507  0.1451
 1269PYPI   C4B19524  12.838   2.613   7.644 -0.0632 -0.0070  0.0928
 1270PYPI    C119525  16.674   5.864   5.124  0.2130 -0.2165  0.0170
 1270PYPI    C219526  16.725   5.780   4.736 -0.0844 -0.2343 -0.0207
 1270PYPI    C319527  16.385   5.677   4.919 -0.0587  0.0209  0.1765
 1270PYPI   PO419528  16.895   5.843   5.223 -0.1061  0.0186  0.2737
 1270PYPI   GL119529  17.019   5.651   5.504  0.1099  0.2870 -0.2656
 1270PYPI   GL219530  17.147   5.917   5.655  0.1059 -0.2400 -0.0406
 1270PYPI   C1A19531  16.862   5.532   5.957 -0.1498 -0.0523  0.2764
 1270PYPI   C2A19532  16.806   5.439   6.378 -0.1985 -0.2851  0.1173
 1270PYPI   D3A19533  16.699   5.444   6.885  0.1451 -0.1104  0.1217
 1270PYPI   C4A19534  16.806   5.061   7.176  0.1137 -0.0202  0.0587
 1270PYPI   C1B19535  16.976   5.989   5.992 -0.0945  0.0451  0.2013
 1270PYPI   C2B19536  16.948   5.981   6.492 -0.0039  0.0294  0.0305
 1270PYPI   C3B19537  17.067   5.922   6.926  0.3846 -0.2517 -0.1370
 1270PYPI   C4B19538  17.409   5.741   7.203 -0.1407  0.0171  0.4052
 1271PYPI    C119539   6.777  16.191   5.360 -0.0836 -0.2472 -0.1118
 1271PYPI    C219540   6.957  16.501   5.183 -0.0729 -0.1347  0.0924
 1271PYPI    C319541   6.668  16.301   4.992 -0.1112  0.0291 -0.0235
 1271PYPI   PO419542   6.882  16.298   5.654  0.1669  0.2070 -0.2761
 1271PYPI   GL119543   7.126  16.463   5.875  0.0632  0.2605  0.3050
 1271PYPI   GL219544   7.328  16.271   5.969  0.0033 -0.0534  0.0551
 1271PYPI   C1A19545   6.900  16.445   6.304  0.0967  0.1937 -0.1167
 1271PYPI   C2A19546   6.804  16.535   6.719  0.0849 -0.1686 -0.1459
 1271PYPI   D3A19547   6.964  16.848   6.994  0.0864  0.1244 -0.0689
 1271PYPI   C4A19548   7.063  16.751   7.392  0.1506  0.0390  0.1706
 1271PYPI   C1B19549   7.365  16.286   6.310  0.3066 -0.0747  0.1177
 1271PYPI   C2B19550   7.357  16.296   6.709 -0.2041  0.0286 -0.1795
 1271PYPI   C3B19551   7.131  16.335   7.095  0.0999  0.0955  0.1194
 1271PYPI   C4B19552   7.070  16.274   7.649  0.3399 -0.1213  0.0585
 1272PYPI    C119553   2.444   0.322   5.115 -0.0546 -0.0024  0.0896
 1272PYPI    C219554   2.649   0.382   4.777 -0.2850 -0.0780 -0.0659
 1272PYPI    C319555   2.761   0.566   5.114 -0.0613  0.0080 -0.1849
 1272PYPI   PO419556   2.363   0.027   5.047  0.3218  0.1477 -0.0687
 1272PYPI   GL119557   2.482  -0.397   5.248 -0.2738 -0.0003 -0.1423
 1272PYPI   GL219558   2.293  -0.283   5.446 -0.1246  0.4613  0.0379
 1272PYPI   C1A19559   2.807  -0.185   5.543  0.0015 -0.1119 -0.2787
 1272PYPI   C2A19560   2.688   0.139   5.691 -0.1802  0.0461  0.1601
 1272PYPI   D3A19561   2.319   0.446   5.633  0.1421  0.0780 -0.1108
 1272PYPI   C4A19562   2.389   0.771   5.917 -0.2389 -0.1748 -0.1333
 1272PYPI   C1B19563   2.473  -0.303   5.893 -0.2415  0.0762 -0.1836
 1272PYPI   C2B19564   2.561  -0.139   6.198 -0.2033  0.1382  0.0445
 1272PYPI   C3B19565   2.641  -0.171   6.710 -0.0482  0.0774 -0.0826
 1272PYPI   C4B19566   2.397  -0.410   7.046  0.0970 -0.2121 -0.2146
 1273PYPI    C119567   6.164  16.900   5.542 -0.1279  0.0171  0.0305
 1273PYPI    C219568   6.090  17.070   5.187  0.0992  0.1896  0.0632
 1273PYPI    C319569   5.788  16.934   5.412 -0.0532  0.1722 -0.1497
 1273PYPI   PO419570   6.387  17.079   5.619  0.0266  0.1768  0.1041
 1273PYPI   GL119571   6.773  17.126   5.962 -0.1235 -0.1857 -0.0158
 1273PYPI   GL219572   6.897  16.887   6.096  0.0420  0.0373 -0.2850
 1273PYPI   C1A19573   6.602  17.416   6.278  0.1469  0.1460 -0.2069
 1273PYPI   C2A19574   6.422  17.530   6.643 -0.2723  0.1040 -0.2323
 1273PYPI   D3A19575   6.364  17.491   7.043 -0.0385 -0.0931  0.0599
 1273PYPI   C4A19576   6.036  17.331   7.277  0.0192  0.2715 -0.2190
 1273PYPI   C1B19577   6.660  16.934   6.437 -0.2157  0.0469 -0.3552
 1273PYPI   C2B19578   6.556  17.035   6.792  0.2690  0.0021 -0.2562
 1273PYPI   C3B19579   6.453  17.033   7.263  0.4684  0.1371  0.1756
 1273PYPI   C4B19580   6.199  17.032   7.622  0.0260 -0.0254 -0.1174
 1274PYPI    C119581  17.291   2.958   4.905  0.1603 -0.1322  0.0061
 1274PYPI    C219582  17.359   2.767   4.561  0.0111 -0.0052 -0.0952
 1274PYPI    C319583  17.068   3.041   4.583  0.1043  0.0796  0.0972
 1274PYPI   PO419584  17.492   2.942   5.023  0.0569 -0.2451 -0.0443
 1274PYPI   GL119585  17.583   2.944   5.460 -0.3975  0.3365  0.1805
 1274PYPI   GL219586  17.873   2.818   5.294 -0.0497 -0.1581  0.1560
 1274PYPI   C1A19587  17.687   3.077   5.861  0.0474 -0.4289  0.0131
 1274PYPI   C2A19588  17.430   3.406   5.975 -0.0899  0.2233 -0.0662
 1274PYPI   D3A19589  17.116   3.788   5.992 -0.0671  0.0921  0.0703
 1274PYPI   C4A19590  17.195   4.231   5.860 -0.1406  0.0757  0.0472
 1274PYPI   C1B19591  17.960   2.735   5.713 -0.0918  0.0935  0.0460
 1274PYPI   C2B19592  17.643   2.634   6.087 -0.1613  0.0734  0.2464
 1274PYPI   C3B19593  17.395   2.631   6.528 -0.1883  0.2406  0.3313
 1274PYPI   C4B19594  17.152   2.721   6.828 -0.0772 -0.0793  0.2788
 1275PYPI    C119595  11.695   1.285   5.328 -0.1773  0.0003 -0.0030
 1275PYPI    C219596  11.729   1.047   5.008 -0.1050  0.0302 -0.0177
 1275PYPI    C319597  11.556   1.405   4.972  0.0184  0.0870 -0.0514
 1275PYPI   PO419598  11.825   1.205   5.480  0.3301  0.0879  0.2671
 1275PYPI   GL119599  11.763   1.002   5.829  0.0131  0.0753 -0.2804
 1275PYPI   GL219600  11.849   1.285   5.945 -0.1483  0.1160 -0.0670
 1275PYPI   C1A19601  12.050   0.867   6.136 -0.2686 -0.0121 -0.0875
 1275PYPI   C2A19602  12.464   0.647   6.387 -0.0497  0.1590 -0.2295
 1275PYPI   D3A19603  12.861   0.647   6.627 -0.3119 -0.2911  0.1553
 1275PYPI   C4A19604  12.740   0.654   7.214  0.2661 -0.1654 -0.0988
 1275PYPI   C1B19605  11.781   1.211   6.367  0.3096 -0.1390  0.0958
 1275PYPI   C2B19606  11.992   0.963   6.673 -0.1059 -0.1830 -0.3561
 1275PYPI   C3B19607  12.341   0.643   6.892  0.1861  0.0076  0.1022
 1275PYPI   C4B19608  12.542   0.276   6.935  0.2389  0.0711  0.0836
 1276PYPI    C119609  10.474   8.879   5.251 -0.1883 -0.0509  0.0776
 1276PYPI    C219610  10.344   8.864   4.873  0.1909  0.0076 -0.0588
 1276PYPI    C319611  10.558   8.562   5.023  0.0368 -0.0178  0.1129
 1276PYPI   PO419612  10.243   8.938   5.362  0.1336 -0.0804 -0.1564
 1276PYPI   GL119613   9.929   8.708   5.772 -0.2751  0.2379  0.0246
 1276PYPI   GL219614   9.596   8.808   6.037 -0.3406  0.1982 -0.1141
 1276PYPI   C1A19615  10.143   8.783   6.165  0.2527 -0.1096 -0.0310
 1276PYPI   C2A19616  10.109   8.764   6.642  0.4167  0.3832  0.1152
 1276PYPI   D3A19617   9.910   8.739   6.884  0.0875 -0.2980 -0.0013
 1276PYPI   C4A19618  10.044   8.774   7.208 -0.0432 -0.4330 -0.0569
 1276PYPI   C1B19619   9.473   8.913   6.493 -0.0415 -0.1253  0.2196
 1276PYPI   C2B19620   9.427   8.847   6.904 -0.1214 -0.3403 -0.1360
 1276PYPI   C3B19621   9.466   8.900   7.339  0.0004 -0.0079  0.0385
 1276PYPI   C4B19622   9.694   8.860   7.660  0.1035 -0.1701 -0.2348
 1277PYPI    C119623  13.912  10.477   5.221 -0.1915 -0.0918  0.3552
 1277PYPI    C219624  13.885  10.776   5.485 -0.1887  0.0838  0.1593
 1277PYPI    C319625  13.888  10.855   5.093  0.1141 -0.1507  0.1110
 1277PYPI   PO419626  13.774  10.285   5.250 -0.3376 -0.1164 -0.0424
 1277PYPI   GL119627  13.763  10.113   5.690  0.2243 -0.1916  0.3473
 1277PYPI   GL219628  13.557   9.937   5.846 -0.2521  0.0339  0.1241
 1277PYPI   C1A19629  13.846  10.112   6.162  0.2386  0.1247  0.0533
 1277PYPI   C2A19630  13.611  10.052   6.443  0.0620 -0.0162 -0.0340
 1277PYPI   D3A19631  13.530  10.003   6.788  0.1095 -0.0386  0.2504
 1277PYPI   C4A19632  13.707  10.092   7.111 -0.0510  0.1824  0.0064
 1277PYPI   C1B19633  13.257  10.120   6.100 -0.2563  0.0844  0.0380
 1277PYPI   C2B19634  13.113  10.158   6.466  0.4062 -0.1407  0.1033
 1277PYPI   C3B19635  13.070  10.123   6.828 -0.1606 -0.1953  0.0838
 1277PYPI   C4B19636  13.204  10.170   7.238  0.2754 -0.2003 -0.0908
 1278PYPI    C119637   1.894  11.141   5.172  0.2801 -0.0060 -0.0424
 1278PYPI    C219638   1.895  11.010   4.794  0.1004  0.1762 -0.1078
 1278PYPI    C319639   1.863  11.402   4.870 -0.1383  0.1190  0.1013
 1278PYPI   PO419640   2.006  10.944   5.359  0.0637 -0.0661  0.4115
 1278PYPI   GL119641   2.019  10.701   5.673  0.1290 -0.1589 -0.0741
 1278PYPI   GL219642   1.958  11.046   5.833  0.2165 -0.0846  0.0692
 1278PYPI   C1A19643   2.184  10.722   6.167 -0.0083  0.0165  0.1732
 1278PYPI   C2A19644   2.182  10.688   6.599 -0.2122  0.1344  0.4074
 1278PYPI   D3A19645   2.258  10.579   7.049 -0.0641  0.1246 -0.1941
 1278PYPI   C4A19646   2.258  10.822   7.469 -0.0448 -0.3938  0.1739
 1278PYPI   C1B19647   2.325  11.198   6.072  0.1313  0.3494 -0.1614
 1278PYPI   C2B19648   2.434  11.148   6.523 -0.0220  0.1656 -0.0606
 1278PYPI   C3B19649   2.430  11.066   7.017 -0.3435 -0.1635  0.1201
 1278PYPI   C4B19650   2.640  11.112   7.476 -0.0247  0.1702  0.1881
 1279PYPI    C119651  15.478   4.346   5.059  0.0553 -0.0358 -0.0394
 1279PYPI    C219652  15.443   4.556   4.720 -0.2015 -0.1196 -0.0671
 1279PYPI    C319653  15.763   4.323   4.778  0.0288  0.1838 -0.0869
 1279PYPI   PO419654  15.401   4.446   5.293  0.2178 -0.2901 -0.1686
 1279PYPI   GL119655  15.244   4.702   5.626 -0.0628  0.3381  0.2115
 1279PYPI   GL219656  15.415   4.961   5.743  0.0188  0.3790  0.1048
 1279PYPI   C1A19657  15.054   4.729   6.044  0.1981 -0.0820  0.1936
 1279PYPI   C2A19658  14.992   4.994   6.421 -0.0788  0.0920 -0.0662
 1279PYPI   D3A19659  14.973   5.194   6.863 -0.0761 -0.2194 -0.1070
 1279PYPI   C4A19660  14.689   5.400   7.022  0.2978  0.0673  0.1444
 1279PYPI   C1B19661  15.416   5.085   6.129 -0.2873 -0.0520 -0.1571
 1279PYPI   C2B19662  15.406   5.254   6.494 -0.0158 -0.2089  0.0112
 1279PYPI   C3B19663  15.732   5.444   6.627 -0.1093 -0.1220  0.1496
 1279PYPI   C4B19664  16.173   5.506   6.833  0.2319  0.1598 -0.3229
 1280ERGO   ROH19665  18.239  12.585   5.498 -0.1365  0.0473 -0.1925
 1280ERGO    R119666  18.410  12.548   5.720 -0.1609  0.0849 -0.1678
 1280ERGO    R219667  18.470  12.753   5.897 -0.2602  0.0884 -0.1388
 1280ERGO    R319668  18.382  12.574   6.082 -0.2291  0.0405 -0.1696
 1280ERGO    R419669  18.566  12.748   6.229 -0.0807 -0.0946 -0.1913
 1280ERGO    R519670  18.574  12.530   6.219 -0.1700 -0.0946 -0.2918
 1280ERGO    C119671  18.540  12.578   6.596  0.0531 -0.2461 -0.2508
 1280ERGO    C219672  18.682  12.410   6.939  0.0402  0.1006  0.2546
 1281ERGO   ROH19673   7.760  10.494   5.794 -0.0537 -0.0281  0.0953
 1281ERGO    R119674   7.873  10.551   6.047 -0.0884  0.3201  0.0367
 1281ERGO    R219675   7.787  10.761   6.205 -0.5831  0.1304  0.0312
 1281ERGO    R319676   7.757  10.565   6.392  0.0149  0.0712  0.0853
 1281ERGO    R419677   7.738  10.815   6.543 -0.4377  0.0643  0.0641
 1281ERGO    R519678   7.872  10.649   6.584 -0.0110  0.3648 -0.0176
 1281ERGO    C119679   7.681  10.663   6.915  0.2084 -0.0297  0.1342
 1281ERGO    C219680   7.582  10.511   7.180 -0.2218 -0.0385 -0.0721
 1282ERGO   ROH19681   3.847   1.774   5.593 -0.3380 -0.3521 -0.0900
 1282ERGO    R119682   3.697   1.668   5.808  0.0112 -0.4305  0.1217
 1282ERGO    R219683   3.798   1.650   6.065  0.1885  0.1402  0.1043
 1282ERGO    R319684   3.572   1.788   6.128 -0.1157 -0.2976  0.0240
 1282ERGO    R419685   3.664   1.674   6.383  0.3325  0.2958  0.1552
 1282ERGO    R519686   3.465   1.654   6.295  0.3103 -0.3187  0.2984
 1282ERGO    C119687   3.374   1.817   6.627  0.1307 -0.0247  0.1094
 1282ERGO    C219688   3.530   1.805   6.943 -0.1627  0.0198 -0.4046
 1283ERGO   ROH19689   7.473  14.596   5.929  0.2468 -0.1393  0.0996
 1283ERGO    R119690   7.257  14.634   6.107  0.1382 -0.0702 -0.0441
 1283ERGO    R219691   7.167  14.436   6.277 -0.0195 -0.0331 -0.0794
 1283ERGO    R319692   7.207  14.625   6.468 -0.0970 -0.0217 -0.0748
 1283ERGO    R419693   7.017  14.435   6.588 -0.1350 -0.0155 -0.1345
 1283ERGO    R519694   6.991  14.651   6.570 -0.1338 -0.0199 -0.1562
 1283ERGO    C119695   6.967  14.612   6.949 -0.2749  0.0055 -0.1623
 1283ERGO    C219696   6.954  14.565   7.246  0.1044 -0.0692  0.0739
 1284ERGO   ROH19697  13.701   6.362   6.139 -0.0308 -0.1247 -0.0597
 1284ERGO    R119698  13.895   6.218   6.286 -0.0561 -0.1900 -0.0900
 1284ERGO    R219699  14.025   6.325   6.505  0.1386 -0.1698 -0.2125
 1284ERGO    R319700  13.933   6.100   6.628  0.0393 -0.0423 -0.0491
 1284ERGO    R419701  14.120   6.219   6.820  0.1407 -0.0198 -0.1619
 1284ERGO    R519702  14.124   6.015   6.745  0.0149 -0.0713 -0.0310
 1284ERGO    C119703  14.089   5.947   7.119  0.0488  0.1872  0.0210
 1284ERGO    C219704  14.001   5.825   7.337 -0.2452  0.0579 -0.0566
 1285ERGO   ROH19705  17.284  14.921   5.663  0.0444 -0.0040 -0.1407
 1285ERGO    R119706  17.384  14.976   5.922  0.0169  0.0102 -0.1335
 1285ERGO    R219707  17.253  15.143   6.100  0.0378  0.0802 -0.1861
 1285ERGO    R319708  17.271  14.928   6.265 -0.0556  0.1039 -0.1433
 1285ERGO    R419709  17.195  15.150   6.440  0.0686  0.1808 -0.1820
 1285ERGO    R519710  17.364  15.015   6.467  0.0055  0.1008 -0.1686
 1285ERGO    C119711  17.178  14.951   6.794 -0.0014  0.2617 -0.1394
 1285ERGO    C219712  17.302  15.043   7.105  0.1501 -0.0946  0.1836
 1286ERGO   ROH19713   4.141   9.503   5.753 -0.0497 -0.0128 -0.1021
 1286ERGO    R119714   4.066   9.555   6.020  0.0999  0.0912 -0.0794
 1286ERGO    R219715   4.098   9.369   6.223 -0.0328  0.0707 -0.0791
 1286ERGO    R319716   4.234   9.572   6.343  0.2326 -0.0661 -0.1376
 1286ERGO    R419717   4.157   9.394   6.563 -0.3820  0.2956 -0.0297
 1286ERGO    R519718   4.117   9.608   6.549  0.0516  0.3747 -0.3013
 1286ERGO    C119719   4.318   9.598   6.873 -0.3362  0.2982 -0.0560
 1286ERGO    C219720   4.497   9.639   7.113 -0.1208  0.3180  0.1822
 1287ERGO   ROH19721   4.306   5.080   5.465  0.0623 -0.0610 -0.1203
 1287ERGO    R119722   4.411   5.227   5.682  0.0367 -0.1283 -0.0608
 1287ERGO    R219723   4.277   5.256   5.921 -0.0313 -0.1321 -0.0938
 1287ERGO    R319724   4.508   5.159   6.026 -0.0909 -0.2185 -0.0433
 1287ERGO    R419725   4.381   5.304   6.248  0.1628  0.2606 -0.2073
 1287ERGO    R519726   4.585   5.332   6.173  0.1608 -0.0710 -0.3415
 1287ERGO    C119727   4.659   5.240   6.536  0.2199  0.4082 -0.2260
 1287ERGO    C219728   4.684   5.129   6.817  0.1586  0.2322 -0.3169
 1288ERGO   ROH19729  16.830  16.141   5.960  0.0099 -0.0249  0.1083
 1288ERGO    R119730  16.953  16.086   6.209  0.0751  0.0462  0.0921
 1288ERGO    R219731  16.898  16.231   6.438 -0.0015 -0.0054  0.1051
 1288ERGO    R319732  16.843  15.986   6.541  0.1803 -0.0496  0.0991
 1288ERGO    R419733  16.900  16.153   6.774 -0.0218  0.0150  0.1098
 1288ERGO    R519734  16.995  15.963   6.725  0.1549  0.0899  0.1408
 1288ERGO    C119735  16.850  15.876   7.067  0.1370 -0.0147  0.1070
 1288ERGO    C219736  16.821  15.989   7.336  0.0165  0.0571  0.1940
 1289ERGO   ROH19737   2.815  12.833   5.421  0.0512 -0.1118  0.0711
 1289ERGO    R119738   2.747  12.976   5.655  0.0080 -0.0165  0.0010
 1289ERGO    R219739   2.539  12.900   5.821 -0.0158  0.0447 -0.0011
 1289ERGO    R319740   2.731  12.906   6.012 -0.0472  0.1313  0.0283
 1289ERGO    R419741   2.480  12.896   6.161 -0.0651 -0.0100 -0.0100
 1289ERGO    R519742   2.639  13.042   6.186 -0.1443  0.0713  0.0243
 1289ERGO    C119743   2.626  12.899   6.539 -0.1233  0.0393  0.0123
 1289ERGO    C219744   2.687  12.842   6.851 -0.1302 -0.0570 -0.0055
 1290ERGO   ROH19745  16.363  17.652   5.924 -0.1311  0.0066  0.0876
 1290ERGO    R119746  16.565  17.540   6.088 -0.0511  0.1315  0.0759
 1290ERGO    R219747  16.707  17.690   6.272 -0.2443  0.1885  0.1805
 1290ERGO    R319748  16.622  17.498   6.445 -0.0868  0.0139  0.0686
 1290ERGO    R419749  16.802  17.667   6.603 -0.3360  0.1625  0.2048
 1290ERGO    R519750  16.814  17.451   6.580 -0.0759  0.1814  0.1165
 1290ERGO    C119751  16.776  17.474   6.959 -0.2412 -0.0168  0.1140
 1290ERGO    C219752  16.657  17.473   7.249  0.0429 -0.0754  0.0431
 1291ERGO   ROH19753  14.318  12.159   6.105 -0.0324 -0.3416  0.1616
 1291ERGO    R119754  14.143  12.063   6.305 -0.1064 -0.1377  0.1990
 1291ERGO    R219755  14.199  11.839   6.458 -0.3033 -0.1698  0.2369
 1291ERGO    R319756  14.155  12.010   6.665 -0.1155 -0.0827  0.2059
 1291ERGO    R419757  14.109  11.743   6.777 -0.3174 -0.0093  0.2811
 1291ERGO    R519758  13.972  11.913   6.784 -0.1705  0.1054  0.2708
 1291ERGO    C119759  14.014  11.848   7.157 -0.1492  0.1659  0.2778
 1291ERGO    C219760  13.981  11.968   7.553  0.0192  0.1463  0.1556
 1292ERGO   ROH19761  11.751  15.980   6.341  0.2265  0.0481 -0.0094
 1292ERGO    R119762  11.649  15.999   6.604  0.0820 -0.1542 -0.0476
 1292ERGO    R219763  11.611  15.778   6.767  0.2951 -0.2532 -0.1217
 1292ERGO    R319764  11.765  15.920   6.940  0.0403 -0.0942 -0.0202
 1292ERGO    R419765  11.613  15.737   7.110  0.3003 -0.4198 -0.1415
 1292ERGO    R519766  11.625  15.953   7.131 -0.0458 -0.4102 -0.0278
 1292ERGO    C119767  11.759  15.846   7.472  0.0641 -0.3676 -0.0579
 1292ERGO    C219768  11.813  15.779   7.795 -0.0024 -0.3322  0.2373
 1293ERGO   ROH19769   8.962   9.539   5.996 -0.2062 -0.0031 -0.0669
 1293ERGO    R119770   8.859   9.528   6.260 -0.0896  0.0165 -0.0177
 1293ERGO    R219771   9.022   9.513   6.483  0.0171  0.0762 -0.0762
 1293ERGO    R319772   8.880   9.731   6.561  0.0134  0.0662 -0.0624
 1293ERGO    R419773   9.014   9.641   6.804  0.0786  0.1345 -0.0993
 1293ERGO    R519774   8.801   9.677   6.780  0.0809  0.1019 -0.0403
 1293ERGO    C119775   8.877   9.920   7.064  0.1111  0.1591 -0.0998
 1293ERGO    C219776   8.864  10.031   7.362 -0.0596 -0.0029  0.0308
 1294ERGO   ROH19777   4.695  18.378   5.381  0.2086  0.1497 -0.0316
 1294ERGO    R119778   4.700  18.587   5.572  0.0780  0.0833  0.0474
 1294ERGO    R219779   4.591  18.836   5.524  0.1417  0.1157  0.0459
 1294ERGO    R319780   4.455  18.785   5.754 -0.0489  0.0440 -0.0812
 1294ERGO    R419781   4.505  19.073   5.761  0.0793  0.0137  0.1250
 1294ERGO    R519782   4.555  18.929   5.916 -0.1011 -0.0988  0.0772
 1294ERGO    C119783   4.328  19.163   6.114 -0.1360 -0.1129  0.0516
 1294ERGO    C219784   3.945  19.249   6.176  0.1092  0.0044  0.0941
 1295ERGO   ROH19785   3.653   7.197   5.590 -0.3602  0.1980  0.0746
 1295ERGO    R119786   3.735   7.066   5.828 -0.2012  0.0270 -0.0712
 1295ERGO    R219787   3.831   7.203   6.047 -0.0298 -0.1328 -0.0447
 1295ERGO    R319788   3.635   7.067   6.178  0.0512 -0.2020  0.0049
 1295ERGO    R419789   3.803   7.181   6.391 -0.1015  0.1119 -0.0328
 1295ERGO    R519790   3.747   6.971   6.367  0.0862  0.0408  0.1126
 1295ERGO    C119791   3.603   7.039   6.714 -0.0673  0.1894  0.0206
 1295ERGO    C219792   3.687   7.054   7.082  0.1574 -0.0905 -0.0671
 1296ERGO   ROH19793  13.342  16.810   6.087 -0.0851 -0.0319 -0.0588
 1296ERGO    R119794  13.227  16.829   6.345 -0.1764 -0.0200 -0.0990
 1296ERGO    R219795  13.318  17.007   6.535 -0.0631 -0.1940  0.0192
 1296ERGO    R319796  13.057  17.084   6.541  0.0138  0.0824 -0.0676
 1296ERGO    R419797  13.178  17.214   6.775  0.0586 -0.0710 -0.0156
 1296ERGO    R519798  13.001  17.087   6.774 -0.0739  0.1188 -0.0928
 1296ERGO    C119799  12.853  17.407   6.919  0.2018  0.2603 -0.1174
 1296ERGO    C219800  12.808  17.684   7.085 -0.0753  0.2934  0.1851
 1297ERGO   ROH19801  11.278   8.751   5.735 -0.1792 -0.1105  0.0498
 1297ERGO    R119802  11.190   8.886   5.967 -0.1355 -0.0861  0.0527
 1297ERGO    R219803  10.996   8.783   6.134 -0.1196 -0.0594  0.0898
 1297ERGO    R319804  11.185   8.821   6.325 -0.0882 -0.0592  0.0581
 1297ERGO    R419805  10.978   8.660   6.457 -0.1843  0.1511  0.1677
 1297ERGO    R519806  11.060   8.849   6.528 -0.0630  0.1447  0.0468
 1297ERGO    C119807  11.145   8.624   6.824 -0.1925  0.2739  0.1833
 1297ERGO    C219808  11.103   8.596   7.187  0.1147  0.0128  0.1879
 1298ERGO   ROH19809   8.295   2.331   5.691 -0.4050 -0.2457  0.0075
 1298ERGO    R119810   8.216   2.193   5.925 -0.2809 -0.1381  0.1144
 1298ERGO    R219811   8.375   2.181   6.152 -0.1845  0.0140  0.0567
 1298ERGO    R319812   8.151   2.278   6.273 -0.1539  0.0337  0.0975
 1298ERGO    R419813   8.292   2.127   6.483 -0.0406  0.1712  0.1202
 1298ERGO    R519814   8.084   2.101   6.421 -0.0605  0.0979  0.2178
 1298ERGO    C119815   8.034   2.185   6.790  0.0718  0.2812  0.1954
 1298ERGO    C219816   8.020   2.159   6.984  0.1805 -0.1475 -0.1007
 1299ERGO   ROH19817   7.291   5.077   5.781  0.0686 -0.1345 -0.0943
 1299ERGO    R119818   7.131   5.020   6.008  0.1461 -0.2631 -0.0712
 1299ERGO    R219819   7.236   4.915   6.241  0.2767 -0.1158 -0.0615
 1299ERGO    R319820   7.114   5.130   6.354  0.0611 -0.2207 -0.0885
 1299ERGO    R419821   7.072   4.910   6.545  0.4238 -0.2050  0.0174
 1299ERGO    R519822   6.918   5.039   6.458  0.2202 -0.4274  0.0385
 1299ERGO    C119823   6.863   5.110   6.829  0.3071 -0.3555  0.0380
 1299ERGO    C219824   6.679   5.212   7.064 -0.1742  0.0293 -0.1991
 1300ERGO   ROH19825   6.563  16.596   5.872  0.0622  0.2772  0.1586
 1300ERGO    R119826   6.399  16.641   6.098  0.1066  0.1960  0.2060
 1300ERGO    R219827   6.268  16.436   6.231  0.0322  0.1663  0.0772
 1300ERGO    R319828   6.396  16.538   6.447  0.0956 -0.0391  0.1395
 1300ERGO    R419829   6.135  16.455   6.549  0.0078  0.1213  0.0706
 1300ERGO    R519830   6.226  16.651   6.570  0.1687  0.0439  0.1728
 1300ERGO    C119831   6.179  16.561   6.938  0.0531 -0.0976  0.1254
 1300ERGO    C219832   6.148  16.666   7.244 -0.1255  0.1997  0.0447
 1301ERGO   ROH19833   0.844   6.090   5.875 -0.1861 -0.0541 -0.1163
 1301ERGO    R119834   0.930   5.850   5.997 -0.1689 -0.0278 -0.0762
 1301ERGO    R219835   1.196   5.794   6.046 -0.1588 -0.0378 -0.1457
 1301ERGO    R319836   1.108   5.756   6.300 -0.0804  0.0401 -0.1062
 1301ERGO    R419837   1.389   5.674   6.306 -0.0800  0.0249 -0.1750
 1301ERGO    R519838   1.218   5.556   6.372 -0.0678  0.0527 -0.0860
 1301ERGO    C119839   1.419   5.567   6.696  0.0395  0.1346 -0.1550
 1301ERGO    C219840   1.473   5.609   6.993  0.0018  0.0694 -0.2615
 1302ERGO   ROH19841   5.831   2.852   5.466 -0.1167 -0.1414  0.1527
 1302ERGO    R119842   5.775   2.984   5.710 -0.0464 -0.0564  0.1231
 1302ERGO    R219843   5.606   2.879   5.901  0.1805 -0.0973  0.3059
 1302ERGO    R319844   5.820   2.915   6.064  0.2738  0.1696  0.1318
 1302ERGO    R419845   5.587   2.930   6.242  0.3935 -0.2505  0.3424
 1302ERGO    R519846   5.746   3.078   6.224  0.1576  0.0037  0.2532
 1302ERGO    C119847   5.777   2.993   6.594  0.6052 -0.0892  0.2002
 1302ERGO    C219848   5.693   2.945   6.939 -0.0629  0.1876 -0.2961
 1303ERGO   ROH19849  10.497   9.749   5.754 -0.0377  0.3692  0.1709
 1303ERGO    R119850  10.395   9.681   6.009  0.0988  0.2776  0.2015
 1303ERGO    R219851  10.544   9.542   6.196  0.2176  0.2570  0.0920
 1303ERGO    R319852  10.481   9.752   6.356  0.2495  0.1998  0.1811
 1303ERGO    R419853  10.503   9.524   6.539 -0.0134  0.0713  0.0578
 1303ERGO    R519854  10.334   9.661   6.520  0.0840  0.1905  0.0308
 1303ERGO    C119855  10.420   9.712   6.888 -0.1178 -0.0905  0.1215
 1303ERGO    C219856  10.292   9.668   7.209 -0.1470  0.1298 -0.2466
 1304ERGO   ROH19857   7.138  10.390   5.809 -0.2168 -0.1927 -0.0777
 1304ERGO    R119858   7.143  10.314   6.081  0.0126 -0.3574 -0.1233
 1304ERGO    R219859   6.998  10.445   6.276  0.4934 -0.1953  0.1617
 1304ERGO    R319860   6.903  10.196   6.328  0.1172 -0.0648  0.1196
 1304ERGO    R419861   6.914  10.326   6.589  0.3611 -0.1630  0.1372
 1304ERGO    R519862   7.003  10.136   6.536  0.0529 -0.2820  0.0787
 1304ERGO    C119863   6.775  10.023   6.820 -0.0693 -0.0217  0.0833
 1304ERGO    C219864   6.689   9.816   7.171  0.0573  0.0747  0.0325
 1305ERGO   ROH19865  16.306   7.757   5.636 -0.3191 -0.0999  0.0531
 1305ERGO    R119866  16.255   7.725   5.913 -0.2143  0.1438  0.1036
 1305ERGO    R219867  16.434   7.605   6.085 -0.2932 -0.0287  0.0752
 1305ERGO    R319868  16.406   7.837   6.224  0.1344  0.1069 -0.0502
 1305ERGO    R419869  16.534   7.651   6.412 -0.1956 -0.0148  0.0438
 1305ERGO    R519870  16.351   7.766   6.446  0.0143  0.3369 -0.0084
 1305ERGO    C119871  16.565   7.895   6.734  0.2625  0.1206 -0.0923
 1305ERGO    C219872  16.540   8.044   7.080 -0.2740  0.2158 -0.1292
 1306ERGO   ROH19873  17.201  13.143   5.838 -0.1151 -0.0310 -0.0235
 1306ERGO    R119874  17.145  13.174   6.113  0.0760  0.0888  0.0029
 1306ERGO    R219875  17.101  12.960   6.282 -0.1920  0.1741  0.0415
 1306ERGO    R319876  17.299  13.075   6.428  0.0764 -0.1358 -0.0655
 1306ERGO    R419877  17.147  12.914   6.621 -0.2107  0.2564  0.0556
 1306ERGO    R519878  17.196  13.127   6.638  0.2161  0.1816 -0.0660
 1306ERGO    C119879  17.360  12.996   6.956  0.0302  0.0134 -0.0365
 1306ERGO    C219880  17.185  12.865   7.229  0.0689 -0.1572  0.0229
 1307ERGO   ROH19881   2.931  16.142   5.423  0.0375  0.4010 -0.3345
 1307ERGO    R119882   3.115  16.203   5.629  0.0022  0.1320 -0.2206
 1307ERGO    R219883   3.052  16.367   5.842  0.0665  0.1091 -0.1890
 1307ERGO    R319884   3.135  16.155   5.990 -0.2155 -0.0340 -0.2280
 1307ERGO    R419885   3.140  16.382   6.176  0.3087 -0.0145 -0.2446
 1307ERGO    R519886   3.304  16.245   6.133  0.0450 -0.3182 -0.3426
 1307ERGO    C119887   3.269  16.191   6.509  0.1849 -0.2209 -0.3135
 1307ERGO    C219888   3.218  16.080   6.904 -0.2281 -0.1489 -0.1592
 1308ERGO   ROH19889  18.484   5.076   5.460 -0.0871 -0.1196  0.0237
 1308ERGO    R119890  18.576   5.002   5.717 -0.0782 -0.1671  0.0072
 1308ERGO    R219891  18.761   5.151   5.858 -0.0491 -0.2099  0.0153
 1308ERGO    R319892  18.570   5.147   6.051 -0.0363 -0.2126  0.0277
 1308ERGO    R419893  18.815   5.231   6.190 -0.0304 -0.2035  0.0106
 1308ERGO    R519894  18.684   5.066   6.245 -0.0217 -0.2062  0.0215
 1308ERGO    C119895  18.667   5.274   6.564 -0.0075 -0.2023  0.0196
 1308ERGO    C219896  18.790   5.427   6.729 -0.3509  0.2601 -0.2307
 1309ERGO   ROH19897  11.643  11.005   5.841 -0.1452 -0.0359 -0.0603
 1309ERGO    R119898  11.601  11.098   6.105 -0.0881  0.0312 -0.0736
 1309ERGO    R219899  11.363  11.063   6.240 -0.0936  0.1434 -0.0417
 1309ERGO    R319900  11.523  10.950   6.428 -0.1136  0.1197 -0.0407
 1309ERGO    R419901  11.274  11.013   6.570 -0.1074  0.1235 -0.0493
 1309ERGO    R519902  11.476  11.073   6.628 -0.1117  0.1033 -0.0352
 1309ERGO    C119903  11.373  10.879   6.940 -0.1343  0.0896 -0.0528
 1309ERGO    C219904  11.338  10.930   7.266 -0.1310 -0.1357 -0.4238
 1310ERGO   ROH19905  17.541  10.567   5.630 -0.2896  0.1909  0.1083
 1310ERGO    R119906  17.534  10.583   5.912 -0.0760  0.0279  0.1264
 1310ERGO    R219907  17.667  10.403   6.075  0.1512  0.0020 -0.0742
 1310ERGO    R319908  17.777  10.629   6.180  0.1140  0.0033 -0.0405
 1310ERGO    R419909  17.766  10.440   6.404  0.1010 -0.0072 -0.0588
 1310ERGO    R519910  17.685  10.642   6.401  0.0841 -0.0189 -0.0551
 1310ERGO    C119911  17.927  10.673   6.694  0.0369 -0.0115 -0.0182
 1310ERGO    C219912  18.111  10.807   6.981  0.1351  0.1196  0.0773
 1311ERGO   ROH19913  12.589  14.896   6.121 -0.1992 -0.0194  0.0749
 1311ERGO    R119914  12.669  15.110   6.288 -0.1199  0.1277 -0.1456
 1311ERGO    R219915  12.635  15.376   6.218 -0.5186  0.0724 -0.1952
 1311ERGO    R319916  12.506  15.389   6.456 -0.1171  0.0228  0.0321
 1311ERGO    R419917  12.650  15.643   6.436 -0.5504  0.2459 -0.4027
 1311ERGO    R519918  12.660  15.502   6.601 -0.0294  0.3672 -0.3153
 1311ERGO    C119919  12.538  15.811   6.787 -0.1919  0.3002 -0.3101
 1311ERGO    C219920  12.515  15.977   7.119  0.1853  0.2307 -0.2697
 1312ERGO   ROH19921  11.832  16.440   6.299 -0.1331  0.2832 -0.0817
 1312ERGO    R119922  11.755  16.523   6.559 -0.1199  0.1573 -0.0355
 1312ERGO    R219923  11.528  16.426   6.686 -0.1106  0.0807 -0.0596
 1312ERGO    R319924  11.705  16.364   6.882 -0.0850 -0.0024 -0.1102
 1312ERGO    R419925  11.447  16.373   7.017 -0.0319  0.0555 -0.0451
 1312ERGO    R519926  11.626  16.482   7.074  0.0073 -0.0134 -0.0737
 1312ERGO    C119927  11.566  16.285   7.395  0.0379 -0.0371 -0.0842
 1312ERGO    C219928  11.703  16.310   7.722  0.0645 -0.1518  0.1031
 1313ERGO   ROH19929  18.036  18.192   5.799  0.1038  0.0592 -0.0944
 1313ERGO    R119930  18.104  17.952   5.932  0.0294  0.0070 -0.1501
 1313ERGO    R219931  18.350  17.828   5.899  0.1054  0.1009  0.0507
 1313ERGO    R319932  18.357  17.845   6.170 -0.1989 -0.0449  0.0732
 1313ERGO    R419933  18.568  17.654   6.102  0.0772  0.2143  0.1811
 1313ERGO    R519934  18.405  17.622   6.243 -0.0420 -0.0384 -0.0067
 1313ERGO    C119935  18.702  17.568   6.475 -0.2254  0.1438  0.2780
 1313ERGO    C219936  18.696  17.401   6.730 -0.1577  0.0337  0.1415
 1314ERGO   ROH19937   5.484  12.914   5.665  0.0901 -0.0475  0.1537
 1314ERGO    R119938   5.590  12.877   5.925 -0.0084 -0.0850  0.1889
 1314ERGO    R219939   5.608  13.083   6.109  0.1582 -0.0515  0.1359
 1314ERGO    R319940   5.469  12.910   6.267 -0.0565  0.1324  0.1524
 1314ERGO    R419941   5.669  13.030   6.445  0.0662 -0.0623  0.1508
 1314ERGO    R519942   5.634  12.817   6.413 -0.1745 -0.0320  0.1842
 1314ERGO    C119943   5.573  12.837   6.789 -0.1889  0.1041  0.1751
 1314ERGO    C219944   5.574  12.867   7.139  0.2155  0.0101  0.0041
 1315ERGO   ROH19945  15.048  16.925   5.699 -0.0763 -0.0707 -0.0841
 1315ERGO    R119946  15.088  16.824   5.960 -0.1056  0.0696 -0.0254
 1315ERGO    R219947  15.290  16.916   6.126 -0.0676  0.0912 -0.0919
 1315ERGO    R319948  15.084  16.956   6.299 -0.0430  0.2712 -0.1008
 1315ERGO    R419949  15.313  16.893   6.470 -0.1276 -0.0777 -0.0969
 1315ERGO    R519950  15.119  16.795   6.472 -0.2537  0.1523 -0.1606
 1315ERGO    C119951  15.134  16.918   6.833 -0.1393 -0.0072 -0.1080
 1315ERGO    C219952  15.118  17.128   7.181  0.1780 -0.1583 -0.2529
 1316ERGO   ROH19953   4.612   4.146   5.337 -0.0887 -0.0021  0.0502
 1316ERGO    R119954   4.474   4.252   5.561  0.0419  0.1212  0.0763
 1316ERGO    R219955   4.307   4.099   5.719 -0.2095  0.3006  0.0083
 1316ERGO    R319956   4.465   4.191   5.919 -0.0791 -0.0071  0.0491
 1316ERGO    R419957   4.213   4.121   6.050 -0.1872  0.3639  0.0090
 1316ERGO    R519958   4.316   4.312   6.062  0.1132  0.1902  0.0727
 1316ERGO    C119959   4.307   4.220   6.432 -0.0520  0.1118  0.0478
 1316ERGO    C219960   4.186   4.119   6.735 -0.0633 -0.1423  0.0529
 1317ERGO   ROH19961  16.298  13.694   5.751 -0.0347 -0.0823  0.0992
 1317ERGO    R119962  16.197  13.675   6.015  0.0129  0.1914  0.1406
 1317ERGO    R219963  16.219  13.444   6.167 -0.3779  0.1861  0.2009
 1317ERGO    R319964  16.333  13.613   6.347  0.0105  0.0280  0.1114
 1317ERGO    R419965  16.278  13.368   6.498 -0.2951  0.1349  0.1749
 1317ERGO    R519966  16.216  13.570   6.551  0.0652  0.2470  0.1900
 1317ERGO    C119967  16.420  13.482   6.861  0.1178 -0.0433  0.0756
 1317ERGO    C219968  16.507  13.375   7.042  0.2100 -0.1291  0.2618
 1318ERGO   ROH19969  18.087  15.823   5.688 -0.2815 -0.1951  0.0036
 1318ERGO    R119970  18.039  15.913   5.953 -0.0911 -0.1091  0.0099
 1318ERGO    R219971  17.811  15.845   6.093 -0.0445  0.0394  0.1483
 1318ERGO    R319972  17.989  15.759   6.279  0.0109 -0.0054  0.0769
 1318ERGO    R419973  17.763  15.859   6.435 -0.0902 -0.3253  0.1620
 1318ERGO    R519974  17.971  15.918   6.457 -0.1293 -0.1830  0.2318
 1318ERGO    C119975  17.903  15.787   6.809 -0.0651 -0.5798  0.1029
 1318ERGO    C219976  17.842  15.763   7.171  0.1575  0.0007 -0.1365
 1319ERGO   ROH19977   2.983  16.679   5.420 -0.0277  0.1415  0.0080
 1319ERGO    R119978   3.055  16.902   5.577 -0.1843  0.0854  0.1609
 1319ERGO    R219979   2.909  16.980   5.799 -0.1599 -0.2527  0.3012
 1319ERGO    R319980   3.150  16.962   5.923 -0.0766 -0.1076  0.1659
 1319ERGO    R419981   2.970  17.073   6.127 -0.0429 -0.2748  0.2867
 1319ERGO    R519982   3.160  17.157   6.062 -0.1367 -0.1275  0.1980
 1319ERGO    C119983   3.231  17.109   6.434  0.1034 -0.1513  0.1513
 1319ERGO    C219984   3.308  17.079   6.766 -0.0111  0.0186  0.2887
 1320ERGO   ROH19985  14.919   8.161   5.557  0.0197 -0.0555  0.0865
 1320ERGO    R119986  14.956   8.172   5.838 -0.1202  0.0060  0.1037
 1320ERGO    R219987  15.201   8.222   5.954 -0.1487 -0.0982  0.2179
 1320ERGO    R319988  15.065   8.420   6.081 -0.1064  0.0173  0.0847
 1320ERGO    R419989  15.196   8.271   6.296 -0.4794 -0.1206  0.2189
 1320ERGO    R519990  14.984   8.318   6.281 -0.4219  0.0762 -0.0093
 1320ERGO    C119991  15.065   8.486   6.614 -0.6320 -0.0255  0.0946
 1320ERGO    C219992  15.118   8.776   6.819  0.0484 -0.0663  0.0612
 1321ERGO   ROH19993   7.608  15.885   5.862 -0.1074  0.0892  0.0407
 1321ERGO    R119994   7.465  15.857   6.105 -0.1029 -0.0152  0.0315
 1321ERGO    R219995   7.497  15.639   6.272  0.1655  0.0824  0.1094
 1321ERGO    R319996   7.548  15.830   6.458 -0.1110  0.2166  0.0536
 1321ERGO    R419997   7.419  15.613   6.608  0.3153  0.0045  0.1388
 1321ERGO    R519998   7.359  15.822   6.605 -0.0597 -0.0936  0.1145
 1321ERGO    C119999   7.423  15.777   6.978  0.1429  0.0852  0.1036
 1321ERGO    C220000   7.361  15.546   7.121  0.5366 -0.1275 -0.1324
 1322ERGO   ROH20001  13.378  14.693   6.288 -0.1521 -0.2007 -0.0876
 1322ERGO    R120002  13.465  14.668   6.556  0.0226  0.1618 -0.1049
 1322ERGO    R220003  13.412  14.859   6.748 -0.4662  0.1026 -0.1706
 1322ERGO    R320004  13.309  14.647   6.884  0.1874 -0.1557 -0.0431
 1322ERGO    R420005  13.301  14.869   7.075 -0.5741 -0.0184 -0.2021
 1322ERGO    R520006  13.392  14.673   7.107  0.0666  0.2800 -0.0408
 1322ERGO    C120007  13.140  14.676   7.393 -0.0234 -0.3313 -0.1008
 1322ERGO    C220008  13.146  14.730   7.757  0.1638  0.0287  0.2031
 1323ERGO   ROH20009  17.544  11.869   5.949  0.0552  0.1392 -0.0492
 1323ERGO    R120010  17.680  12.035   6.132  0.0786  0.0757 -0.0082
 1323ERGO    R220011  17.564  12.126   6.366  0.0617  0.1039 -0.0259
 1323ERGO    R320012  17.785  12.016   6.480 -0.0041  0.0118  0.0127
 1323ERGO    R420013  17.609  12.081   6.706 -0.0982 -0.1018 -0.0299
 1323ERGO    R520014  17.817  12.142   6.681 -0.0808 -0.1111  0.1023
 1323ERGO    C120015  17.843  11.952   7.011 -0.2531 -0.3078  0.0041
 1323ERGO    C220016  17.883  11.996   7.293  0.2265  0.2364 -0.1232
 1324ERGO   ROH20017   2.220   4.048   5.735 -0.1310  0.0951 -0.0765
 1324ERGO    R120018   2.328   4.023   5.996 -0.1999  0.3381 -0.0230
 1324ERGO    R220019   2.176   4.057   6.224 -0.4219 -0.0936 -0.0997
 1324ERGO    R320020   2.273   3.811   6.286  0.1978  0.1346 -0.0880
 1324ERGO    R420021   2.207   3.932   6.545 -0.4890 -0.1371 -0.1096
 1324ERGO    R520022   2.398   3.845   6.487 -0.1488  0.4163  0.0944
 1324ERGO    C120023   2.316   3.628   6.790  0.0536  0.0518 -0.1043
 1324ERGO    C220024   2.282   3.496   7.033 -0.0568 -0.1609  0.0152
 1325ERGO   ROH20025  11.791   5.106   5.768 -0.1795 -0.1804  0.0286
 1325ERGO    R120026  11.579   5.090   5.955 -0.1287 -0.0519  0.0994
 1325ERGO    R220027  11.538   4.868   6.115 -0.2640 -0.0664  0.0494
 1325ERGO    R320028  11.547   5.052   6.316 -0.0320 -0.1305  0.0997
 1325ERGO    R420029  11.457   4.805   6.445 -0.4033 -0.0423  0.0199
 1325ERGO    R520030  11.358   4.999   6.453 -0.1300  0.0989  0.0571
 1325ERGO    C120031  11.419   4.940   6.825 -0.2666 -0.0884  0.0500
 1325ERGO    C220032  11.431   4.828   7.085 -0.0033 -0.0619 -0.5117
 1326ERGO   ROH20033   6.972  12.773   5.817  0.0482 -0.0398  0.1337
 1326ERGO    R120034   6.815  12.720   6.047 -0.0685 -0.0391  0.0555
 1326ERGO    R220035   6.557  12.622   6.031 -0.0235 -0.1451 -0.0721
 1326ERGO    R320036   6.655  12.429   6.196 -0.0434 -0.0621  0.0370
 1326ERGO    R420037   6.376  12.463   6.279 -0.0103  0.0830  0.0863
 1326ERGO    R520038   6.552  12.473   6.408  0.0250  0.1168  0.0335
 1326ERGO    C120039   6.363  12.190   6.578 -0.0212  0.2937  0.2810
 1326ERGO    C220040   6.120  12.004   6.518  0.0845 -0.3062 -0.0656
 1327ERGO   ROH20041  10.199  17.704   5.957 -0.1912 -0.1762  0.0094
 1327ERGO    R120042  10.274  17.661   6.227 -0.1184 -0.1047  0.0012
 1327ERGO    R220043  10.319  17.868   6.404 -0.0857 -0.0573 -0.0613
 1327ERGO    R320044  10.135  17.736   6.555 -0.0384 -0.0325  0.0188
 1327ERGO    R420045  10.340  17.822   6.746 -0.0040  0.0422 -0.0524
 1327ERGO    R520046  10.265  17.619   6.718  0.0098  0.0272  0.0229
 1327ERGO    C120047  10.180  17.671   7.086  0.0881  0.1236  0.0280
 1327ERGO    C220048  10.138  17.575   7.443 -0.1786  0.0556 -0.3585
 1328ERGO   ROH20049   2.534   2.507   5.578 -0.0129  0.0964  0.1354
 1328ERGO    R120050   2.666   2.519   5.828 -0.0070 -0.0305  0.1397
 1328ERGO    R220051   2.539   2.463   6.066 -0.0402 -0.0106  0.1286
 1328ERGO    R320052   2.744   2.287   6.098 -0.1385 -0.1323  0.0908
 1328ERGO    R420053   2.694   2.394   6.367  0.2409  0.2037  0.0367
 1328ERGO    R520054   2.886   2.390   6.261  0.1245 -0.0565 -0.1763
 1328ERGO    C120055   2.977   2.188   6.572  0.3122  0.2143 -0.0522
 1328ERGO    C220056   3.165   2.225   6.906  0.0093  0.1774  0.1600
 1329ERGO   ROH20057   9.868   3.700   6.143  0.0106 -0.0575 -0.0340
 1329ERGO    R120058   9.907   3.557   6.384 -0.0073  0.0490  0.0329
 1329ERGO    R220059   9.730   3.570   6.596 -0.0597  0.0881 -0.0132
 1329ERGO    R320060   9.729   3.300   6.570  0.0167  0.0771  0.0948
 1329ERGO    R420061   9.661   3.348   6.851 -0.2756  0.1786  0.0097
 1329ERGO    R520062   9.821   3.220   6.777 -0.1750  0.1771  0.2215
 1329ERGO    C120063   9.621   2.965   6.977 -0.3296  0.2210  0.1244
 1329ERGO    C220064   9.384   2.749   7.096  0.0009  0.0440  0.0876
 1330ERGO   ROH20065  14.972   5.207   5.897 -0.1007 -0.0610 -0.0623
 1330ERGO    R120066  15.019   5.432   6.061 -0.2303  0.0016 -0.1105
 1330ERGO    R220067  14.815   5.570   6.186 -0.2918 -0.2490  0.0698
 1330ERGO    R320068  14.962   5.522   6.409 -0.0272 -0.0632 -0.0592
 1330ERGO    R420069  14.843   5.786   6.454 -0.2385 -0.1643 -0.0030
 1330ERGO    R520070  15.055   5.736   6.466 -0.1734  0.0400 -0.1956
 1330ERGO    C120071  14.998   5.867   6.820  0.0409  0.0595 -0.1663
 1330ERGO    C220072  14.968   5.838   7.034  0.1457  0.0721  0.2611
 1331ERGO   ROH20073   9.450   4.482   5.922 -0.2546  0.0475  0.0884
 1331ERGO    R120074   9.418   4.345   6.167 -0.3680 -0.1056 -0.0114
 1331ERGO    R220075   9.515   4.442   6.407 -0.2004 -0.4064  0.0451
 1331ERGO    R320076   9.257   4.410   6.487 -0.2256 -0.1620  0.0731
 1331ERGO    R420077   9.415   4.394   6.734 -0.2113 -0.2678  0.0631
 1331ERGO    R520078   9.270   4.247   6.663 -0.3532 -0.1508  0.0970
 1331ERGO    C120079   9.116   4.336   7.001 -0.2412  0.0424  0.0999
 1331ERGO    C220080   8.980   4.336   7.270 -0.1162 -0.0263 -0.2572
 1332ERGO   ROH20081  15.111  15.039   5.812  0.2940  0.1183  0.0480
 1332ERGO    R120082  15.250  15.063   6.058  0.2400  0.3607  0.0575
 1332ERGO    R220083  15.194  15.262   6.241 -0.1332  0.2619  0.0659
 1332ERGO    R320084  15.166  15.053   6.412  0.2328  0.1938  0.0506
 1332ERGO    R420085  15.148  15.291   6.582 -0.2091  0.1515  0.0648
 1332ERGO    R520086  15.282  15.121   6.609  0.0971  0.3897  0.0620
 1332ERGO    C120087  15.094  15.111   6.941  0.0902  0.0234  0.0499
 1332ERGO    C220088  14.934  15.089   7.208  0.2523 -0.1449  0.2002
 1333ERGO   ROH20089  15.223  13.212   6.038  0.2787 -0.0655  0.0686
 1333ERGO    R120090  15.148  13.216   6.311  0.2220 -0.0341  0.0528
 1333ERGO    R220091  15.163  12.993   6.473  0.0940 -0.0409  0.0567
 1333ERGO    R320092  15.311  13.157   6.631  0.1293 -0.1024  0.0876
 1333ERGO    R420093  15.309  12.899   6.771  0.0319 -0.1132  0.0646
 1333ERGO    R520094  15.252  13.093   6.854  0.0852 -0.1029  0.0753
 1333ERGO    C120095  15.534  12.998   7.094  0.0290 -0.2132  0.0982
 1333ERGO    C220096  15.764  12.903   7.237 -0.1924  0.2720 -0.1874
 1334ERGO   ROH20097   5.159  14.055   5.576  0.0406 -0.1621  0.1366
 1334ERGO    R120098   5.060  14.082   5.840 -0.0262 -0.1273  0.1090
 1334ERGO    R220099   4.935  13.875   5.974 -0.1619 -0.0799  0.0676
 1334ERGO    R320100   5.123  13.927   6.163 -0.1901 -0.1702  0.1195
 1334ERGO    R420101   4.939  13.740   6.292 -0.2195 -0.1956  0.0191
 1334ERGO    R520102   5.001  13.934   6.369 -0.2157 -0.2361  0.1014
 1334ERGO    C120103   5.117  13.710   6.654 -0.2794 -0.3477  0.0395
 1334ERGO    C220104   4.939  13.630   6.948  0.0672 -0.0695  0.1640
 1335ERGO   ROH20105   3.879   6.165   5.399 -0.1301  0.1936  0.1197
 1335ERGO    R120106   3.866   5.973   5.607 -0.1859  0.0097 -0.0514
 1335ERGO    R220107   3.868   6.043   5.875  0.2156 -0.2478  0.0178
 1335ERGO    R320108   3.640   5.896   5.881 -0.0032  0.0852  0.1244
 1335ERGO    R420109   3.716   5.928   6.163  0.4093 -0.3534  0.0803
 1335ERGO    R520110   3.674   5.740   6.060 -0.0025 -0.1806 -0.0980
 1335ERGO    C120111   3.412   5.723   6.337  0.3166 -0.1023  0.2168
 1335ERGO    C220112   3.404   5.757   6.810 -0.2862  0.4646 -0.3501
 1336ERGO   ROH20113   7.264   3.346   5.826  0.0066 -0.2541  0.0247
 1336ERGO    R120114   7.258   3.259   6.095 -0.1278 -0.1483  0.0560
 1336ERGO    R220115   7.382   3.398   6.299 -0.0229 -0.1977  0.0206
 1336ERGO    R320116   7.135   3.389   6.412 -0.0527  0.0935 -0.0104
 1336ERGO    R420117   7.319   3.427   6.638 -0.0155 -0.2243  0.0251
 1336ERGO    R520118   7.168   3.270   6.618 -0.2272 -0.0233 -0.0438
 1336ERGO    C120119   7.050   3.435   6.941 -0.0392  0.0337 -0.0013
 1336ERGO    C220120   6.932   3.434   7.262  0.2534  0.0952  0.2850
 1337ERGO   ROH20121  17.276  17.021   5.595 -0.1950 -0.0508  0.0352
 1337ERGO    R120122  17.292  16.977   5.874 -0.2078 -0.0275  0.0389
 1337ERGO    R220123  17.471  16.800   5.987 -0.2511 -0.0549  0.0557
 1337ERGO    R320124  17.544  17.017   6.134 -0.2026 -0.0594  0.0401
 1337ERGO    R420125  17.632  16.786   6.292 -0.2815 -0.0751  0.0716
 1337ERGO    R520126  17.506  16.950   6.361 -0.2434 -0.0294  0.0450
 1337ERGO    C120127  17.794  16.982   6.609 -0.2535 -0.0910  0.0661
 1337ERGO    C220128  18.052  17.249   6.769  0.0408 -0.0425 -0.0418
 1338ERGO   ROH20129   5.310   4.818   5.426  0.1198  0.0327 -0.1038
 1338ERGO    R120130   5.367   4.801   5.703  0.2991 -0.1515 -0.1500
 1338ERGO    R220131   5.606   4.886   5.811  0.2036  0.1854 -0.1958
 1338ERGO    R320132   5.444   5.033   5.973  0.0061 -0.2797  0.0497
 1338ERGO    R420133   5.699   5.017   6.117  0.1901  0.1946 -0.1954
 1338ERGO    R520134   5.502   4.963   6.194  0.3684 -0.3039 -0.0455
 1338ERGO    C120135   5.601   5.231   6.447 -0.0032 -0.2366  0.0353
 1338ERGO    C220136   5.535   5.326   6.779  0.1830  0.0330  0.0434
 1339ERGO   ROH20137   5.470   3.794   5.583 -0.0519  0.3359 -0.0105
 1339ERGO    R120138   5.482   3.958   5.813 -0.1487  0.2232  0.0751
 1339ERGO    R220139   5.315   3.922   6.031  0.1308 -0.2406  0.2211
 1339ERGO    R320140   5.549   3.911   6.168  0.2960  0.1372 -0.0133
 1339ERGO    R420141   5.352   4.000   6.365  0.3089 -0.2811  0.2126
 1339ERGO    R520142   5.540   4.098   6.317  0.0952  0.0819  0.0536
 1339ERGO    C120143   5.593   4.035   6.689  0.5677  0.0500 -0.0124
 1339ERGO    C220144   5.634   4.209   6.946  0.1594 -0.0286 -0.0036
 1340ERGO   ROH20145   5.657   9.909   5.889 -0.0797  0.0925  0.1255
 1340ERGO    R120146   5.656   9.770   6.136 -0.0476  0.0270  0.0878
 1340ERGO    R220147   5.873   9.623   6.224 -0.0206  0.0487  0.0420
 1340ERGO    R320148   5.847   9.779   6.445 -0.0453 -0.0200  0.0897
 1340ERGO    R420149   5.955   9.526   6.546  0.1715  0.0198 -0.0135
 1340ERGO    R520150   5.776   9.629   6.617  0.1223 -0.1175  0.0809
 1340ERGO    C120151   5.978   9.617   6.940  0.2602 -0.0617 -0.0010
 1340ERGO    C220152   6.137   9.634   7.201  0.1336  0.0702  0.2439
 1341ERGO   ROH20153   9.922   7.458   6.005 -0.1300 -0.1231  0.0310
 1341ERGO    R120154  10.055   7.429   6.252 -0.0721  0.1745  0.0395
 1341ERGO    R220155  10.017   7.603   6.464 -0.4484  0.1179  0.0283
 1341ERGO    R320156   9.960   7.375   6.599  0.0231 -0.0031  0.0386
 1341ERGO    R420157  10.002   7.577   6.808 -0.3710  0.0955  0.0293
 1341ERGO    R520158  10.102   7.384   6.793  0.0241  0.2902  0.0278
 1341ERGO    C120159   9.939   7.348   7.136  0.1168 -0.0311  0.0396
 1341ERGO    C220160  10.090   7.379   7.481 -0.1528  0.0930 -0.1198
 1342ERGO   ROH20161  17.970  13.939   5.485  0.2939 -0.2168  0.1997
 1342ERGO    R120162  17.838  14.058   5.705  0.2789  0.0251  0.0608
 1342ERGO    R220163  17.685  13.913   5.884  0.0793  0.2587  0.0739
 1342ERGO    R320164  17.849  14.028   6.067  0.0748  0.2455  0.0897
 1342ERGO    R420165  17.650  13.884   6.227  0.0393  0.2597  0.0717
 1342ERGO    R520166  17.703  14.094   6.245  0.0582  0.2604  0.0761
 1342ERGO    C120167  17.784  13.975   6.598  0.0116  0.2480  0.0853
 1342ERGO    C220168  17.703  14.017   6.991  0.1174 -0.1293 -0.1627
 1343ERGO   ROH20169   4.300  15.503   5.604  0.0389 -0.0580  0.0351
 1343ERGO    R120170   4.392  15.399   5.850  0.1413  0.0812  0.0566
 1343ERGO    R220171   4.509  15.557   6.045 -0.1053  0.2540  0.0659
 1343ERGO    R320172   4.316  15.447   6.203  0.0147 -0.0000  0.0414
 1343ERGO    R420173   4.525  15.532   6.389 -0.1722  0.4008  0.0809
 1343ERGO    R520174   4.438  15.333   6.374  0.1466  0.2500  0.1202
 1343ERGO    C120175   4.354  15.414   6.738 -0.0985  0.2477  0.0668
 1343ERGO    C220176   4.148  15.550   7.017  0.1497 -0.4200  0.2153
 1344ERGO   ROH20177  14.948  15.687   5.731  0.0504  0.1922  0.1108
 1344ERGO    R120178  15.104  15.721   5.965  0.0490 -0.0798  0.1532
 1344ERGO    R220179  15.029  15.890   6.171  0.2478 -0.0099  0.1626
 1344ERGO    R320180  15.060  15.666   6.322 -0.1097 -0.0854  0.1355
 1344ERGO    R420181  14.974  15.872   6.512  0.3297  0.0819  0.1817
 1344ERGO    R520182  15.151  15.746   6.529  0.1154 -0.2529  0.1113
 1344ERGO    C120183  14.971  15.652   6.852  0.0418  0.0645  0.1676
 1344ERGO    C220184  14.963  15.609   7.294  0.1819 -0.1002 -0.0656
 1345ERGO   ROH20185   9.789   1.816   6.121 -0.3351 -0.1485 -0.1642
 1345ERGO    R120186   9.830   1.758   6.394 -0.1542 -0.2982 -0.2218
 1345ERGO    R220187   9.706   1.899   6.596  0.1886 -0.2298 -0.0582
 1345ERGO    R320188   9.626   1.652   6.676 -0.0243 -0.1693 -0.0751
 1345ERGO    R420189   9.633   1.812   6.923  0.3798 -0.2476 -0.0185
 1345ERGO    R520190   9.733   1.621   6.889  0.1360 -0.3589 -0.1760
 1345ERGO    C120191   9.516   1.530   7.188  0.2913 -0.2011 -0.0114
 1345ERGO    C220192   9.416   1.449   7.573 -0.4689  0.1661  0.1841
 1346ERGO   ROH20193   6.255  14.426   5.441 -0.0704  0.0054 -0.0305
 1346ERGO    R120194   6.177  14.523   5.695  0.0200  0.0798 -0.0310
 1346ERGO    R220195   5.980  14.402   5.846 -0.0297  0.2117  0.0085
 1346ERGO    R320196   6.174  14.396   6.036 -0.0076  0.1209 -0.0158
 1346ERGO    R420197   5.930  14.312   6.176 -0.0475  0.3162  0.0355
 1346ERGO    R520198   6.064  14.472   6.235  0.0705  0.2388 -0.0171
 1346ERGO    C120199   6.083  14.253   6.546 -0.0371  0.2919  0.0283
 1346ERGO    C220200   6.040  14.149   6.888  0.2402 -0.0137  0.0759
 1347W        W20201  12.021   4.186   2.578 -0.3603 -0.2263  0.2443
 1348W        W20202  12.474   4.481   0.990 -0.0171 -0.0611  0.2137
 1349W        W20203  10.088   0.183  11.872 -0.0864  0.1009 -0.2482
 1350W        W20204   7.345  15.784   0.068  0.0116  0.3736 -0.2298
 1351W        W20205   3.309   3.509  13.124 -0.0048 -0.1519  0.0488
 1352W        W20206  14.429  13.636  14.810 -0.0032 -0.0729 -0.2399
 1353W        W20207   0.265  17.713  13.840  0.1437 -0.1180  0.1769
 1354W        W20208   6.373   6.189   1.076  0.0036 -0.0941  0.1215
 1355W        W20209  14.622  11.086  13.770  0.2467 -0.0202  0.0454
 1356W        W20210  18.379  10.992   4.177  0.0088 -0.0471 -0.0715
 1357W        W20211   9.241  16.202   2.276 -0.1796  0.2247 -0.0021
 1358W        W20212  13.690  14.388   4.448 -0.2527  0.0110 -0.0303
 1359W        W20213   8.790   3.568  14.264  0.0277 -0.0334 -0.7061
 1360W        W20214   2.113  11.816   2.985 -0.0593 -0.0545 -0.2257
 1361W        W20215  17.729  18.058  12.448  0.2555 -0.5036 -0.0676
 1362W        W20216  10.746  16.240   1.881 -0.1061 -0.1217 -0.1782
 1363W        W20217   4.541   7.248  14.004  0.0513  0.0677 -0.0520
 1364W        W20218   5.740   7.232  11.685  0.1266 -0.2849  0.1168
 1365W        W20219   7.118   3.746   5.524 -0.0775  0.0907  0.0668
 1366W        W20220   3.617  18.224  11.806  0.0172 -0.1852 -0.2844
 1367W        W20221  13.238   6.164   1.392 -0.2156 -0.1754 -0.0339
 1368W        W20222  14.439   3.857   0.432 -0.0000 -0.3189 -0.0027
 1369W        W20223  17.274   5.480   3.349  0.0980 -0.3153  0.0191
 1370W        W20224   5.698   8.353   0.687  0.0886  0.0068 -0.0035
 1371W        W20225  17.928   4.539  12.825 -0.6258  0.0965  0.0639
 1372W        W20226  12.724   3.167   3.460 -0.1370  0.0795  0.1709
 1373W        W20227  10.004   0.177   0.883 -0.1324  0.0399  0.2153
 1374W        W20228   6.999  17.163   4.181  0.3110 -0.3773 -0.0712
 1375W        W20229  11.335  16.716   0.599 -0.1304 -0.0031 -0.3719
 1376W        W20230  18.169   4.996  12.058  0.0508  0.2347  0.1087
 1377W        W20231  16.806   7.242  11.346  0.0746 -0.1687  0.0652
 1378W        W20232   7.623   0.175  13.381  0.2652 -0.0070  0.1574
 1379W        W20233  17.246  12.778   2.254 -0.0676  0.0557  0.4717
 1380W        W20234   7.145  18.417   3.600 -0.3639  0.0500  0.0001
 1381W        W20235   0.130   9.274  10.599  0.1443  0.1944  0.3914
 1382W        W20236  11.450   6.782  13.921  0.1169 -0.3699  0.4628
 1383W        W20237  12.992   0.650   2.701 -0.4621  0.0430 -0.0325
 1384W        W20238  13.854   4.891  14.755 -0.2004  0.1537 -0.2182
 1385W        W20239  14.817   5.895   2.606  0.1760 -0.0415  0.0123
 1386W        W20240   9.034  10.372  13.972 -0.1057  0.1212  0.2221
 1387W        W20241   1.602  12.563  14.632 -0.1846  0.0610  0.0939
 1388W        W20242  11.103  14.921  11.047  0.0398 -0.0740 -0.1524
 1389W        W20243   7.588  15.334  11.695  0.3592  0.0334 -0.0329
 1390W        W20244  14.664  11.269   5.268  0.2679  0.0954 -0.1616
 1391W        W20245   2.204   5.671   0.931  0.0975  0.0012 -0.1923
 1392W        W20246  16.168  12.559  12.214 -0.2261 -0.1671  0.0719
 1393W        W20247  18.052  13.955  14.268  0.0270 -0.1285  0.0675
 1394W        W20248  18.161  17.202  11.972 -0.0748 -0.2496 -0.0377
 1395W        W20249  10.091   7.315  14.068  0.2728 -0.0911 -0.3002
 1396W        W20250  17.779  14.269   1.034 -0.1328  0.1069 -0.5929
 1397W        W20251  17.052  13.634   1.398  0.0511  0.0382 -0.0532
 1398W        W20252  15.613   9.250  15.449 -0.0910  0.1675 -0.1514
 1399W        W20253  15.114   6.248   2.792 -0.1353  0.1669 -0.1693
 1400W        W20254  13.827   2.218   0.584 -0.2087  0.1199 -0.2771
 1401W        W20255  12.686  15.864   2.425  0.0151  0.1814  0.0824
 1402W        W20256  15.702  15.199   1.292  0.0318  0.3012  0.0295
 1403W        W20257  10.215   4.451  11.431 -0.2322  0.4561  0.1500
 1404W        W20258   0.625   2.242   2.251  0.3268 -0.0408 -0.1627
 1405W        W20259   9.766   3.282  11.059 -0.0667  0.0037 -0.0952
 1406W        W20260  17.121   4.756   0.501 -0.1467 -0.2947  0.2209
 1407W        W20261   6.452   4.763   4.398 -0.0459 -0.2710  0.0619
 1408W        W20262   8.415  15.760   0.195 -0.4667 -0.1091 -0.1110
 1409W        W20263  18.466   2.106  14.232 -0.2231 -0.2287 -0.1428
 1410W        W20264  13.794  14.363   1.339  0.0828  0.2454  0.1360
 1411W        W20265  12.096  13.276  11.182  0.1395  0.0189  0.2471
 1412W        W20266   4.266   9.227   1.174 -0.1698  0.1800 -0.1022
 1413W        W20267  15.411   2.507  13.062 -0.2216 -0.0579  0.0715
 1414W        W20268  18.168   4.032   1.179  0.0796 -0.1498 -0.1285
 1415W        W20269   7.433   9.355   3.948  0.1120  0.2752 -0.2943
 1416W        W20270   8.853  14.806   4.401 -0.1113 -0.2106 -0.0740
 1417W        W20271  18.563   2.463  12.908 -0.0417 -0.2808  0.0417
 1418W        W20272   9.434  12.874  12.744 -0.0856  0.0833 -0.1001
 1419W        W20273   4.141   7.384   2.179  0.0195  0.1582 -0.2066
 1420W        W20274   8.083   2.400   3.528  0.1111 -0.1882 -0.1683
 1421W        W20275   0.894   1.938  15.338 -0.0173  0.1222  0.1152
 1422W        W20276   0.695  16.295  11.108 -0.0866 -0.2317  0.3840
 1423W        W20277  13.607  12.735   1.994  0.1202 -0.0779  0.1901
 1424W        W20278   5.043   5.356  15.447 -0.1661  0.0634 -0.1359
 1425W        W20279   3.505   4.540  12.257 -0.1834 -0.1169 -0.2607
 1426W        W20280   4.258   4.659  13.833  0.1473  0.1089  0.1045
 1427W        W20281  13.511  12.232  12.933 -0.1249 -0.1428  0.3429
 1428W        W20282  16.828   1.066   3.478  0.2132 -0.1871 -0.0319
 1429W        W20283  12.377  16.085   3.191 -0.2642  0.0185  0.2689
 1430W        W20284   9.629   6.656  12.946  0.1211  0.1042  0.0269
 1431W        W20285   5.656  15.190  14.668 -0.0590 -0.2347  0.0143
 1432W        W20286  13.671   4.696  14.338 -0.0500 -0.1713  0.1954
 1433W        W20287   1.701   2.287   3.718  0.2051  0.1246  0.1190
 1434W        W20288  16.247  17.454   0.899  0.0356  0.2110 -0.2071
 1435W        W20289   4.229  11.080   0.719  0.1079 -0.1418 -0.1148
 1436W        W20290  11.537   9.893  14.569 -0.2172 -0.0247  0.2084
 1437W        W20291   5.081  15.200  12.257  0.0802 -0.1264 -0.0926
 1438W        W20292   9.096   8.928   0.694  0.0832  0.2350  0.2509
 1439W        W20293   7.688   4.278   2.867 -0.1373  0.0342  0.1329
 1440W        W20294   8.387  15.782   3.110  0.1107 -0.1083  0.0579
 1441W        W20295  18.072  18.049   4.491  0.0266  0.1115 -0.1731
 1442W        W20296   9.656   7.594  12.907  0.0770  0.1270  0.2708
 1443W        W20297  17.513   7.266   3.106 -0.2244 -0.0080 -0.0897
 1444W        W20298   3.231   7.475  11.130  0.0090  0.0706 -0.0041
 1445W        W20299  13.444  16.886   1.472  0.1319  0.0660  0.1301
 1446W        W20300   6.996  13.085  11.218 -0.0181  0.0620 -0.1656
 1447W        W20301  14.835   9.820  15.183  0.1798  0.1802  0.1736
 1448W        W20302   1.556  10.512  14.522  0.5419  0.0629 -0.2985
 1449W        W20303  16.849  11.055   9.871  0.1214  0.0079  0.1885
 1450W        W20304   3.905   4.429   3.039  0.1023 -0.0142 -0.0981
 1451W        W20305   5.979  16.323   0.153 -0.0430  0.0088 -0.1943
 1452W        W20306   0.547   4.510  13.795 -0.2780  0.0308  0.0279
 1453W        W20307   4.252  12.452   1.349  0.0320  0.1276  0.3498
 1454W        W20308   4.281  15.875  13.075 -0.2310  0.0446 -0.1758
 1455W        W20309   1.771  16.295   3.030  0.2470 -0.0652 -0.0796
 1456W        W20310  10.799   8.157   2.911  0.1325 -0.1832  0.1563
 1457W        W20311   9.090   9.916  13.794 -0.0231 -0.0259 -0.4197
 1458W        W20312   3.033   2.117   2.101  0.0576  0.2308  0.1153
 1459W        W20313   0.749  13.361   1.924  0.4170 -0.0130  0.0901
 1460W        W20314   8.245  12.566   0.228  0.1299 -0.1324  0.3270
 1461W        W20315  18.013  17.242   1.339  0.0409  0.2953 -0.2070
 1462W        W20316   7.380  14.357   3.567 -0.0986 -0.2448 -0.1205
 1463W        W20317  16.502   0.917   0.186 -0.0599 -0.3111 -0.0735
 1464W        W20318  17.956   9.726   4.056 -0.3371 -0.3408  0.0911
 1465W        W20319   9.118   8.298   2.315  0.2422 -0.0429 -0.2273
 1466W        W20320   0.770   4.495   4.527 -0.0538 -0.0596 -0.1940
 1467W        W20321  11.989  14.932   0.697 -0.1621 -0.0820 -0.2831
 1468W        W20322   8.457   7.441   0.922  0.3560  0.1069 -0.4658
 1469W        W20323  13.202  15.710   0.033  0.0545  0.1277  0.2758
 1470W        W20324   0.077   0.984   1.186  0.0037  0.0370  0.1193
 1471W        W20325   8.882  10.495   4.470  0.1990 -0.1714 -0.2383
 1472W        W20326  12.569  11.113   5.468  0.0727  0.0118  0.1535
 1473W        W20327  13.429   1.033   5.415 -0.2875 -0.0780  0.1493
 1474W        W20328   9.205   0.408   3.455 -0.1985 -0.0148 -0.0738
 1475W        W20329  11.769   8.136   2.583 -0.0459 -0.1396 -0.0789
 1476W        W20330  13.018  17.015   1.956  0.2222 -0.0732 -0.1037
 1477W        W20331  17.970  12.595   3.917  0.0843  0.1160  0.1416
 1478W        W20332   4.629   0.444  13.891  0.1464  0.1440 -0.0501
 1479W        W20333  11.753   4.238   2.061  0.0433 -0.0662 -0.0353
 1480W        W20334   9.162   3.141   4.421  0.1135 -0.0737  0.2208
 1481W        W20335  11.620   0.351   1.954 -0.1254  0.0417 -0.0608
 1482W        W20336   9.951   1.076   3.190 -0.1581 -0.1280  0.2832
 1483W        W20337  12.382   0.972   4.701  0.0923  0.2103  0.1015
 1484W        W20338   6.853  12.505   2.484  0.0159 -0.0419  0.1022
 1485W        W20339  14.581  14.017   3.612  0.0400 -0.1586  0.0913
 1486W        W20340   7.065  10.195  14.022 -0.0254  0.2650 -0.1480
 1487W        W20341  15.521   7.239  14.888  0.1485 -0.0629 -0.1427
 1488W        W20342  16.296  16.409   5.066  0.0552  0.2291 -0.1423
 1489W        W20343  16.627   6.171   3.799  0.2150 -0.0975  0.1266
 1490W        W20344  16.709   2.930  13.481  0.0029 -0.2204  0.1204
 1491W        W20345   2.979  12.795   2.221  0.1202 -0.1152  0.0525
 1492W        W20346  12.907  18.218  13.189  0.0256 -0.1969  0.2892
 1493W        W20347  18.407   9.189   0.073  0.0960 -0.0183 -0.3563
 1494W        W20348   5.599  15.265  14.124 -0.1305  0.0628  0.0905
 1495W        W20349  10.500   3.245  13.782  0.0036 -0.2431 -0.0362
 1496W        W20350   2.601   6.488   0.449 -0.2630  0.0613 -0.2152
 1497W        W20351   1.957  17.654  13.335 -0.1148 -0.0422  0.1470
 1498W        W20352   2.166  10.961  14.024  0.0440  0.3231 -0.1147
 1499W        W20353   3.694  15.121   2.858  0.2632 -0.1732  0.0273
 1500W        W20354  18.434  16.458   0.741  0.1112  0.1595 -0.0414
 1501W        W20355   4.292   8.555   3.267 -0.1161 -0.3510  0.3726
 1502W        W20356   6.450   7.001  15.403 -0.0118  0.1602 -0.1700
 1503W        W20357  13.976   4.513  10.916  0.1437 -0.0938 -0.0391
 1504W        W20358  10.991   6.833  11.312  0.0433  0.3773 -0.2550
 1505W        W20359   1.893   9.736   3.591  0.1479  0.2334  0.0034
 1506W        W20360   2.298   3.385   1.866  0.2327 -0.1347 -0.1887
 1507W        W20361   5.688   8.916  14.841 -0.0225  0.0315 -0.2464
 1508W        W20362  10.884   7.318  11.359 -0.1192 -0.0927 -0.1053
 1509W        W20363   7.736   5.232  14.621  0.2033 -0.1799 -0.0154
 1510W        W20364  14.521   5.253   3.879  0.1796 -0.2409  0.0258
 1511W        W20365  15.154   1.406   0.935  0.0345 -0.3540  0.2124
 1512W        W20366  15.707   9.156   2.897 -0.0077  0.1774  0.0178
 1513W        W20367   7.230  16.000  11.403 -0.0569  0.2160 -0.0743
 1514W        W20368  13.702   2.533  14.749  0.2737  0.0576 -0.0211
 1515W        W20369   6.440   1.800  13.745  0.2001 -0.0264  0.0959
 1516W        W20370  11.863  18.133  14.707  0.1439  0.3193  0.1549
 1517W        W20371   7.988   9.901   2.973 -0.0856 -0.1657  0.1920
 1518W        W20372   4.967  14.829   1.806  0.0374  0.1480 -0.2486
 1519W        W20373   9.980  16.780   1.388 -0.2442 -0.2913  0.0829
 1520W        W20374   8.016  13.985  13.092  0.2104 -0.1398 -0.1400
 1521W        W20375  10.893   1.997  15.404  0.1570  0.2224  0.0051
 1522W        W20376  18.295  11.863  14.478 -0.2069 -0.0022  0.1346
 1523W        W20377   4.231   3.798   4.409  0.3827 -0.1145  0.2054
 1524W        W20378  13.355   5.767  13.444 -0.1666 -0.1921 -0.1059
 1525W        W20379   5.371   7.463   0.360 -0.0870  0.1613  0.0320
 1526W        W20380  16.759   1.881  11.716 -0.1954 -0.1619 -0.0948
 1527W        W20381   8.423   8.684   1.113  0.1978 -0.1064  0.2181
 1528W        W20382   6.170   4.675  14.212  0.2366 -0.0177 -0.0592
 1529W        W20383  15.023   4.825  13.768 -0.0305 -0.3930  0.0649
 1530W        W20384   3.579  13.970   4.279  0.1321 -0.1239  0.0595
 1531W        W20385   6.924  17.986   3.854  0.1177 -0.3910  0.0319
 1532W        W20386  12.852  15.268   1.457 -0.1916  0.2354  0.1640
 1533W        W20387  12.297  14.702   0.246 -0.0746  0.0086 -0.2789
 1534W        W20388  14.115  10.335   1.442  0.0542 -0.0254  0.1163
 1535W        W20389   7.393   2.197   2.738 -0.0026  0.2858  0.2345
 1536W        W20390  16.621   2.883   2.328 -0.2809  0.0393 -0.2414
 1537W        W20391  16.643  12.698   4.488 -0.1986 -0.0554  0.2535
 1538W        W20392   4.234   7.640  13.110 -0.0079 -0.0725 -0.1676
 1539W        W20393   0.646   8.614   2.427  0.1005  0.1137 -0.0161
 1540W        W20394   4.483  17.165  12.549  0.2945 -0.0107 -0.2690
 1541W        W20395   5.506  17.348   5.203 -0.2784  0.1105  0.0229
 1542W        W20396  14.049   1.988   2.819 -0.1041 -0.1827 -0.1672
 1543W        W20397   7.068   9.826  11.622  0.2762 -0.0535  0.1732
 1544W        W20398   5.985   4.980  13.091 -0.3803  0.0941 -0.0095
 1545W        W20399   6.571   9.692   2.581 -0.0295  0.0343  0.3128
 1546W        W20400  15.148  15.878  11.924  0.3527 -0.0897  0.0345
 1547W        W20401  15.187  15.736   2.118 -0.1288  0.1772 -0.0338
 1548W        W20402  17.126   9.486  14.722 -0.0077 -0.1267 -0.0226
 1549W        W20403  16.933   0.384  13.989  0.0017 -0.3460 -0.0004
 1550W        W20404   2.950   4.629   0.389  0.3518  0.0121 -0.1624
 1551W        W20405  10.993   0.510  14.351  0.2640  0.2085 -0.0979
 1552W        W20406  14.497   3.923   1.235 -0.0990 -0.2642  0.0812
 1553W        W20407   0.451   9.365   2.075  0.0057  0.2062 -0.2239
 1554W        W20408   2.662   9.891  14.888  0.1126 -0.0584  0.2965
 1555W        W20409  11.802   0.870   1.853 -0.0255 -0.1987 -0.1950
 1556W        W20410   7.446   7.846   1.838 -0.1252  0.0053 -0.2135
 1557W        W20411  11.625   5.673  12.501  0.0335  0.3377 -0.0782
 1558W        W20412  10.053   2.018   0.180 -0.0982 -0.1238  0.1090
 1559W        W20413  10.097   6.672  12.775 -0.0683 -0.1784  0.0556
 1560W        W20414   6.064   6.268   0.646 -0.2034  0.0717 -0.1356
 1561W        W20415  16.554   7.023   4.645  0.0532  0.0761  0.0020
 1562W        W20416   6.701  13.817   1.720 -0.2155  0.1370 -0.0347
 1563W        W20417   9.633   4.796   1.932  0.1820 -0.0084  0.0360
 1564W        W20418  11.882  10.483  15.259  0.3544 -0.2865 -0.1205
 1565W        W20419   4.745  15.413   2.791 -0.2094 -0.0344 -0.2033
 1566W        W20420   7.116   9.523   1.047 -0.2190 -0.1797  0.3858
 1567W        W20421   7.559   0.894  15.374  0.0986  0.3057  0.1358
 1568W        W20422   8.075  14.842  13.144  0.2818  0.1075  0.0469
 1569W        W20423   9.666  11.260   1.839 -0.0765 -0.1440 -0.0055
 1570W        W20424  12.392  13.947  14.680 -0.3764 -0.2608  0.4088
 1571W        W20425   7.312  17.378  14.583 -0.3223 -0.0582  0.1479
 1572W        W20426   2.576   0.238  15.089 -0.1590 -0.2799  0.2849
 1573W        W20427  11.393   5.010   0.302 -0.0019  0.1712 -0.0764
 1574W        W20428   8.773  11.669  13.879 -0.0630 -0.2316 -0.1363
 1575W        W20429   3.667  16.129   4.372 -0.0735  0.0235  0.0997
 1576W        W20430  11.636  15.301   1.416 -0.0624  0.0623 -0.0030
 1577W        W20431  11.642  17.348   3.835 -0.0851 -0.2520  0.2771
 1578W        W20432   5.307  16.615   0.674  0.0709 -0.1051  0.2473
 1579W        W20433  13.952   9.919  15.453  0.0341 -0.0668 -0.1405
 1580W        W20434   1.869   1.903   4.023 -0.1217 -0.1687  0.0055
 1581W        W20435  14.323  15.395  13.961 -0.1949  0.1258 -0.0051
 1582W        W20436   8.964   9.447  11.495 -0.1759  0.1845 -0.2837
 1583W        W20437   3.744   9.967  12.874  0.0065  0.0885 -0.0567
 1584W        W20438   2.226   5.258  14.398 -0.1991  0.0542  0.0742
 1585W        W20439   0.412   7.968  11.566  0.0747 -0.0553  0.1706
 1586W        W20440  16.841  14.326  13.523  0.0049  0.3864  0.2035
 1587W        W20441   6.581  15.575   0.480  0.0118 -0.2608 -0.2511
 1588W        W20442  15.899  10.079   5.155 -0.0393 -0.1295  0.1166
 1589W        W20443  15.712  13.446  14.633 -0.0883  0.4620 -0.0405
 1590W        W20444   5.511   9.980  13.049 -0.2268  0.1870  0.1259
 1591W        W20445  13.884  14.817  13.459  0.2464 -0.0617  0.1944
 1592W        W20446   0.023  16.339  12.445 -0.1917 -0.2868  0.1091
 1593W        W20447  14.415   1.635   1.241  0.0517  0.1574  0.2058
 1594W        W20448   3.702  18.434  13.538 -0.1119 -0.1033  0.1207
 1595W        W20449  11.804  15.276  12.058 -0.3165 -0.1682  0.1940
 1596W        W20450  13.472   6.164   2.900 -0.2621  0.2793  0.1825
 1597W        W20451   4.973   1.941  11.483 -0.3255 -0.1041 -0.0855
 1598W        W20452  14.566   4.469   3.311  0.3154 -0.1204 -0.1281
 1599W        W20453  18.478  15.412   1.757  0.1956 -0.2882 -0.2253
 1600W        W20454  15.871  11.379   3.339 -0.0547 -0.0162  0.3649
 1601W        W20455  13.938   7.177  15.391 -0.1645 -0.2560  0.2227
 1602W        W20456  13.889   4.623   1.487 -0.2461 -0.0794 -0.2143
 1603W        W20457   2.505   5.225   1.024  0.0237  0.1052 -0.2585
 1604W        W20458   6.873   3.843   4.363  0.1346 -0.0539 -0.0951
 1605W        W20459  15.185   8.550   1.798 -0.1703 -0.1540  0.2631
 1606W        W20460  15.367   2.698   0.378 -0.0902  0.3583  0.0449
 1607W        W20461   1.950   7.593  10.574  0.3120  0.0400 -0.0026
 1608W        W20462  11.023   9.336   2.558 -0.3148 -0.3318 -0.3218
 1609W        W20463   8.703   4.911  14.367 -0.0655  0.2780  0.0488
 1610W        W20464  13.542   6.924  12.787 -0.0741 -0.1946 -0.1066
 1611W        W20465   6.132   7.668  11.007  0.0048  0.0778  0.1146
 1612W        W20466  16.590  10.591  14.420  0.0754 -0.5979  0.0651
 1613W        W20467   1.530   0.697  12.118  0.2608 -0.0316  0.1709
 1614W        W20468  18.436  11.623   2.507 -0.5793 -0.1229 -0.3218
 1615W        W20469  18.496   2.237   1.820  0.3116  0.0625 -0.0726
 1616W        W20470   4.616  18.535   1.314  0.0228  0.0116  0.1469
 1617W        W20471  12.167   8.178   1.921 -0.2651 -0.2317 -0.0756
 1618W        W20472   3.155  13.139  13.195  0.0269 -0.1260  0.1120
 1619W        W20473   7.256  13.574   3.511 -0.0091  0.1851 -0.1940
 1620W        W20474   7.121  12.492  13.849 -0.1069 -0.2604  0.0767
 1621W        W20475   0.039   8.489   3.540 -0.0285  0.2959  0.1032
 1622W        W20476  13.113   4.928   4.630 -0.3006  0.0732 -0.0285
 1623W        W20477  11.007   3.297   0.776 -0.2441 -0.5785 -0.0072
 1624W        W20478  12.596   4.698  14.466  0.0876 -0.1453 -0.1410
 1625W        W20479  17.301  11.144   0.297 -0.1343 -0.0780  0.0649
 1626W        W20480  15.077  17.406   3.344  0.2934  0.1036  0.3016
 1627W        W20481   7.925  14.265   2.084  0.0395  0.0343 -0.2974
 1628W        W20482   7.829  14.903   0.631 -0.0127 -0.0813  0.2104
 1629W        W20483   0.002   8.075  14.560  0.3456  0.0239  0.2585
 1630W        W20484   4.720   7.814  11.068  0.0172 -0.0336 -0.0825
 1631W        W20485   3.469   1.219  10.268  0.0044  0.1685 -0.1293
 1632W        W20486  15.490   1.002   5.255 -0.2308 -0.0666  0.2386
 1633W        W20487  12.497  18.114  15.436  0.0098  0.1219  0.2895
 1634W        W20488   5.616   1.789  14.175  0.0886  0.4793  0.1736
 1635W        W20489   8.031   2.466  14.240 -0.1689 -0.0457  0.2417
 1636W        W20490   8.908  14.800   0.047 -0.0379  0.0829 -0.0416
 1637W        W20491   9.591   0.126  14.763 -0.0314 -0.0771  0.0940
 1638W        W20492   8.484  14.406   4.310  0.0463  0.2912  0.0919
 1639W        W20493  15.285  10.169   0.720  0.1600  0.0382  0.0465
 1640W        W20494  14.621   9.664  13.820  0.0422  0.1458  0.0189
 1641W        W20495  17.807   5.615   2.737  0.3814  0.1435  0.0687
 1642W        W20496  16.551   0.328  10.666  0.1210 -0.0477  0.0197
 1643W        W20497   6.470  11.513  12.616 -0.2720  0.1339 -0.0664
 1644W        W20498  10.060   3.396  15.103 -0.1791  0.4614  0.1035
 1645W        W20499   4.847   3.909  12.301  0.0234  0.1006 -0.0324
 1646W        W20500  13.704   8.706  14.955 -0.1379 -0.2806  0.0181
 1647W        W20501  10.550   8.175   1.831 -0.1908 -0.2187 -0.0965
 1648W        W20502   1.486  15.997   1.206  0.0348 -0.0874  0.0418
 1649W        W20503   3.901   7.225   4.390  0.0256  0.1489  0.3527
 1650W        W20504   0.419  13.754   4.011 -0.1376 -0.0652  0.0431
 1651W        W20505   0.023  17.161   1.369 -0.0695  0.1701 -0.1709
 1652W        W20506   6.798  18.149  12.496 -0.0705  0.1394 -0.0436
 1653W        W20507   5.592   5.241  14.620  0.2291 -0.0010 -0.0341
 1654W        W20508   2.339  16.574   4.279 -0.0759  0.1754  0.2390
 1655W        W20509   5.601   9.155   2.725  0.1826  0.2559 -0.2402
 1656W        W20510  11.670   2.276   1.670 -0.1874  0.3991 -0.0974
 1657W        W20511  10.014   1.667  12.577 -0.0299 -0.0874 -0.0632
 1658W        W20512   4.402  12.650   2.995  0.0390  0.0926 -0.1065
 1659W        W20513   5.484   6.041   0.726  0.1195  0.0422  0.1400
 1660W        W20514   2.871   4.051  11.094  0.1864 -0.3381  0.2229
 1661W        W20515  18.175   8.609   3.303  0.1356  0.3859 -0.2766
 1662W        W20516   2.599   0.702   3.877  0.2446 -0.0124 -0.2398
 1663W        W20517   7.346   3.180   0.454  0.2003 -0.1246  0.0185
 1664W        W20518  18.109   6.856   3.715  0.0312  0.1888 -0.3053
 1665W        W20519   5.515   1.727   0.565 -0.0061  0.1223 -0.2441
 1666W        W20520   8.964  17.483   3.829 -0.1514 -0.2704  0.0324
 1667W        W20521  16.916   8.602   3.063  0.2121  0.2519  0.2697
 1668W        W20522   9.339  12.630  12.346 -0.1939 -0.1463  0.3040
 1669W        W20523   0.250   4.507  12.936  0.1429 -0.1980  0.0180
 1670W        W20524  13.820   6.012   1.829  0.2110  0.0385 -0.1221
 1671W        W20525  15.399   2.249  14.214 -0.1970 -0.0855  0.1521
 1672W        W20526   3.838   6.719  13.287 -0.0056 -0.3405  0.3624
 1673W        W20527  10.220  14.789  13.634  0.0377 -0.0634  0.1989
 1674W        W20528   5.032   8.021  12.323  0.1476  0.0512 -0.0390
 1675W        W20529   8.759  12.226   2.742 -0.0888 -0.1035  0.1840
 1676W        W20530  15.961   1.352   4.902 -0.0780  0.0645 -0.1377
 1677W        W20531   3.905  14.600  12.538  0.0117  0.0190 -0.0440
 1678W        W20532   4.106   5.393   0.335  0.3089 -0.0142 -0.2516
 1679W        W20533  17.524   4.701   0.700 -0.3536 -0.0560 -0.0628
 1680W        W20534   2.690  17.978   3.974  0.0846 -0.3380 -0.4600
 1681W        W20535  14.727   7.631   0.734  0.0150 -0.2629 -0.0281
 1682W        W20536   3.351  13.798  11.349  0.1062  0.0912  0.0090
 1683W        W20537   7.178  11.368   3.749  0.0727  0.0451 -0.4062
 1684W        W20538  17.000  14.855   0.895 -0.1208  0.1333 -0.1802
 1685W        W20539   3.472  15.164   1.529  0.2300 -0.1645 -0.0254
 1686W        W20540  14.602   7.604   3.747 -0.2322  0.0381  0.3878
 1687W        W20541   8.053  15.970   4.410  0.0760 -0.2265  0.0386
 1688W        W20542  10.572   3.300  11.950  0.3199 -0.1011 -0.2972
 1689W        W20543   8.608  16.431  15.196 -0.1017 -0.1276 -0.0771
 1690W        W20544   1.852   6.146  11.232 -0.0223 -0.0496 -0.2739
 1691W        W20545   9.687  13.727   4.828 -0.1701 -0.1205  0.0799
 1692W        W20546  15.635   8.597   2.094  0.0894  0.0583  0.3796
 1693W        W20547   9.226   7.004   0.506  0.0726 -0.2397 -0.0289
 1694W        W20548  15.129   9.531   2.187 -0.1253 -0.3710 -0.0035
 1695W        W20549  10.683  10.447  12.985  0.1873 -0.2192 -0.2460
 1696W        W20550  11.469  14.319   4.927 -0.0281  0.0108  0.1182
 1697W        W20551   4.863   3.844  14.654  0.6427 -0.2828  0.3472
 1698W        W20552   7.264   2.787   3.627 -0.0955 -0.0539 -0.2308
 1699W        W20553  15.472   8.943   2.469 -0.1015  0.0715  0.0092
 1700W        W20554  16.934  10.209  13.509  0.0526 -0.0507 -0.2116
 1701W        W20555   9.111  10.489   3.881 -0.1489  0.1386  0.1851
 1702W        W20556   8.441   4.308   0.569 -0.1869  0.1188  0.0948
 1703W        W20557  18.325   4.501   1.133 -0.1063  0.5941  0.0181
 1704W        W20558  14.211   5.869   1.188 -0.0178  0.3479 -0.1287
 1705W        W20559   2.963  14.441   2.939  0.0037  0.1005  0.1106
 1706W        W20560  12.387   2.584  15.323  0.3259 -0.1276 -0.2515
 1707W        W20561   2.558   3.992  14.089 -0.0526 -0.0657  0.2163
 1708W        W20562   9.433   0.298   4.671 -0.0775  0.0500  0.0410
 1709W        W20563  11.099   1.649   1.391  0.0556  0.0804  0.1181
 1710W        W20564   5.702  13.661   3.962  0.1316 -0.0420 -0.1099
 1711W        W20565  17.569   2.872   2.055  0.1835  0.0535 -0.4158
 1712W        W20566   4.951   1.306  11.067  0.0641  0.0116 -0.3381
 1713W        W20567   8.528  16.379   1.647 -0.0896 -0.0819  0.1051
 1714W        W20568  11.516   1.717   3.006 -0.0785 -0.0879  0.0903
 1715W        W20569   7.365   6.295   0.788 -0.1440  0.2132 -0.1836
 1716W        W20570  15.585   0.722  11.203 -0.1269  0.5650  0.0675
 1717W        W20571   6.916  15.307   2.635  0.1612  0.0351 -0.1979
 1718W        W20572  14.900  15.469   3.539  0.0536  0.1238  0.3739
 1719W        W20573  14.482  11.681  11.338 -0.1277  0.1014 -0.0077
 1720W        W20574   2.994  13.505  14.630  0.3019  0.5650 -0.1161
 1721W        W20575  17.856  18.297  15.059 -0.2877 -0.0010  0.2077
 1722W        W20576   2.607  18.407   0.982 -0.0729  0.0128 -0.0097
 1723W        W20577   3.869   8.681   1.969  0.0751  0.1136 -0.1823
 1724W        W20578   8.356   2.355  11.290 -0.0700 -0.1242 -0.2252
 1725W        W20579   5.124   7.962   3.974  0.1592 -0.2501  0.0743
 1726W        W20580   2.213   9.410  14.038 -0.1601  0.0184 -0.0217
 1727W        W20581   8.730   4.707   1.774  0.1081 -0.0994  0.0831
 1728W        W20582  13.242   8.879  15.141 -0.3515  0.1212 -0.0495
 1729W        W20583  13.698  10.653  13.411  0.0339  0.0219  0.2697
 1730W        W20584  17.077   8.779   1.272  0.2325 -0.0130 -0.0897
 1731W        W20585   5.631  11.146   4.325 -0.2726  0.1552 -0.0195
 1732W        W20586  10.825   7.144  12.351 -0.1363  0.0960 -0.2224
 1733W        W20587  18.553   9.805   0.905  0.0965 -0.0933  0.2341
 1734W        W20588   1.732   5.974  14.298  0.2220  0.3720  0.1605
 1735W        W20589   4.386   8.855   4.602  0.1344  0.0691 -0.1926
 1736W        W20590   1.835   7.028  12.558  0.2593  0.0278 -0.1172
 1737W        W20591  13.960  11.334   3.168 -0.2274  0.4741  0.1885
 1738W        W20592  10.586   1.801  14.229  0.0376  0.1364  0.0056
 1739W        W20593   4.711  15.100  12.995  0.2048  0.2161 -0.2028
 1740W        W20594   5.024   5.942  13.649 -0.0379  0.0872  0.0939
 1741W        W20595   3.852   8.859  14.478 -0.0969  0.0632 -0.0116
 1742W        W20596  14.491   6.598  13.528  0.0061 -0.1415  0.1621
 1743W        W20597   3.072  13.119   1.838 -0.2564  0.0859 -0.1124
 1744W        W20598   0.267   5.232   0.589 -0.0051 -0.0718  0.1016
 1745W        W20599   4.038  14.347   1.525  0.0918 -0.3000  0.1789
 1746W        W20600   8.238  12.375   2.708 -0.2455  0.1097 -0.3457
 1747W        W20601   1.600   9.319  12.219 -0.1542  0.0823  0.1586
 1748W        W20602  17.390  16.141  11.722 -0.0062 -0.0634 -0.1548
 1749W        W20603   9.201  10.781   5.249 -0.3180 -0.1413 -0.1371
 1750W        W20604  15.638   6.776  14.464  0.2735 -0.1072  0.2839
 1751W        W20605  16.919   5.551   0.682 -0.1676 -0.3552  0.1105
 1752W        W20606   2.573  10.414   4.630 -0.2669  0.0741 -0.4892
 1753W        W20607   9.825  10.147   2.716 -0.0633  0.0466  0.0143
 1754W        W20608   2.836   7.360  15.328 -0.0740  0.1382 -0.0020
 1755W        W20609  17.889  18.321   2.523  0.1157  0.0058 -0.2088
 1756W        W20610   4.346  12.961  12.096  0.2647 -0.1059 -0.3503
 1757W        W20611  14.148  12.836  15.406  0.0478 -0.0537 -0.2800
 1758W        W20612  17.753  10.613   1.865 -0.0360  0.0874  0.2524
 1759W        W20613  13.748  18.404   1.949  0.0671 -0.0197 -0.2202
 1760W        W20614   9.276   7.258   2.861 -0.1247 -0.1447  0.1162
 1761W        W20615   4.154   1.060  14.769 -0.1528  0.0077 -0.1392
 1762W        W20616  18.306  15.071   1.044 -0.0386  0.2423  0.4001
 1763W        W20617  17.746   1.318  10.852  0.2506  0.1147 -0.2686
 1764W        W20618  14.549  12.211   0.615  0.1421  0.0436  0.1565
 1765W        W20619  17.413   7.828  14.690  0.1830 -0.0857 -0.1100
 1766W        W20620   4.858  18.083   3.881  0.1544  0.2347  0.1979
 1767W        W20621  15.525  17.699   2.013 -0.1359  0.3548  0.0126
 1768W        W20622  11.692   0.038  13.539  0.2420 -0.3541  0.0392
 1769W        W20623   3.307   7.542  12.907  0.2136  0.0472 -0.0215
 1770W        W20624  18.431  14.181  12.880  0.0622  0.1681  0.3543
 1771W        W20625  15.322  10.287  12.814 -0.1752  0.0880 -0.2646
 1772W        W20626   6.198  12.675  14.028  0.0224 -0.0741 -0.4875
 1773W        W20627  13.699  17.459   4.347 -0.0668  0.0018 -0.3412
 1774W        W20628  16.966   4.967   2.145 -0.0933 -0.0227  0.1812
 1775W        W20629   8.441  17.828   4.001 -0.1598  0.0412 -0.0402
 1776W        W20630  11.732   4.262   4.509  0.1700  0.0698 -0.0254
 1777W        W20631  12.486  15.147  12.820  0.2191  0.0789 -0.2289
 1778W        W20632   0.126  11.522  10.244  0.2379 -0.2138 -0.1875
 1779W        W20633   6.872   0.826  10.376 -0.0565 -0.2988 -0.1721
 1780W        W20634  10.268  13.170   3.971 -0.3225  0.0307 -0.1350
 1781W        W20635   1.157   7.498  12.644 -0.1931 -0.0757  0.1492
 1782W        W20636  12.397  13.846   0.571 -0.2192 -0.3831  0.0516
 1783W        W20637   1.248   3.087  13.074  0.0454 -0.1222  0.3122
 1784W        W20638   9.513   5.282  10.088  0.0529  0.3349  0.1314
 1785W        W20639  11.800   1.514  10.453  0.1826 -0.0726  0.2513
 1786W        W20640  12.887   6.443   5.975 -0.3828 -0.1787 -0.1426
 1787W        W20641   6.730   1.668   1.001 -0.1079  0.1954  0.0739
 1788W        W20642  18.546  12.991  12.218 -0.0710 -0.1052 -0.0017
 1789W        W20643   4.130   9.229   3.547  0.0078  0.0464 -0.1529
 1790W        W20644   2.586  12.651   1.857 -0.0435  0.1151 -0.0918
 1791W        W20645  10.865  14.593  14.659 -0.2328 -0.3262 -0.3338
 1792W        W20646  17.589   7.809  11.633 -0.2046 -0.1173  0.3439
 1793W        W20647   1.450   2.541  13.438  0.2334  0.1239  0.0283
 1794W        W20648   1.469  17.466  13.657 -0.1093  0.1287 -0.0159
 1795W        W20649  16.724   9.109  10.493 -0.2766  0.1176  0.1412
 1796W        W20650  12.825  16.743   2.749  0.3227 -0.1123  0.2121
 1797W        W20651  16.961  17.061   3.447 -0.0993 -0.0692 -0.1600
 1798W        W20652  14.452   6.604   3.884 -0.0698  0.2508  0.0236
 1799W        W20653   1.712   7.063  12.040 -0.2968  0.1018 -0.2441
 1800W        W20654  16.041  12.509   1.398 -0.2176 -0.3354  0.2697
 1801W        W20655  18.036  13.072  14.660  0.0496  0.0831 -0.0100
 1802W        W20656  15.833   4.303  13.888  0.1414 -0.1491  0.2088
 1803W        W20657   6.691  14.233  13.388 -0.2144 -0.0629 -0.5136
 1804W        W20658  15.539  16.310   0.626  0.1996  0.0126 -0.0960
 1805W        W20659   7.068  15.041   3.043 -0.2122 -0.1234 -0.3423
 1806W        W20660   0.427   4.333  15.386 -0.2719 -0.0585  0.0588
 1807W        W20661  11.198  16.231   1.650 -0.3953  0.1404 -0.2657
 1808W        W20662   2.549   4.525  13.234  0.0758  0.1566  0.0687
 1809W        W20663  10.907  12.205   1.797  0.2343 -0.2186 -0.1010
 1810W        W20664   2.110   9.046  15.029  0.1066 -0.1216  0.0161
 1811W        W20665  17.386   9.036   3.647 -0.2723  0.1112  0.4155
 1812W        W20666   4.984   7.556   5.008  0.0646 -0.0566 -0.2272
 1813W        W20667   1.004   8.916  14.594 -0.0346  0.0394 -0.1334
 1814W        W20668  11.141  16.496   4.972 -0.2813 -0.0214 -0.1846
 1815W        W20669   3.123   3.002   0.571 -0.1362 -0.2616 -0.1885
 1816W        W20670  12.761   2.953   0.026  0.1557  0.0126  0.0818
 1817W        W20671  14.390   5.099  13.879  0.0786  0.1207  0.1557
 1818W        W20672   1.483  16.142   4.318 -0.0683  0.2581  0.0245
 1819W        W20673   6.529   8.743   2.446 -0.1148  0.1288  0.0581
 1820W        W20674   8.348  14.142   3.709 -0.0394 -0.3591  0.2678
 1821W        W20675  13.675  14.647  12.149 -0.2947 -0.0354  0.1424
 1822W        W20676  16.092   6.960  10.516 -0.1048 -0.0659 -0.1214
 1823W        W20677   1.828   5.757  15.217  0.3884  0.0842 -0.3856
 1824W        W20678   2.147   6.340   0.482  0.1675 -0.1552 -0.2147
 1825W        W20679   8.381   7.898   4.325  0.2288 -0.2247 -0.1108
 1826W        W20680   9.516  11.577   2.379 -0.0501 -0.1210  0.0375
 1827W        W20681   2.829   4.926  13.745  0.0226  0.1527  0.1741
 1828W        W20682   3.327  11.488  11.835  0.4303 -0.4059 -0.1270
 1829W        W20683  14.414  17.026   0.255  0.3579  0.0268  0.0014
 1830W        W20684  10.746  17.403   0.824  0.0110  0.2081  0.0561
 1831W        W20685   9.632  10.246  12.073 -0.0908 -0.2793  0.1673
 1832W        W20686  14.757  10.228   3.675 -0.1663  0.2184 -0.1315
 1833W        W20687   5.451  16.708   2.036  0.0719 -0.0387 -0.1943
 1834W        W20688  15.526  13.769   2.440 -0.1909  0.1793 -0.3042
 1835W        W20689   4.012   4.272   1.112 -0.2542 -0.2119  0.2158
 1836W        W20690  17.551   8.738  13.244 -0.3721 -0.3107  0.4653
 1837W        W20691  11.675  10.066  15.004 -0.2335 -0.2889 -0.0892
 1838W        W20692  15.789  15.336  11.570  0.0538  0.0511 -0.0234
 1839W        W20693  15.204   2.458  11.467 -0.1954 -0.1864 -0.1106
 1840W        W20694   1.964   5.004  11.509  0.1215  0.0665  0.0052
 1841W        W20695  16.949  13.632   1.940  0.0188  0.0007 -0.1590
 1842W        W20696   5.244   0.757   0.986 -0.0592  0.3139 -0.1479
 1843W        W20697  15.010   7.244   2.831  0.3762 -0.2061  0.0405
 1844W        W20698   0.234   3.622  11.968 -0.3226  0.4788 -0.0013
 1845W        W20699   3.810   7.873   4.480  0.0407 -0.2323  0.0568
 1846W        W20700   5.907   1.079  11.476 -0.3777  0.4302 -0.1299
 1847W        W20701   0.238  14.965  11.421  0.1542  0.1491  0.0849
 1848W        W20702  11.944   1.446  12.523 -0.0237  0.1406  0.1376
 1849W        W20703  17.238   7.510  11.499  0.2381 -0.0212  0.1913
 1850W        W20704  16.118   0.385   3.173  0.0697 -0.0232  0.0909
 1851W        W20705  10.711   2.101  13.825 -0.0532  0.0478  0.0694
 1852W        W20706  12.832  10.587  14.450 -0.0993 -0.0445 -0.0198
 1853W        W20707   7.536  14.267   0.493 -0.0075  0.0964  0.1279
 1854W        W20708  14.372   5.412  12.580  0.2021  0.0645 -0.0577
 1855W        W20709   3.319   0.919  14.487 -0.3115  0.0963  0.4395
 1856W        W20710   8.681  11.709   0.729  0.0915 -0.0757 -0.0862
 1857W        W20711   8.975  15.971  12.575  0.1515  0.0531 -0.1866
 1858W        W20712   9.329   1.259  12.118  0.0970 -0.2423 -0.0074
 1859W        W20713  12.055   2.829  12.820 -0.2153 -0.2631  0.2338
 1860W        W20714   6.624  14.003   0.060  0.0975  0.1100 -0.1481
 1861W        W20715  14.560  17.579   0.011 -0.0675 -0.1155 -0.0272
 1862W        W20716   5.352   7.797   3.011 -0.0225 -0.0741  0.1089
 1863W        W20717   4.585   8.487   2.917 -0.2157  0.5400 -0.0664
 1864W        W20718   0.560   0.005   4.542 -0.1266  0.1534 -0.0926
 1865W        W20719  14.063   7.952   0.183 -0.0634  0.0112 -0.0825
 1866W        W20720  14.500   0.010  12.636  0.0710 -0.2662 -0.2018
 1867W        W20721   7.060   6.104  12.050 -0.1908 -0.0053 -0.2476
 1868W        W20722  14.565   7.410   4.305  0.1318  0.0112 -0.3535
 1869W        W20723   3.061   4.364  15.296  0.5095 -0.3058 -0.1653
 1870W        W20724  12.496   6.717   4.920 -0.4063 -0.4044  0.1994
 1871W        W20725   2.893  10.524  12.743  0.0973  0.2679 -0.1143
 1872W        W20726   9.786   5.990   0.616  0.0926 -0.0671  0.0886
 1873W        W20727   1.126   6.474  12.224  0.1778  0.0087  0.1426
 1874W        W20728  14.698  14.014   1.002 -0.0168  0.0099 -0.1109
 1875W        W20729  12.767   4.355   3.590  0.3606 -0.1354  0.2051
 1876W        W20730  18.334   3.356   2.617 -0.2579  0.1265  0.1848
 1877W        W20731   9.095  17.235  12.956  0.1707 -0.1094 -0.1362
 1878W        W20732   7.275   6.899  14.252  0.1603 -0.1133  0.2911
 1879W        W20733   7.962   5.900   0.420  0.1120 -0.1527 -0.2183
 1880W        W20734   2.451   1.553   3.460 -0.0243 -0.1414 -0.3129
 1881W        W20735   6.356   7.208   0.367 -0.1873  0.1712 -0.1129
 1882W        W20736   9.035   9.959   0.692  0.0532  0.1434  0.3135
 1883W        W20737   1.725  18.326   3.032 -0.0936  0.0297 -0.1124
 1884W        W20738   2.171  18.172  11.161 -0.3969 -0.0686 -0.0236
 1885W        W20739  15.796  15.111  14.226 -0.1190  0.0579  0.2058
 1886W        W20740   1.359   3.123   4.070 -0.2249  0.2847  0.1245
 1887W        W20741   7.503   7.668  14.175 -0.1159  0.2673  0.0105
 1888W        W20742   6.227  13.105   2.791  0.1810  0.1209  0.3061
 1889W        W20743  15.811  12.693  11.279 -0.0596  0.1700  0.1759
 1890W        W20744   1.291   1.683   2.113  0.0720 -0.0439 -0.1903
 1891W        W20745  12.634  16.488   3.110 -0.2275  0.2480  0.1252
 1892W        W20746   4.918  18.090   2.330  0.1830  0.3146 -0.1440
 1893W        W20747   8.636   9.464  14.965 -0.1159 -0.0688 -0.2959
 1894W        W20748   5.813  14.177  14.764  0.3731  0.0197 -0.0914
 1895W        W20749  17.746   8.052   1.275 -0.1830 -0.0611 -0.0262
 1896W        W20750  12.241   9.241   1.151 -0.2630  0.0330 -0.0011
 1897W        W20751   7.077  12.342   0.736  0.2579 -0.0964 -0.2923
 1898W        W20752  17.691  10.191  11.469 -0.1506  0.0878  0.1008
 1899W        W20753  16.017   9.888  12.493 -0.0428 -0.3616  0.0767
 1900W        W20754   9.153  14.946  12.890 -0.0330 -0.1960  0.1450
 1901W        W20755   1.687   8.563  14.345 -0.1327 -0.3266  0.1510
 1902W        W20756   2.726  17.711   2.639 -0.0056 -0.0854  0.0945
 1903W        W20757   7.429  18.443  13.853  0.3203 -0.0035  0.3171
 1904W        W20758   3.488   1.547   1.340  0.1327 -0.0992 -0.0159
 1905W        W20759   8.287  11.855   0.488 -0.0032 -0.0786 -0.0096
 1906W        W20760  10.857  12.036  10.592 -0.0332  0.0525  0.5478
 1907W        W20761  18.011   0.495   2.802  0.0171  0.1536  0.0760
 1908W        W20762  15.787  11.160  13.290  0.0681 -0.1800 -0.1431
 1909W        W20763  13.791   0.782   1.865  0.1493 -0.0002 -0.3157
 1910W        W20764   2.344   6.113  14.237 -0.1245  0.0946  0.1317
 1911W        W20765  15.106  18.038  10.650 -0.0950 -0.3923  0.0134
 1912W        W20766   1.477  15.361   4.250  0.2036  0.0179  0.2010
 1913W        W20767   6.233   6.708   0.481 -0.3108  0.1827  0.2003
 1914W        W20768  14.380   6.348  12.427 -0.1957 -0.1593  0.1381
 1915W        W20769  12.323   5.574  12.782  0.3138 -0.0078 -0.1212
 1916W        W20770  17.426  18.108  12.863  0.0595 -0.0032  0.0226
 1917W        W20771  15.370  14.014  11.779 -0.0069  0.1203 -0.2051
 1918W        W20772   0.686  12.666   2.590 -0.1718 -0.0500 -0.0227
 1919W        W20773   2.217  17.787   3.823 -0.1530  0.0891  0.0197
 1920W        W20774   9.853   6.518   2.180 -0.0227 -0.2573  0.0117
 1921W        W20775   8.039   5.021  13.298 -0.0233  0.1183  0.0431
 1922W        W20776  11.430   4.001  11.825 -0.0552  0.0778  0.2451
 1923W        W20777  14.734   0.489   3.645 -0.2225  0.0890 -0.1089
 1924W        W20778   3.243  12.842  11.282  0.0431  0.1612 -0.0806
 1925W        W20779  13.003  13.897   2.655  0.1426  0.5398  0.0581
 1926W        W20780   3.288   5.319  11.075 -0.0197  0.1279  0.0109
 1927W        W20781  15.604   9.866  12.875 -0.0166  0.0447  0.4093
 1928W        W20782  17.482  15.389  12.066 -0.0298  0.0685  0.3608
 1929W        W20783   9.349   3.576   4.107  0.0532 -0.1451 -0.0058
 1930W        W20784  12.239   9.503   2.339 -0.0244 -0.4942 -0.2461
 1931W        W20785   1.196  15.428   3.577  0.1964 -0.0414 -0.2311
 1932W        W20786  14.496  18.061  15.250 -0.3455 -0.0507 -0.1196
 1933W        W20787   1.852  14.304  14.986 -0.1978  0.0063 -0.0102
 1934W        W20788  12.530  16.503  14.460 -0.0406  0.0653  0.3067
 1935W        W20789   6.943  10.634  12.796  0.1392 -0.2308  0.1790
 1936W        W20790  18.527   1.138  12.669  0.1128  0.1777  0.3246
 1937W        W20791  17.905  15.908   3.598 -0.0665 -0.2469  0.0292
 1938W        W20792  10.001  13.736   2.233  0.0251  0.2129 -0.0140
 1939W        W20793  12.791   2.061  14.218 -0.0878 -0.1325 -0.0647
 1940W        W20794  16.529   7.888   3.483 -0.2152 -0.0494  0.2424
 1941W        W20795  11.836   8.757   4.401  0.0554 -0.2563  0.0369
 1942W        W20796  17.727   4.775  12.399  0.0555  0.0302  0.1370
 1943W        W20797   9.939  15.203  13.585 -0.3167  0.0752  0.2602
 1944W        W20798   2.864   0.751  11.470 -0.0961 -0.2078 -0.0136
 1945W        W20799   8.508   3.657   1.612 -0.2639  0.0843 -0.0206
 1946W        W20800   1.263   2.021  12.026  0.1072  0.5398 -0.0416
 1947W        W20801  12.501   3.455   5.145 -0.2225 -0.1075 -0.0195
 1948W        W20802   1.112   9.251   3.772  0.3542  0.2007  0.0538
 1949W        W20803   4.635  17.105   3.564  0.2795 -0.1050 -0.0421
 1950W        W20804   2.345  17.973   4.324 -0.1315  0.0113  0.0490
 1951W        W20805  16.707  14.714  14.855 -0.1221 -0.1813  0.3720
 1952W        W20806   1.274   2.269  12.899  0.0283 -0.0955  0.2607
 1953W        W20807   7.716   1.130   0.777  0.3565 -0.1262 -0.0785
 1954W        W20808   7.603   4.982   3.776 -0.0365 -0.1655 -0.1283
 1955W        W20809   0.282   4.180   3.848 -0.1799 -0.1149 -0.1142
 1956W        W20810   2.022   0.354  11.684 -0.2075  0.1139  0.0304
 1957W        W20811  14.324   5.214   3.400 -0.2437 -0.2198  0.0710
 1958W        W20812  11.663   9.391   1.141  0.3346  0.0291  0.1255
 1959W        W20813   3.502   3.094   2.722 -0.2052  0.2282 -0.1135
 1960W        W20814  10.391  18.110   0.525  0.1906  0.2521 -0.1576
 1961W        W20815  12.042   1.207   2.156 -0.0183 -0.0960  0.0756
 1962W        W20816   8.210  11.482   1.993 -0.0321  0.0833  0.1339
 1963W        W20817  13.899   3.907   0.414 -0.4064 -0.1593  0.3323
 1964W        W20818   9.219   3.923  14.103 -0.1247 -0.2834  0.1408
 1965W        W20819   7.844  10.546   0.044  0.1970 -0.2009 -0.0108
 1966W        W20820  13.206   3.810  15.449  0.0558 -0.2454 -0.2820
 1967W        W20821   7.135   1.265   3.610 -0.0623  0.0387 -0.2745
 1968W        W20822  16.278  15.221  14.347 -0.3977  0.0002  0.3177
 1969W        W20823   7.325  17.250   4.725  0.1480 -0.1193  0.0677
 1970W        W20824   1.863   6.618  11.046  0.0247 -0.0939 -0.1063
 1971W        W20825   6.554   8.604  14.599  0.2888 -0.1260  0.1147
 1972W        W20826  16.252  11.383  10.937  0.0115  0.1647 -0.1202
 1973W        W20827   3.778   3.023  15.058  0.0459  0.1909  0.1573
 1974W        W20828  13.651  12.693   5.360  0.3966  0.1220  0.2640
 1975W        W20829   1.728  15.223  12.331 -0.1234 -0.0767 -0.1171
 1976W        W20830   4.566   9.129  14.881 -0.0353  0.0422  0.2877
 1977W        W20831  17.103   0.017   2.059 -0.2567  0.0208 -0.0945
 1978W        W20832   6.218  18.278  11.971  0.1441 -0.0355  0.0842
 1979W        W20833   4.521   1.546  11.120  0.3157 -0.1183 -0.1030
 1980W        W20834  16.978   3.047  12.657  0.4284 -0.1000  0.0511
 1981W        W20835   9.507   3.320  12.919  0.0609 -0.1210 -0.0513
 1982W        W20836   2.460  11.344  14.048 -0.0042 -0.2055 -0.1537
 1983W        W20837   3.737   3.512   2.543  0.1097  0.1842 -0.1042
 1984W        W20838   7.319  15.116   0.980 -0.3335 -0.0352  0.2163
 1985W        W20839   3.804  12.930   1.419  0.1016  0.1170  0.0742
 1986W        W20840  14.441  15.349   1.723  0.3402  0.2124 -0.0627
 1987W        W20841   2.838   4.956   1.317 -0.0835  0.0955  0.0081
 1988W        W20842   3.666  14.242  13.332  0.1313 -0.0723  0.0321
 1989W        W20843  10.456  16.452   3.403 -0.1903  0.0536 -0.2938
 1990W        W20844  17.800   9.353   0.984  0.2087 -0.0508 -0.0473
 1991W        W20845   2.764  18.342   0.069  0.0525 -0.2228  0.1740
 1992W        W20846   1.246  16.003  12.805 -0.1884 -0.2347 -0.3467
 1993W        W20847  11.037  16.234  12.687 -0.1267 -0.3103  0.0903
 1994W        W20848   0.682   2.754  14.009  0.0850  0.0051  0.0183
 1995W        W20849  14.804  15.178   2.615  0.0314  0.1477 -0.0360
 1996W        W20850  15.931   4.381  13.033 -0.0966  0.1188  0.2139
 1997W        W20851   7.367  13.106   1.370 -0.0305 -0.2198  0.0344
 1998W        W20852   6.292  16.108   4.415  0.0524  0.2251  0.3901
 1999W        W20853   7.544  11.066  13.450  0.3069  0.2898  0.2962
 2000W        W20854   4.261  15.007  12.627  0.0555  0.1587 -0.3240
 2001W        W20855   1.132  17.043  15.225  0.1039 -0.1120  0.0505
 2002W        W20856  12.137  15.687  12.623  0.0771  0.0064  0.0942
 2003W        W20857   5.993   4.316   0.018 -0.0587 -0.0463  0.0436
 2004W        W20858  10.063  17.487  14.228 -0.2225 -0.2428  0.2358
 2005W        W20859  11.989  13.875   2.738  0.1364 -0.1159 -0.0747
 2006W        W20860   8.781  10.513  14.711 -0.2058 -0.1129  0.0364
 2007W        W20861   5.501   0.844  13.845  0.1228 -0.0786 -0.4319
 2008W        W20862   4.177  11.296   2.563 -0.0463  0.0445  0.1758
 2009W        W20863   2.389   9.049  11.173  0.1929  0.0044 -0.0198
 2010W        W20864   9.890  11.926   0.810 -0.0173 -0.0927  0.1958
 2011W        W20865  17.075   5.527   2.322 -0.2126 -0.0074  0.2512
 2012W        W20866  16.383   8.495   0.638 -0.1887  0.1061 -0.0207
 2013W        W20867   3.637   8.497   0.962 -0.0865  0.1333 -0.1958
 2014W        W20868   2.493   6.936   3.136 -0.1593 -0.2927 -0.1981
 2015W        W20869   0.392   6.518  15.350 -0.0056 -0.2085  0.1192
 2016W        W20870   8.620   4.065  14.182 -0.4525 -0.0404  0.2901
 2017W        W20871  11.103  13.196   2.234 -0.0818  0.2306 -0.1830
 2018W        W20872   3.976  14.110  15.259  0.0751 -0.0988  0.1355
 2019W        W20873   1.770  17.579   0.492 -0.0052  0.1382  0.0643
 2020W        W20874   4.197   1.911   1.332  0.0567 -0.3979 -0.1616
 2021W        W20875  18.246  14.229   3.055 -0.0506 -0.0601 -0.3251
 2022W        W20876   1.868   0.611  12.854 -0.0297 -0.1735  0.1109
 2023W        W20877  15.094   5.334  13.174  0.2028  0.1051 -0.2189
 2024W        W20878   5.001   8.721   1.043 -0.2041  0.4515 -0.2646
 2025W        W20879  10.688  13.898  13.414  0.0785 -0.0138  0.2340
 2026W        W20880  16.125   2.993  11.798 -0.1785 -0.0893 -0.2184
 2027W        W20881  11.992  10.209  12.473  0.1653 -0.1572 -0.2126
 2028W        W20882   1.852  10.549  13.309  0.2108 -0.3238 -0.1052
 2029W        W20883   6.808  14.517  13.916  0.0062 -0.2828 -0.0241
 2030W        W20884  16.482  14.248  15.232  0.0208 -0.0579 -0.0526
 2031W        W20885   9.120   0.830   5.219  0.2745 -0.1463 -0.0539
 2032W        W20886   0.513  18.339   1.706 -0.2947  0.0979  0.0953
 2033W        W20887   7.926  13.944  12.551 -0.0022  0.0919 -0.0638
 2034W        W20888   7.301  12.588  13.338  0.3021 -0.1208  0.0463
 2035W        W20889  18.504   2.725   0.531 -0.2080  0.0218 -0.0561
 2036W        W20890  18.222   5.692   3.249  0.3065  0.1362 -0.3607
 2037W        W20891  14.182   6.110   2.197 -0.0543  0.0347 -0.1010
 2038W        W20892  16.021   0.005   2.387  0.0371 -0.1793  0.1774
 2039W        W20893  17.385  10.948  13.384  0.0939  0.2179  0.1576
 2040W        W20894  16.686  12.341   1.572 -0.0560 -0.1140 -0.1124
 2041W        W20895   4.986   3.078   2.602  0.0254 -0.0628 -0.1530
 2042W        W20896  15.839   5.368  13.944  0.3310  0.2057  0.0040
 2043W        W20897  13.539   2.654   2.439  0.0941  0.2754  0.0607
 2044W        W20898   6.479   7.279  12.540  0.0545  0.0331  0.0580
 2045W        W20899   8.909  10.071   3.690  0.0100  0.2768 -0.0819
 2046W        W20900  16.192  14.207  11.111  0.0741  0.0228 -0.5811
 2047W        W20901   5.847  13.273   5.531 -0.2148  0.0631 -0.2677
 2048W        W20902   3.128   1.021  13.637 -0.2928 -0.0498 -0.0875
 2049W        W20903   7.099   0.187   1.606  0.2672 -0.2176 -0.1215
 2050W        W20904   7.972   0.415  11.482  0.1493  0.0475  0.1289
 2051W        W20905  11.084   1.211   2.818 -0.0668 -0.2717  0.0305
 2052W        W20906  15.609   4.187  12.020  0.1647  0.3199 -0.2341
 2053W        W20907   3.182  15.050  15.347 -0.0204  0.3512 -0.1520
 2054W        W20908   4.509   4.125  14.440 -0.0740 -0.0333  0.4312
 2055W        W20909  12.834  13.446  13.264  0.0222 -0.0231  0.1362
 2056W        W20910   2.837   0.748  12.428  0.2127  0.2059  0.0862
 2057W        W20911  14.161  12.937   2.735  0.0024  0.1655 -0.1255
 2058W        W20912  18.271   9.373   1.537 -0.0344  0.0383  0.1828
 2059W        W20913   6.278  15.357  11.345  0.1418  0.0493 -0.0919
 2060W        W20914  11.281   7.355  13.780 -0.0260 -0.1211  0.1201
 2061W        W20915   9.295  11.673  12.540 -0.3020 -0.2372 -0.1639
 2062W        W20916  12.923   4.109  14.127  0.0622  0.0564 -0.0708
 2063W        W20917   3.285  10.915   2.508  0.1388  0.1658 -0.3293
 2064W        W20918  15.296   6.012   3.608 -0.0740  0.1348  0.1551
 2065W        W20919  18.431   2.327   0.037 -0.1833 -0.3692 -0.0168
 2066W        W20920  17.001  17.580  13.338 -0.1365 -0.0211  0.1079
 2067W        W20921   8.736   2.990   0.461  0.0037  0.0389  0.2302
 2068W        W20922   6.108  17.075  13.172  0.0220  0.2385  0.1882
 2069W        W20923   7.686  17.239   5.608  0.0392 -0.2215 -0.2041
 2070W        W20924  16.540   1.424   3.683  0.0544 -0.0917  0.0227
 2071W        W20925  13.352  17.243   4.073  0.0249 -0.0992 -0.1458
 2072W        W20926   2.409   8.949  12.408  0.0284  0.2220 -0.1660
 2073W        W20927  16.673  14.599  12.657 -0.0731 -0.1301 -0.0688
 2074W        W20928   3.383  12.379   0.802  0.2336  0.4116  0.0632
 2075W        W20929   8.045  11.259   1.512  0.3275  0.3315 -0.0183
 2076W        W20930   8.790  18.495   3.538  0.2152 -0.2671 -0.3485
 2077W        W20931   9.508  10.595   1.176 -0.0665  0.0260  0.1797
 2078W        W20932  10.592  12.765   4.706  0.0121  0.2278 -0.0029
 2079W        W20933  11.692   8.337   3.233 -0.2560 -0.2631  0.4644
 2080W        W20934  12.709   8.646   3.645 -0.1813  0.0580 -0.1451
 2081W        W20935  13.621  17.851   4.040  0.2436  0.1525  0.1475
 2082W        W20936   0.309   0.947   1.641 -0.0243 -0.1640  0.1114
 2083W        W20937  18.342  15.766  12.714  0.0868  0.0907  0.0372
 2084W        W20938   3.525  17.947   4.372 -0.3561 -0.1269  0.2481
 2085W        W20939   6.338  17.951   0.105  0.1579  0.2823 -0.1284
 2086W        W20940  13.819  10.436  11.639 -0.1772  0.3523  0.0565
 2087W        W20941  17.636  14.817   1.561  0.0823 -0.3141 -0.0431
 2088W        W20942  13.364   6.465   5.700  0.1863  0.1330  0.1642
 2089W        W20943  15.577   0.465  13.752 -0.2947 -0.3969 -0.1954
 2090W        W20944   4.664   2.908  15.083 -0.1856 -0.1789  0.0268
 2091W        W20945   6.865  13.781  14.731  0.0305  0.1994 -0.2995
 2092W        W20946   0.102  16.792   1.742  0.1531  0.0748  0.1080
 2093W        W20947   1.810   7.009  13.596  0.0752 -0.3294  0.0403
 2094W        W20948   3.924  13.173   3.989 -0.1654  0.2294  0.2942
 2095W        W20949  11.659   8.345  11.468 -0.1939  0.0211  0.0496
 2096W        W20950   9.546   5.208  14.765 -0.5341 -0.0723  0.0190
 2097W        W20951   6.028   4.602   1.848 -0.0158 -0.3621  0.1979
 2098W        W20952  16.259   6.925   5.358 -0.0700 -0.2550 -0.0095
 2099W        W20953  16.085   6.876  11.375 -0.2117  0.1016  0.2063
 2100W        W20954  11.036  11.489   1.113  0.0439 -0.0305 -0.4103
 2101W        W20955   3.242   6.931   2.178 -0.2031  0.1656 -0.0121
 2102W        W20956  16.870  16.433  13.984 -0.1084 -0.2549 -0.2210
 2103W        W20957  16.154   9.351   2.603  0.1252 -0.0040 -0.3043
 2104W        W20958  16.298   9.661  13.142 -0.3351 -0.0742  0.3389
 2105W        W20959   1.662   7.805   3.813  0.3775 -0.0233  0.1883
 2106W        W20960   2.763  18.326   2.802  0.0604  0.0111 -0.1444
 2107W        W20961   0.015   9.939  11.374  0.1356  0.0086 -0.0755
 2108W        W20962  18.457  15.603   4.110 -0.2013  0.0411  0.5270
 2109W        W20963   6.819   3.428   1.199 -0.0436  0.0562 -0.3047
 2110W        W20964  16.378   0.533   4.636 -0.0964 -0.1685  0.0781
 2111W        W20965  16.324  16.933  11.708  0.0061 -0.1457  0.0504
 2112W        W20966  17.583   1.838   1.778  0.0828 -0.1637 -0.1895
 2113W        W20967  15.274  13.735  11.292  0.2983  0.2455  0.0679
 2114W        W20968   2.593   3.096   3.660  0.1968  0.1965  0.1090
 2115W        W20969  12.276  14.982   2.822  0.1768 -0.2251  0.3227
 2116W        W20970   9.810  14.111   3.967 -0.2094 -0.0266  0.0543
 2117W        W20971  12.123  12.606   1.324  0.3702  0.1386  0.4160
 2118W        W20972  18.124   8.301   2.924  0.1720  0.1899  0.1157
 2119W        W20973   6.930   4.250   0.282  0.4264 -0.2594 -0.1405
 2120W        W20974  11.586  10.598   2.060 -0.0150  0.1160 -0.1926
 2121W        W20975  15.677  18.444   0.674  0.1233 -0.0305  0.1347
 2122W        W20976   6.755  12.047   3.175 -0.0302  0.0607 -0.2432
 2123W        W20977  12.791   8.075  12.022  0.0641 -0.1198 -0.0557
 2124W        W20978  16.730   6.411  14.822  0.0793 -0.2804 -0.0965
 2125W        W20979   0.479   5.907   0.789 -0.1199  0.3275 -0.2095
 2126W        W20980   7.252   8.859  11.463  0.1648 -0.1340  0.0074
 2127W        W20981   4.194   0.533  11.559  0.0097  0.1726 -0.1044
 2128W        W20982  15.330  15.034  13.945 -0.3005 -0.0588  0.0047
 2129W        W20983  16.989  11.037   1.927  0.2894 -0.0901  0.0466
 2130W        W20984  16.193  10.920  13.274  0.0019 -0.0711 -0.0699
 2131W        W20985   6.541   1.037  12.843  0.0709 -0.1654  0.1791
 2132W        W20986  15.769  10.983   2.418 -0.3274 -0.0762 -0.0043
 2133W        W20987   6.472   6.789   5.462  0.0628  0.2392 -0.2054
 2134W        W20988   9.339   7.171  12.748  0.1189 -0.2328 -0.2190
 2135W        W20989   1.428  13.364   1.116  0.0087 -0.0829  0.0723
 2136W        W20990   7.422  13.760  11.106  0.0756 -0.0743  0.0151
 2137W        W20991  11.391   4.214  14.723  0.0007  0.3695 -0.3715
 2138W        W20992   0.897   7.922   1.897 -0.1198  0.0607  0.1085
 2139W        W20993   0.547   4.561  12.255  0.0999 -0.0704  0.1705
 2140W        W20994   1.329   0.627  12.539  0.0838  0.0832  0.3681
 2141W        W20995   1.117  12.640   3.294 -0.1039  0.4502  0.2699
 2142W        W20996  17.062   0.072  11.227  0.1785  0.2330  0.1870
 2143W        W20997  16.846  17.180  15.231 -0.3461  0.0994 -0.3330
 2144W        W20998   0.696  12.083   4.330  0.0256 -0.1711 -0.0101
 2145W        W20999  13.906  18.277  11.702  0.0622  0.3260 -0.1331
 2146W        W21000   0.444   9.589  13.049  0.1652 -0.4958  0.1239
 2147W        W21001   1.343  10.209  14.185 -0.0294  0.3128  0.0504
 2148W        W21002  16.985  14.587   2.226 -0.0433 -0.0555 -0.1837
 2149W        W21003   9.703   1.207  12.514 -0.0332 -0.1491  0.2249
 2150W        W21004  17.276   7.415  14.291  0.0699  0.1269  0.1076
 2151W        W21005  17.684   0.579  15.321  0.0612 -0.0630 -0.0048
 2152W        W21006  18.133  11.756   3.433 -0.0447 -0.0146  0.0150
 2153W        W21007  10.844  17.990  11.105 -0.1498 -0.5057  0.1413
 2154W        W21008  10.982   7.868  12.778  0.2202  0.0581  0.1605
 2155W        W21009   8.632   8.299   0.815 -0.0327 -0.2570  0.1731
 2156W        W21010   0.782  11.995  14.872  0.4714  0.1258  0.0080
 2157W        W21011   2.588  13.559  14.386  0.2416 -0.1835  0.2275
 2158W        W21012  10.113  13.875  13.367 -0.1645  0.0456 -0.1828
 2159W        W21013   9.593   6.823   1.370 -0.1894  0.4260 -0.2158
 2160W        W21014   1.868   2.042   1.352  0.1062 -0.0954 -0.0394
 2161W        W21015   1.399   5.403  11.666 -0.2891  0.2395  0.3363
 2162W        W21016  14.031  16.164   2.065  0.0080  0.0293  0.1717
 2163W        W21017   4.245   7.602   4.337  0.0086 -0.0927 -0.0190
 2164W        W21018  13.680   7.951   0.662  0.2254 -0.3839 -0.0363
 2165W        W21019  11.002  13.485  13.009  0.2777 -0.1601  0.2632
 2166W        W21020   1.032   6.759   3.032  0.4096  0.0295  0.2337
 2167W        W21021   1.002  13.646  14.570  0.0288 -0.1114 -0.3848
 2168W        W21022  14.378  13.718  12.677  0.2601  0.4198  0.1382
 2169W        W21023  12.287  10.091   1.532  0.0355 -0.3248 -0.2692
 2170W        W21024   7.409   4.627   2.367  0.2128  0.4652 -0.1817
 2171W        W21025  15.024   6.056  10.298  0.0999  0.4382  0.0842
 2172W        W21026   7.664   9.326   2.194  0.1273  0.0158 -0.2713
 2173W        W21027   3.282  12.370   2.390  0.4431  0.0902 -0.0650
 2174W        W21028   0.950  11.082   4.927  0.0310 -0.0883  0.1431
 2175W        W21029   6.670   5.555  13.006  0.0096  0.1276  0.0221
 2176W        W21030  15.766  17.036   4.109  0.1550  0.1648  0.1305
 2177W        W21031   3.743   0.334  14.965  0.1296 -0.0247  0.1633
 2178W        W21032   5.091  15.254  11.302  0.0684 -0.2536 -0.2203
 2179W        W21033   8.151  16.222   0.336 -0.1020 -0.1110  0.1075
 2180W        W21034   4.470  13.173  13.192 -0.1315 -0.2281 -0.0556
 2181W        W21035   6.102   6.068   2.004  0.1469  0.3194  0.0394
 2182W        W21036   2.292   6.636   0.048  0.3474 -0.0459  0.2015
 2183W        W21037  11.060   8.735  13.840 -0.0033  0.0429  0.1680
 2184W        W21038   5.879   1.308   3.083  0.0459 -0.0088 -0.0535
 2185W        W21039  13.727   6.497   4.816 -0.2624  0.0017 -0.0968
 2186W        W21040   7.617  11.749  15.460  0.1204  0.2398  0.0884
 2187W        W21041  17.305   1.863   3.088  0.1903 -0.0801  0.0420
 2188W        W21042   5.313   2.159  14.323 -0.0471 -0.0530  0.2906
 2189W        W21043   0.856  15.094   4.167 -0.1275 -0.0963 -0.3498
 2190W        W21044   7.887  13.472  11.062  0.2651 -0.1092  0.2012
 2191W        W21045  10.851   4.617  11.323 -0.0347  0.1925 -0.0583
 2192W        W21046   3.839  16.871  11.500 -0.0017 -0.1686  0.4747
 2193W        W21047   1.696   6.479  14.181 -0.0981 -0.1313  0.1472
 2194W        W21048   7.948  15.756  12.941 -0.0534  0.0250 -0.2259
 2195W        W21049   1.744   2.736   2.407 -0.1624  0.2799  0.0651
 2196W        W21050   8.023   2.965  14.433  0.0317 -0.3082 -0.3503
 2197W        W21051   8.216   6.075   4.222  0.1541  0.0371 -0.1333
 2198W        W21052  18.289   9.818   4.403  0.1380 -0.0556 -0.1762
 2199W        W21053   9.102  11.404  14.908  0.0288 -0.2902  0.0699
 2200W        W21054  17.617  13.856   3.263 -0.0969 -0.2079  0.1296
 2201W        W21055   9.084   0.723   1.067 -0.0250 -0.1204 -0.0662
 2202W        W21056  16.356   5.620   3.873  0.0256  0.3171  0.0595
 2203W        W21057   8.006   1.048  15.208 -0.2122 -0.0341 -0.1056
 2204W        W21058   6.887  10.182  10.827  0.1144 -0.1181 -0.0534
 2205W        W21059  15.544   7.397  12.831 -0.0821 -0.0918 -0.0244
 2206W        W21060   8.245  13.093   0.302 -0.2187 -0.1164  0.1716
 2207W        W21061   3.285  14.022  13.098  0.0821  0.1642  0.2197
 2208W        W21062   4.213   3.821  14.075  0.0923 -0.1228  0.2384
 2209W        W21063  14.416  14.161  11.938  0.3604 -0.0080 -0.2352
 2210W        W21064  17.491   3.427   1.896 -0.1159  0.0679  0.2076
 2211W        W21065   1.341   5.775  14.538  0.0240 -0.1689 -0.1499
 2212W        W21066   5.682  12.990  12.814 -0.2403  0.0360  0.3112
 2213W        W21067   0.411   2.466   1.839  0.1224  0.0207 -0.3922
 2214W        W21068  15.885  16.798   1.804 -0.0831  0.0536  0.1569
 2215W        W21069  12.516   2.602  11.706  0.0774  0.1365 -0.3000
 2216W        W21070  11.033  12.382  15.091 -0.0938  0.1690  0.0382
 2217W        W21071  14.615   7.107  13.627  0.1110  0.1180 -0.0786
 2218W        W21072  18.069   1.992   1.890  0.2507  0.0040 -0.1711
 2219W        W21073  17.554   4.148   0.519  0.0368  0.0589 -0.3116
 2220W        W21074  11.448   7.136   4.295 -0.1280 -0.0143  0.0393
 2221W        W21075  12.961  15.393  14.127 -0.2159  0.0891 -0.0233
 2222W        W21076  16.150   2.060  13.897  0.1528 -0.1755 -0.1069
 2223W        W21077  13.366   9.336   0.425 -0.2428  0.0345 -0.1301
 2224W        W21078  11.556  11.280   0.300  0.2516 -0.2646  0.2433
 2225W        W21079   7.040   3.152  13.773  0.2195 -0.2408  0.1770
 2226W        W21080   7.434  11.091   1.286 -0.1391 -0.1851 -0.1692
 2227W        W21081   5.330  12.859   4.361 -0.1599 -0.1516  0.1076
 2228W        W21082   4.345   4.222   3.411  0.0766 -0.0776  0.1402
 2229W        W21083   2.893  15.021   2.389  0.2153 -0.0908 -0.0818
 2230W        W21084  13.281  17.319   1.654 -0.0435  0.1043  0.0858
 2231W        W21085  16.655   6.980   3.339 -0.1147  0.2627 -0.0212
 2232W        W21086   7.961  14.672  11.708  0.1630  0.1038 -0.1288
 2233W        W21087   9.596  11.811  13.750  0.0505  0.1729  0.0558
 2234W        W21088  13.559  18.465  13.352  0.0785 -0.2731 -0.1035
 2235W        W21089   6.633   0.717   3.396  0.0077  0.0750  0.0227
 2236W        W21090   1.156  17.651   1.675  0.1044  0.0993 -0.1939
 2237W        W21091  16.266   8.307   3.583 -0.3115 -0.0122  0.1246
 2238W        W21092  14.367   2.083  10.940 -0.0060  0.0143 -0.0554
 2239W        W21093   9.443   8.595   2.618  0.0716 -0.1489  0.0100
 2240W        W21094  18.469  16.275   1.759  0.0644  0.0116  0.0065
 2241W        W21095  10.169   0.397   3.273  0.1441 -0.0110  0.1126
 2242W        W21096  11.696   6.474  14.237  0.1234  0.0858 -0.0583
 2243W        W21097   2.503  14.026   3.646  0.2544 -0.1375 -0.2397
 2244W        W21098  16.595  15.163  11.120 -0.1839 -0.3985  0.3603
 2245W        W21099  16.081   8.826   0.850 -0.1270  0.0663 -0.1630
 2246W        W21100   2.987  11.445   1.834 -0.1461  0.0086  0.0016
 2247W        W21101  12.430   2.926   3.863 -0.1082 -0.2391  0.3040
 2248W        W21102   6.838  18.329  11.160 -0.1147  0.1072 -0.3351
 2249W        W21103   6.657  12.428  13.436 -0.1851  0.0583  0.2731
 2250W        W21104  13.942   4.447  12.385  0.1812  0.1292  0.0540
 2251W        W21105   1.840   8.659  14.799 -0.2104  0.0458 -0.1784
 2252W        W21106   7.774   2.620  11.162 -0.0975  0.1635  0.3755
 2253W        W21107   5.858  11.793  14.711  0.0357 -0.1519 -0.0328
 2254W        W21108  16.268  14.762   1.722 -0.1961 -0.2879  0.2120
 2255W        W21109   6.782   7.227   0.679  0.3744 -0.2112 -0.5174
 2256W        W21110   5.701  15.318  12.036 -0.0580  0.0682 -0.1342
 2257W        W21111  10.160   0.983   4.727 -0.0110 -0.0955  0.3398
 2258W        W21112   0.555   0.553  12.650  0.0811  0.0609 -0.0729
 2259W        W21113   0.865   0.798  14.125  0.3776 -0.0289  0.1158
 2260W        W21114   5.371   5.960  14.051 -0.1412  0.0698 -0.1754
 2261W        W21115  10.928  18.052   3.443  0.0374 -0.1750  0.0458
 2262W        W21116  11.257  15.317  11.294 -0.2075  0.2537 -0.0742
 2263W        W21117  10.096  15.712  13.578  0.3399  0.0166 -0.0080
 2264W        W21118   5.126   8.230  14.723 -0.0716 -0.0087 -0.0184
 2265W        W21119   4.384  14.028   2.922  0.0842 -0.1625  0.0357
 2266W        W21120   7.759   6.133   3.212 -0.1337 -0.0192 -0.2050
 2267W        W21121   7.283   6.894   0.376 -0.4115  0.2300  0.1397
 2268W        W21122  18.331   6.587   0.913 -0.2568 -0.0174  0.2855
 2269W        W21123   3.567   1.602   4.181 -0.0751 -0.0682 -0.1714
 2270W        W21124  17.231   2.801   2.963 -0.1118  0.0460  0.1190
 2271W        W21125   1.435   2.247  13.898  0.1381  0.0285 -0.1090
 2272W        W21126  11.036  11.249  11.467  0.0090  0.0349  0.1479
 2273W        W21127   9.551   0.354  11.692 -0.1259  0.0297 -0.1794
 2274W        W21128   1.626  15.202  14.792  0.1575  0.3614  0.0740
 2275W        W21129  16.739   1.328   2.523  0.0971 -0.0965  0.0546
 2276W        W21130   8.689  11.380   3.166 -0.1987  0.1747  0.0930
 2277W        W21131   8.288  16.713  14.861  0.2741  0.0912  0.1956
 2278W        W21132   7.929  14.316  14.870 -0.0176 -0.0065 -0.1800
 2279W        W21133  10.701   6.227  11.322 -0.0121 -0.3299  0.3382
 2280W        W21134  16.094   2.250   0.138 -0.0193  0.0791  0.1083
 2281W        W21135   7.579   8.551   1.969  0.2270 -0.2525  0.2215
 2282W        W21136  16.537  14.909   1.277  0.0548 -0.0486 -0.0574
 2283W        W21137   7.856   3.326   2.313  0.0159 -0.2678  0.1908
 2284W        W21138  10.875   8.845   1.261 -0.2012 -0.0740  0.0857
 2285W        W21139   5.022   5.744   4.151 -0.4453 -0.0972 -0.4614
 2286W        W21140  16.735  10.203   1.044  0.1329  0.3930 -0.1581
 2287W        W21141  13.932  11.329   1.110  0.2081 -0.0426 -0.0553
 2288W        W21142   2.690   9.360  12.494  0.0914 -0.0821  0.1008
 2289W        W21143  10.019  16.110   0.574  0.0901  0.3576  0.0789
 2290W        W21144  15.406  13.553   1.078  0.2214 -0.2341 -0.0928
 2291W        W21145   4.981   7.099  12.797 -0.1022 -0.1111  0.0755
 2292W        W21146  15.662   2.655  14.458 -0.0702 -0.0566  0.1571
 2293W        W21147  16.836  12.961  14.154  0.3541 -0.0987  0.0911
 2294W        W21148   5.724  14.311  12.755 -0.2783  0.0211  0.1487
 2295W        W21149  11.296  15.227  15.177 -0.1016  0.1542 -0.1226
 2296W        W21150  15.027  17.721  12.954 -0.0759 -0.1378 -0.2615
 2297W        W21151  16.586  10.087   3.954 -0.0897  0.2236 -0.0816
 2298W        W21152  13.806  15.442  14.415  0.0436  0.1753  0.0915
 2299W        W21153   2.231  10.627  12.369  0.0763 -0.0344 -0.2261
 2300W        W21154  10.984   9.974  12.707 -0.0236  0.1033  0.1621
 2301W        W21155  10.773  12.907  11.861  0.0346 -0.0525  0.1267
 2302W        W21156   0.897  10.053  14.548 -0.0719 -0.0107 -0.2606
 2303W        W21157  10.207   3.692   4.530  0.0247 -0.4437 -0.1267
 2304W        W21158   0.833   1.565  14.929 -0.1551  0.0492  0.0045
 2305W        W21159  11.236  10.079   0.906 -0.0827 -0.0818  0.2294
 2306W        W21160  18.026  12.476  15.215 -0.0709 -0.2159 -0.0697
 2307W        W21161  16.194   3.110  13.347 -0.1188 -0.0121  0.0263
 2308W        W21162   5.619   3.068   3.333 -0.2591  0.2063 -0.0030
 2309W        W21163   2.263   0.497  14.001  0.3375 -0.0283 -0.3390
 2310W        W21164  11.597  12.980  15.038 -0.0962 -0.3165 -0.3206
 2311W        W21165  11.373   3.150   1.272  0.0699  0.1641  0.0066
 2312W        W21166   1.699   9.245  13.176  0.3569 -0.1966  0.0112
 2313W        W21167  15.355  11.976  12.395  0.0150 -0.2232 -0.0042
 2314W        W21168  16.549   3.371  10.787  0.2183 -0.4025  0.2801
 2315W        W21169  14.716   2.861  13.981 -0.1711  0.0951 -0.0800
 2316W        W21170   6.959   2.495  13.174 -0.0279  0.0830 -0.0613
 2317W        W21171   4.504  14.448  13.247 -0.0515  0.0876  0.0215
 2318W        W21172  10.277  15.460   1.464  0.2893  0.2467  0.1852
 2319W        W21173   8.093  12.045  12.894  0.1359  0.2987  0.0529
 2320W        W21174  10.666   3.084   4.333 -0.0864 -0.0619 -0.1861
 2321W        W21175   7.836  14.648   4.449  0.0927  0.1266 -0.0645
 2322W        W21176  11.608   5.528   4.472 -0.1869  0.0410  0.1212
 2323W        W21177   9.350  16.637   0.196 -0.0374 -0.0192  0.1965
 2324W        W21178   4.786   6.383   1.462 -0.0802 -0.0163 -0.0091
 2325W        W21179  13.268  12.974  14.806  0.4208  0.0321  0.0256
 2326W        W21180   5.058   6.829   2.562 -0.2200  0.3255  0.2030
 2327W        W21181   1.995  15.252   2.707  0.0758  0.0170 -0.0948
 2328W        W21182   6.947   3.161  13.119 -0.0683  0.0553  0.0838
 2329W        W21183   3.389  10.776   5.123  0.3862 -0.0434  0.0666
 2330W        W21184  11.928   7.882  10.248  0.0162 -0.0289 -0.3218
 2331W        W21185  17.183   7.711  15.231 -0.1119  0.1568 -0.3560
 2332W        W21186  10.245   7.754  14.386 -0.1316  0.0972 -0.1931
 2333W        W21187   1.131  11.011   2.549  0.1012 -0.2306 -0.1204
 2334W        W21188   7.735   2.875   0.478 -0.0237  0.2836 -0.0610
 2335W        W21189  13.269   2.713  11.723  0.0965  0.1997  0.3685
 2336W        W21190   4.980   2.485  11.135 -0.1019 -0.2512  0.1936
 2337W        W21191  13.649   4.428  11.879  0.0070 -0.3171 -0.1988
 2338W        W21192  11.932  12.718   3.375  0.0376  0.2106  0.1007
 2339W        W21193   8.428  13.957   4.141 -0.0829  0.0265 -0.0602
 2340W        W21194   5.713  10.464   3.221  0.0820 -0.1156 -0.1973
 2341W        W21195   8.380   4.054  11.085  0.1699  0.0283  0.1581
 2342W        W21196  17.831   6.050   4.319 -0.0843 -0.1365 -0.3235
 2343W        W21197  11.967  15.614   1.612 -0.2252  0.1411  0.2445
 2344W        W21198   4.106  17.835  10.657 -0.1867 -0.3271  0.2986
 2345W        W21199   6.928   7.110  11.776 -0.0707  0.3186  0.0331
 2346W        W21200   8.344  12.627  12.110  0.5548  0.0749  0.0048
 2347W        W21201   4.770   2.455   3.858  0.2286 -0.1327  0.2452
 2348W        W21202   6.480  13.623   4.333 -0.1628 -0.1281  0.1342
 2349W        W21203  11.154   5.271   1.502  0.2249 -0.1031  0.3453
 2350W        W21204   1.913   3.503   1.051 -0.0930 -0.1269 -0.2615
 2351W        W21205   7.181   1.405   2.266  0.3128  0.1854  0.0106
 2352W        W21206   4.400   2.196  13.318 -0.0598  0.0949 -0.1302
 2353W        W21207  10.730  13.529   1.827  0.0195 -0.1569  0.2007
 2354W        W21208  16.543   6.547  10.577  0.1033  0.1334  0.1816
 2355W        W21209  15.538   4.257   4.321  0.0759  0.0693  0.2644
 2356W        W21210   7.255   4.043   3.075  0.1620  0.0585 -0.0404
 2357W        W21211   6.812  18.507   1.276  0.0354 -0.2821 -0.1046
 2358W        W21212  16.329   1.051   0.705 -0.1506 -0.1420  0.1236
 2359W        W21213  15.013   1.309   1.498 -0.0252  0.0394  0.1369
 2360W        W21214   1.949  10.883  12.038 -0.1299  0.0239  0.0449
 2361W        W21215  15.830  11.580   1.701 -0.1026  0.0139  0.1183
 2362W        W21216  18.333  12.926   2.833  0.0154  0.2220  0.0861
 2363W        W21217   1.197  13.739  12.501  0.2079  0.3278 -0.0887
 2364W        W21218  12.926   8.417   4.105  0.2208  0.2438 -0.2318
 2365W        W21219   5.854  14.679  13.831  0.3317 -0.0683  0.2623
 2366W        W21220  17.596   3.308  13.328 -0.2857  0.0295  0.1022
 2367W        W21221   5.650   8.951  14.210  0.2171  0.1086  0.2236
 2368W        W21222   7.923   6.191  13.719  0.0616 -0.1845 -0.0012
 2369W        W21223  16.237   1.773   3.095 -0.2033 -0.0307 -0.2724
 2370W        W21224  10.077   8.819   1.251 -0.0327  0.0645  0.2858
 2371W        W21225  10.821   2.156   4.661 -0.0389 -0.2115 -0.0583
 2372W        W21226   7.526   2.152   1.182  0.0306  0.0087  0.0323
 2373W        W21227  17.481  10.029   2.548  0.0325  0.1014  0.0757
 2374W        W21228  11.839   0.118   3.840 -0.0354  0.0676  0.3536
 2375W        W21229   6.750  16.694  11.643 -0.0472  0.1147  0.3977
 2376W        W21230   5.257  11.282   1.446  0.2924 -0.0151  0.0758
 2377W        W21231   0.687  13.594   0.282 -0.0051  0.2670  0.1071
 2378W        W21232   0.643  14.742   1.494  0.1353 -0.1047  0.0877
 2379W        W21233  15.458  17.813  15.332 -0.0885 -0.0651  0.1362
 2380W        W21234  16.526   9.759   0.958  0.1940 -0.0502  0.0580
 2381W        W21235   2.416   0.117  14.466  0.2764  0.2190 -0.1585
 2382W        W21236   5.394   7.247  14.692  0.0527 -0.2352  0.0328
 2383W        W21237   1.581   7.721   2.883 -0.2974 -0.2049  0.1654
 2384W        W21238  18.155   9.585  13.406 -0.0840  0.0092 -0.0002
 2385W        W21239   9.954  12.680  14.073 -0.1065 -0.0078  0.2743
 2386W        W21240   9.598  17.133  12.119  0.0560 -0.1899 -0.3614
 2387W        W21241  13.018   9.480   1.713 -0.0449  0.1717 -0.0869
 2388W        W21242   1.049  10.554  14.517  0.1765  0.0571  0.1046
 2389W        W21243  12.706  11.440   1.538  0.0804  0.0797  0.0071
 2390W        W21244   6.608  12.637  15.221  0.1846 -0.1604 -0.1702
 2391W        W21245  15.702  17.956   4.370  0.1924  0.0392 -0.0742
 2392W        W21246   8.294   3.270   1.245 -0.1201 -0.0570 -0.4014
 2393W        W21247  15.009   1.979  15.002 -0.0969 -0.0900  0.3214
 2394W        W21248  18.277   3.946  14.114 -0.4158 -0.0542  0.2302
 2395W        W21249   2.914  15.151   1.327  0.3625  0.0130  0.2464
 2396W        W21250   6.772   8.044  12.600  0.0788 -0.0454 -0.2763
 2397W        W21251  17.239  12.443  11.427 -0.2258  0.1056 -0.1502
 2398W        W21252   6.054  14.510  12.364 -0.2035  0.1025 -0.1286
 2399W        W21253   9.973   7.416   2.749 -0.1104 -0.2723  0.1228
 2400W        W21254  13.721  10.116   0.869 -0.1118  0.1299  0.2638
 2401W        W21255   2.890   3.589  13.904  0.0296 -0.0090 -0.2656
 2402W        W21256  12.109  17.678  13.983 -0.3380 -0.2106 -0.1149
 2403W        W21257   7.409   6.042   3.902 -0.0093  0.2497  0.0226
 2404W        W21258  12.007   8.515  15.324 -0.4826  0.1993 -0.2169
 2405W        W21259   5.156   2.732  11.698  0.2293 -0.3781  0.0649
 2406W        W21260  15.427   4.977  14.146 -0.2305 -0.0954  0.3117
 2407W        W21261  10.995  13.477   0.752 -0.0810  0.1368  0.0098
 2408W        W21262  13.575   8.416  14.334  0.0133 -0.3072  0.2376
 2409W        W21263   6.864   7.598  11.674  0.0356  0.1752 -0.2010
 2410W        W21264   1.848  11.550   2.523 -0.0091 -0.2910 -0.0095
 2411W        W21265  12.547  10.004   2.949 -0.3392 -0.0117  0.0764
 2412W        W21266  17.457  13.166  15.456  0.1300  0.1352  0.3854
 2413W        W21267  11.368  12.029  15.090  0.1465 -0.0551  0.0692
 2414W        W21268  12.114  18.557   4.525  0.2390  0.4920  0.2628
 2415W        W21269  11.579   4.900   3.201  0.3814  0.0231 -0.2765
 2416W        W21270  16.846  12.753   3.056  0.1325 -0.0844 -0.4388
 2417W        W21271   9.791  12.787  15.290  0.1230 -0.2862 -0.0570
 2418W        W21272  10.841  18.467   2.361  0.0030  0.0208 -0.1142
 2419W        W21273  13.564   4.857   1.115  0.0768  0.0674 -0.1294
 2420W        W21274  11.735  13.796  11.533  0.1335 -0.2086  0.0009
 2421W        W21275   9.505  17.449  14.816 -0.2713 -0.2566 -0.2750
 2422W        W21276  13.663   0.891  12.834 -0.0147  0.1048 -0.3718
 2423W        W21277   9.564   9.723  15.366 -0.0183  0.2989 -0.1872
 2424W        W21278  12.200  11.222  14.187  0.0705  0.3597 -0.0434
 2425W        W21279   4.352   8.303   0.247 -0.2066 -0.1603 -0.0475
 2426W        W21280  14.466  16.469  12.992 -0.0494  0.1003 -0.1842
 2427W        W21281   4.504  18.122   0.439 -0.0366  0.0304 -0.3021
 2428W        W21282   5.324   2.391  13.034  0.2000  0.0457  0.3637
 2429W        W21283  10.776  11.317  13.245 -0.1259  0.2377  0.1048
 2430W        W21284   5.759  17.018   1.709  0.1398 -0.2510 -0.1605
 2431W        W21285  17.585   1.529  11.677  0.5536  0.2004  0.2653
 2432W        W21286   3.262  10.557  14.806  0.0893 -0.1275  0.1212
 2433W        W21287  10.031  18.078  11.325  0.0649  0.2792 -0.2633
 2434W        W21288   9.887  12.845   3.886  0.0654 -0.1294  0.0505
 2435W        W21289   4.643   0.296  11.852  0.0850 -0.4766 -0.1645
 2436W        W21290  13.839  16.417  14.486  0.0139  0.0474  0.1514
 2437W        W21291  15.894   2.911   4.764 -0.1192  0.3313 -0.0593
 2438W        W21292  16.904  17.802   1.562  0.0729 -0.1663 -0.1308
 2439W        W21293   7.696   4.847  15.067  0.0115 -0.1292  0.0068
 2440W        W21294   4.588  14.309   1.341  0.0671 -0.0393  0.0320
 2441W        W21295   8.244   3.853   4.126 -0.1583 -0.2525  0.2399
 2442W        W21296   2.970   6.921   3.785 -0.0067  0.0586 -0.1802
 2443W        W21297   1.168  14.589  15.226  0.2176 -0.4521  0.1581
 2444W        W21298   4.264  16.143  15.387  0.2855  0.1026  0.1616
 2445W        W21299   8.570   1.087  12.081 -0.5313  0.2315 -0.2192
 2446W        W21300  14.730  17.479   4.197 -0.2692 -0.3939 -0.2307
 2447W        W21301  18.054  16.798   2.608  0.0694  0.0500 -0.1437
 2448W        W21302   9.189   1.966   3.055 -0.2406 -0.1417 -0.1540
 2449W        W21303  11.178  13.910   2.217  0.0447 -0.1410  0.3777
 2450W        W21304   5.100  10.166   0.755 -0.2475 -0.1677  0.0574
 2451W        W21305  14.673  11.792  13.470 -0.0694 -0.0899 -0.0790
 2452W        W21306   1.904  18.246  13.204  0.1718  0.1834 -0.1294
 2453W        W21307  11.793  13.879   3.995 -0.0029  0.4002 -0.1620
 2454W        W21308  10.109   5.575  11.338 -0.1941 -0.0746 -0.0607
 2455W        W21309  16.343   1.771  15.407  0.2245 -0.1085 -0.0359
 2456W        W21310  10.800  11.051  10.446  0.2367  0.2902 -0.3760
 2457W        W21311   9.755  16.194   2.188  0.2541 -0.2101  0.2734
 2458W        W21312  11.960   3.347  15.069  0.1879  0.0786  0.0344
 2459W        W21313   5.489   8.665   3.685 -0.1954 -0.0123 -0.2670
 2460W        W21314   9.700   6.822  11.545 -0.1728  0.3050 -0.0230
 2461W        W21315  18.514   6.470  14.185  0.3331  0.1014 -0.0780
 2462W        W21316  18.276   0.598  10.983 -0.2221  0.1874  0.3573
 2463W        W21317   0.340   2.940   3.619  0.0387  0.0488 -0.2326
 2464W        W21318  17.382  10.381  15.094 -0.0882 -0.2330 -0.1461
 2465W        W21319   0.751  12.364  13.387  0.0543  0.1617  0.1264
 2466W        W21320   8.817  15.941   4.745 -0.2039 -0.2395 -0.0440
 2467W        W21321  13.750   2.831   1.923 -0.3726  0.0663 -0.1111
 2468W        W21322  17.587   2.291   0.851 -0.2188  0.0683 -0.0723
 2469W        W21323   0.742   0.656  11.707 -0.1114 -0.1840  0.2561
 2470W        W21324  11.625  16.804   4.966  0.2363 -0.1266 -0.0445
 2471W        W21325   1.232  11.551   2.384 -0.2074 -0.1523 -0.0122
 2472W        W21326   4.864  11.929   2.969 -0.2248 -0.2747  0.2052
 2473W        W21327  16.446   9.277   3.540 -0.3364  0.1680  0.0497
 2474W        W21328   9.906  10.641  14.573  0.1428  0.1841 -0.1711
 2475W        W21329  14.358  11.588  12.905  0.0204  0.0862  0.1077
 2476W        W21330   8.683   4.405   4.159 -0.1197 -0.1788 -0.1790
 2477W        W21331   7.693  14.355  14.324 -0.3583  0.2409 -0.0941
 2478W        W21332   1.856  14.244  13.143  0.2576  0.0563  0.2301
 2479W        W21333  16.589   9.467   0.514 -0.3148  0.0778 -0.1971
 2480W        W21334  13.211   8.373  11.355  0.2030 -0.0438 -0.1162
 2481W        W21335  15.026   0.124   1.344  0.4808 -0.1953  0.3112
 2482W        W21336  14.957   1.161   2.811  0.1732  0.0743  0.0914
 2483W        W21337   2.239   0.693  15.430  0.2135  0.1337 -0.1419
 2484W        W21338  14.460   9.251   1.582 -0.2338  0.3897  0.1489
 2485W        W21339   7.451   3.867  11.844 -0.0235 -0.1330 -0.0078
 2486W        W21340  14.491  12.198  11.289  0.3045 -0.2085 -0.0263
 2487W        W21341  11.787  17.808  12.167  0.1828  0.1089  0.3512
 2488W        W21342   2.107   5.343   1.425  0.0592  0.0047  0.0512
 2489W        W21343  13.105  15.218  15.358  0.1522  0.1298 -0.3998
 2490W        W21344  17.035   7.216   2.993 -0.3023  0.0682 -0.0973
 2491W        W21345  10.256   2.657  12.837 -0.3007 -0.0398  0.0141
 2492W        W21346   8.108   0.097  12.789  0.1901 -0.3269  0.2386
 2493W        W21347   0.245  12.309  12.502 -0.4429  0.1832 -0.2097
 2494W        W21348   7.570   0.678  13.256 -0.4832 -0.1182 -0.0059
 2495W        W21349  15.246  10.956  11.406  0.1971 -0.2128 -0.0426
 2496W        W21350  17.801   9.462  12.130 -0.3056 -0.0542  0.3538
 2497W        W21351  15.924   5.039   1.364 -0.2781 -0.0355  0.2805
 2498W        W21352  15.611   9.004  13.145  0.1519  0.0177  0.1674
 2499W        W21353   3.690  17.787   0.853 -0.0460  0.1822  0.2284
 2500W        W21354   6.176  12.646   1.158  0.1472 -0.1394  0.1575
 2501W        W21355   2.743  17.455  11.735  0.1471  0.1786 -0.1260
 2502W        W21356   1.628  13.778   0.143  0.2631  0.1542  0.3189
 2503W        W21357  12.846  11.035  15.229 -0.0261  0.2456 -0.1140
 2504W        W21358  17.085  14.772  13.765  0.2166  0.1945  0.2350
 2505W        W21359  14.090  17.131   1.240 -0.1674 -0.1412  0.4045
 2506W        W21360  15.759  16.842  10.204  0.0044 -0.1970  0.2252
 2507W        W21361  13.963   6.429  14.009 -0.0806 -0.2381  0.2090
 2508W        W21362   0.744  10.831  12.587  0.1806  0.0289  0.1383
 2509W        W21363   3.780   8.674   2.509  0.1310  0.1276  0.4590
 2510W        W21364   0.704   7.449   1.792 -0.2395 -0.2606  0.0844
 2511W        W21365   2.940  12.544   4.550 -0.0126  0.0839  0.0790
 2512W        W21366   2.968   7.885   3.448  0.0455 -0.0203  0.1038
 2513W        W21367   9.117   3.387  14.875 -0.0074 -0.1244 -0.1435
 2514W        W21368  11.969  13.502   4.373  0.4149 -0.0995 -0.1399
 2515W        W21369  15.215  17.587   0.268  0.0017  0.2466 -0.2763
 2516W        W21370  13.775  12.830  12.910  0.0265  0.0350  0.1514
 2517W        W21371   4.922  13.384  13.361 -0.2480 -0.0911  0.0641
 2518W        W21372   2.985  10.956   1.656 -0.2168  0.1126 -0.4536
 2519W        W21373  10.812  18.557  11.536 -0.3744 -0.2813  0.0129
 2520W        W21374   8.149   3.637   0.695  0.3023 -0.2366 -0.0312
 2521W        W21375  15.954   7.798  11.058 -0.0497 -0.3483  0.1840
 2522W        W21376  10.252  14.450  15.422  0.3361  0.0870  0.1435
 2523W        W21377   6.301  17.118  14.465  0.0492 -0.2700  0.0316
 2524W        W21378  18.173  15.650  10.877  0.1825  0.3675  0.3501
 2525W        W21379   7.027  18.086   0.403 -0.1151 -0.1310  0.0416
 2526W        W21380   1.517   2.460   1.116 -0.1503 -0.0398 -0.0240
 2527W        W21381  15.643   9.222   3.499 -0.2154  0.0125  0.1588
 2528W        W21382   9.555  11.665   2.867 -0.4336  0.0278 -0.4186
 2529W        W21383  16.869   4.900  14.609  0.0495 -0.0400  0.1272
 2530W        W21384   7.970  17.503   2.719  0.0438 -0.2070  0.0231
 2531W        W21385  11.285  14.171  12.541 -0.0091  0.0821 -0.3716
 2532W        W21386   7.859  15.321  13.258 -0.1712  0.0263 -0.1679
 2533W        W21387   8.457   4.890  12.097  0.0822  0.0867  0.0030
 2534W        W21388   6.107   1.762   2.995  0.2870 -0.1441 -0.0398
 2535W        W21389  14.391  15.053   2.888  0.3166 -0.0481  0.2487
 2536W        W21390  15.793   8.282   3.631  0.3169 -0.1706 -0.0816
 2537W        W21391  17.583   7.040   3.593  0.1128  0.1992  0.0355
 2538W        W21392  11.170   6.164  12.776  0.2495 -0.1726 -0.0342
 2539W        W21393  12.704   7.981   4.369  0.0024  0.1384 -0.2578
 2540W        W21394  18.053  17.568   0.104 -0.0712  0.4715  0.0868
 2541W        W21395  13.721  13.321  12.255 -0.2607 -0.2700  0.0964
 2542W        W21396   8.485   4.455  14.498 -0.2944  0.0906 -0.3722
 2543W        W21397  18.308   0.686  13.203 -0.3550 -0.1889  0.1694
 2544W        W21398  16.541   4.362  15.356 -0.3013  0.0602 -0.0970
 2545W        W21399   9.447   5.235   1.008 -0.0341 -0.0482 -0.1590
 2546W        W21400   9.004   1.096   2.756  0.2500 -0.2161  0.0761
 2547W        W21401   4.525   2.467   3.349  0.0353 -0.2074 -0.1591
 2548W        W21402  18.048   3.463   0.125 -0.2049 -0.1213 -0.0647
 2549W        W21403  10.330   8.016   3.445 -0.1369 -0.1943  0.4297
 2550W        W21404   1.926  17.688  11.576  0.0612 -0.0873 -0.0786
 2551W        W21405  12.046   9.745   1.210  0.2751  0.1969 -0.0363
 2552W        W21406  10.392  11.719  12.897 -0.2747 -0.0353  0.0011
 2553W        W21407   9.132   8.977   2.822  0.0003 -0.1703  0.2548
 2554W        W21408  16.038   0.817  15.313 -0.1923  0.0632 -0.2069
 2555W        W21409   5.944   1.321   4.535  0.1551 -0.1172  0.0262
 2556W        W21410  10.381   8.527   0.047 -0.1817 -0.0500 -0.0311
 2557W        W21411   7.652  13.035   2.996 -0.1123  0.1872 -0.1424
 2558W        W21412  10.650  10.593  14.486  0.0025  0.0792  0.1140
 2559W        W21413   6.164  13.886   0.580 -0.0558  0.2447  0.0523
 2560W        W21414  16.265   6.498  11.644 -0.0901 -0.0973 -0.1516
 2561W        W21415  16.093   3.605  10.957 -0.1043  0.0390 -0.0628
 2562W        W21416   9.203   0.179   4.045  0.0701  0.3823  0.1987
 2563W        W21417   9.489   5.046  15.252 -0.1252  0.0999 -0.0804
 2564W        W21418   7.970  18.121   0.168 -0.1076  0.1640  0.2072
 2565W        W21419  12.639  11.085   0.683 -0.1802 -0.0038  0.0559
 2566W        W21420   3.219   1.209  10.706 -0.1762  0.1085  0.0854
 2567W        W21421  11.180   4.315  12.871  0.0184  0.3104  0.0939
 2568W        W21422  16.252   3.593  12.926 -0.1203  0.3956  0.0813
 2569W        W21423   9.268  16.994   0.508 -0.0719 -0.0008 -0.1071
 2570W        W21424  11.500   3.682  15.063  0.0766 -0.1631  0.1618
 2571W        W21425   2.658  17.043   1.979  0.0673  0.2902  0.3241
 2572W        W21426   0.902   2.959   3.897  0.4606  0.0025  0.2743
 2573W        W21427  18.437   7.260   2.070  0.4294  0.0903  0.1484
 2574W        W21428   2.437   1.328  11.772  0.2073 -0.1518 -0.1214
 2575W        W21429   0.036   5.903   1.091 -0.1482  0.1936 -0.1169
 2576W        W21430  15.797  16.925   3.011 -0.1111 -0.1476  0.2824
 2577W        W21431  11.076  13.352   4.735 -0.1574  0.2184  0.1527
 2578W        W21432   2.677   7.825   2.261 -0.2914 -0.0251 -0.3508
 2579W        W21433   5.059   6.383  14.011 -0.0020  0.0612 -0.0198
 2580W        W21434  16.504   0.964   2.830 -0.1307  0.0339  0.0489
 2581W        W21435  15.582   9.997   0.383  0.0662 -0.0759 -0.1047
 2582W        W21436  17.211  17.424   3.667  0.0780  0.2035 -0.1469
 2583W        W21437   5.146   8.557  12.479  0.1746 -0.1214  0.2935
 2584W        W21438  17.501  13.385  11.586  0.0674 -0.3669 -0.0701
 2585W        W21439   4.789   9.563   3.104  0.2356 -0.3377  0.0287
 2586W        W21440   3.889   4.702   4.012  0.1776 -0.1716 -0.1296
 2587W        W21441  12.725   5.964   0.774  0.0718 -0.1577 -0.3553
 2588W        W21442   6.672  10.259  15.083 -0.1031 -0.3871 -0.0399
 2589W        W21443  12.633  11.184   0.188  0.0677 -0.0395 -0.0697
 2590W        W21444   3.795  11.556  14.013  0.4918 -0.2605 -0.1470
 2591W        W21445   0.781   1.412   2.482 -0.1786 -0.3061 -0.0979
 2592W        W21446  13.444   6.048  13.998 -0.2213  0.1219  0.0815
 2593W        W21447  17.050   3.835  11.881  0.1769 -0.0470  0.1177
 2594W        W21448  14.699   8.833   4.191  0.0870 -0.0705  0.1487
 2595W        W21449   3.774  13.473   2.119 -0.3204 -0.2285  0.2951
 2596W        W21450   0.460   3.173   4.071 -0.0949  0.0895  0.1439
 2597W        W21451  10.961  10.935  12.964  0.3055 -0.1664  0.1300
 2598W        W21452   4.579   9.582   0.785 -0.0996  0.0795 -0.2510
 2599W        W21453   6.460   7.876   1.629  0.0515 -0.4301 -0.0168
 2600W        W21454   1.881  15.247   3.327 -0.0771  0.1893  0.2299
 2601W        W21455  17.712  10.656  12.969  0.2157 -0.0245 -0.2419
 2602W        W21456   5.740   6.042  11.502 -0.0596  0.0076  0.3060
 2603W        W21457   0.065  14.842  11.947 -0.0237  0.3519 -0.1822
 2604W        W21458   6.169   5.466  14.076 -0.1902 -0.0744 -0.1981
 2605W        W21459   0.040  13.916   3.070  0.0421 -0.0958  0.2308
 2606W        W21460  13.606   3.366   3.107 -0.1125 -0.0081 -0.0703
 2607W        W21461   7.409  16.921  12.538 -0.2871  0.1600  0.0802
 2608W        W21462   7.997  12.546   4.792  0.0800  0.0379 -0.1924
 2609W        W21463   6.357  12.655   2.503  0.0562  0.0142  0.0285
 2610W        W21464   3.691  14.316   2.443  0.0641 -0.0380  0.2389
 2611W        W21465  14.734   5.862   0.381  0.2188  0.2268 -0.0334
 2612W        W21466   5.535  12.627  15.412 -0.0832  0.0517 -0.0773
 2613W        W21467   8.002   2.799   2.824 -0.0409  0.0010  0.2296
 2614W        W21468   0.588   8.149  13.006 -0.3390  0.0804  0.0149
 2615W        W21469   5.974  15.642   2.335 -0.0398  0.1156 -0.1559
 2616W        W21470  18.125   0.155  13.972  0.1874 -0.1077 -0.0381
 2617W        W21471   0.287   1.748   0.761 -0.1601  0.0663  0.2553
 2618W        W21472  16.878  18.155  12.999 -0.0491  0.1054  0.0565
 2619W        W21473  15.728  14.733   4.440 -0.1561 -0.0611  0.1011
 2620W        W21474   1.725  10.819   4.182 -0.2500 -0.1233  0.0109
 2621W        W21475   7.598   8.162  12.119  0.1264 -0.0412 -0.0081
 2622W        W21476  12.719   6.608  11.289 -0.0123 -0.0638  0.0940
 2623W        W21477   8.351   8.265  13.216 -0.1523  0.1413  0.0356
 2624W        W21478  11.023   3.029  14.907 -0.0582 -0.0573 -0.0835
 2625W        W21479   1.196  12.122  12.629  0.1412  0.0110 -0.0574
 2626W        W21480   9.435  16.720   1.405  0.0720 -0.3567 -0.2599
 2627W        W21481   5.671   5.357   0.365 -0.0967  0.1731  0.0796
 2628W        W21482   5.508   7.968  12.140  0.3153 -0.3433  0.2876
 2629W        W21483   7.470  11.457  12.486 -0.1893  0.2593 -0.1444
 2630W        W21484   8.958  14.988  13.612  0.0039  0.0892  0.0324
 2631W        W21485   7.847   4.570   3.683 -0.0006 -0.2407 -0.4338
 2632W        W21486  17.746   9.917  12.589 -0.1323  0.2273  0.0427
 2633W        W21487  13.433  17.379   0.676 -0.0130 -0.1528 -0.0762
 2634W        W21488  15.785  17.156  14.657 -0.2117 -0.0859 -0.0971
 2635W        W21489   2.370   7.800   4.088  0.1190 -0.0959  0.0445
 2636W        W21490  13.648   4.622   3.505 -0.5062 -0.0852  0.0518
 2637W        W21491   4.505  13.780   4.435 -0.1088  0.0002  0.0483
 2638W        W21492   6.923  10.709   4.319 -0.0322  0.0592  0.0463
 2639W        W21493   0.074   2.216  13.336  0.0760 -0.1494  0.1000
 2640W        W21494   8.391  11.373   0.471  0.0657  0.2678 -0.1410
 2641W        W21495  18.337  15.595   0.750 -0.0541 -0.0546  0.0360
 2642W        W21496   8.942   5.015   1.409  0.0252 -0.0967 -0.1930
 2643W        W21497   8.658  16.779   1.909  0.1221 -0.0816 -0.0011
 2644W        W21498   2.143   9.267   3.550 -0.1179 -0.0916  0.0089
 2645W        W21499   3.856   4.429   0.668  0.1563  0.1538 -0.4065
 2646W        W21500   9.878  11.149   0.403 -0.0553 -0.2247  0.3505
 2647W        W21501   4.057  15.908   4.099  0.0996 -0.0180 -0.0323
 2648W        W21502  17.916   8.484   1.558 -0.0222 -0.3107 -0.1481
 2649W        W21503  17.144   0.266   3.973  0.1459 -0.2150 -0.1500
 2650W        W21504  15.528  16.851  14.417 -0.0144  0.0574  0.0820
 2651W        W21505   8.501  15.595   3.860  0.1477 -0.0017 -0.2299
 2652W        W21506  18.348   1.650   4.221  0.1613  0.1866 -0.1539
 2653W        W21507   6.788  15.853  13.544  0.1533 -0.0473 -0.1050
 2654W        W21508  18.526  10.359   4.028  0.0138  0.0764  0.1805
 2655W        W21509  15.999   9.728   2.102  0.0968  0.1798 -0.0644
 2656W        W21510  10.063  18.025  14.951 -0.0516  0.0844  0.1809
 2657W        W21511  13.289  11.751   5.177 -0.0443  0.2327 -0.0938
 2658W        W21512   6.112   5.538  15.431  0.3381  0.1173 -0.1507
 2659W        W21513   3.129  17.346  14.184 -0.1454  0.2455  0.2361
 2660W        W21514   8.588   1.652   0.029 -0.3076 -0.2526  0.0404
 2661W        W21515   5.585   0.215   2.219  0.1319  0.0939  0.2266
 2662W        W21516  12.323   1.700   2.353  0.0598  0.1589  0.3107
 2663W        W21517   2.465  13.535  12.687  0.0928 -0.0986 -0.0958
 2664W        W21518   0.694  16.493   0.966  0.0712  0.1274  0.0783
 2665W        W21519   1.101  10.793   5.730 -0.1168  0.1590 -0.0995
 2666W        W21520  13.041  17.623   4.835  0.1483 -0.0952  0.2121
 2667W        W21521   5.301   8.724   3.280  0.1593  0.1317 -0.0505
 2668W        W21522  12.765  14.998  11.600  0.0556 -0.0386  0.0626
 2669W        W21523   4.853  13.951   2.887  0.2960 -0.2812  0.0157
 2670W        W21524   1.671  10.921  14.215  0.0511  0.0118  0.2360
 2671W        W21525   8.438  14.475   3.352  0.0503 -0.1814  0.1577
 2672W        W21526  13.000  16.213   5.614  0.0126  0.2503 -0.1271
 2673W        W21527  17.134   2.453   0.857  0.0288  0.3529  0.2574
 2674W        W21528   5.208  12.272   0.050  0.0399  0.1179 -0.3198
 2675W        W21529   9.676  18.344  15.121 -0.0222 -0.2189  0.2146
 2676W        W21530  10.881   0.193   2.797  0.2175  0.0639 -0.4777
 2677W        W21531  12.419  14.463   3.589 -0.0622 -0.0684  0.2721
 2678W        W21532   3.176  10.654  13.213 -0.4260  0.0400 -0.1837
 2679W        W21533   5.260   4.397  10.952 -0.1605  0.1467  0.0078
 2680W        W21534   5.876   9.459  14.279 -0.1825 -0.0591  0.2289
 2681W        W21535  12.644   5.802   4.665  0.0550  0.1928  0.0542
 2682W        W21536  13.634  14.359  12.574  0.0135 -0.1075 -0.2782
 2683W        W21537  12.630   5.545   0.378  0.2739 -0.1234  0.0842
 2684W        W21538   1.513   3.924   2.526  0.5253 -0.2544  0.1294
 2685W        W21539   8.013   1.797   1.371  0.0856  0.0581 -0.0890
 2686W        W21540   4.880   8.841   1.521 -0.0829  0.2436  0.0484
 2687W        W21541  15.780  15.357   0.829  0.2560 -0.0088  0.2331
 2688W        W21542  12.286   7.249   3.804 -0.2201 -0.3203 -0.0598
 2689W        W21543   9.316  10.922  14.172 -0.0461  0.0331 -0.0377
 2690W        W21544  16.804   8.374  12.723 -0.1316  0.0312  0.0608
 2691W        W21545   7.725   4.177  13.597 -0.1064  0.0592 -0.0267
 2692W        W21546   7.447  17.904  14.730  0.0448 -0.0861 -0.0594
 2693W        W21547  15.792   2.560   4.366 -0.0626  0.0730 -0.2742
 2694W        W21548  16.467  11.451   0.887  0.1839  0.0972 -0.1683
 2695W        W21549   1.979  15.382   4.040 -0.0743 -0.1939 -0.0456
 2696W        W21550   4.730  16.846  14.477 -0.0829 -0.0379  0.2965
 2697W        W21551   4.594   3.793   1.480  0.1981 -0.0941  0.1614
 2698W        W21552   8.616   9.670   3.485 -0.0354  0.0210  0.3228
 2699W        W21553   3.981  13.372  13.149 -0.0498  0.1687 -0.1362
 2700W        W21554   3.673  12.268  13.797 -0.0982 -0.1011  0.0822
 2701W        W21555   5.010   9.868  12.210  0.1069  0.0230 -0.0384
 2702W        W21556  10.257  17.228   0.023  0.0711 -0.1357 -0.2563
 2703W        W21557  13.188   4.130   0.716  0.2835 -0.0328 -0.1174
 2704W        W21558  15.315   4.725   0.651 -0.2947 -0.0407 -0.0652
 2705W        W21559   2.612   9.440   3.996  0.4987 -0.3294 -0.1057
 2706W        W21560   5.012   4.105  14.200  0.0552 -0.2374 -0.1348
 2707W        W21561   4.542  14.523   2.943  0.1854  0.2521 -0.1998
 2708W        W21562   9.448   8.361   3.092 -0.0536 -0.1012  0.1690
 2709W        W21563   3.317  11.099  13.355  0.2970 -0.1806  0.0663
 2710W        W21564  11.560   7.035  11.825 -0.2471 -0.5138  0.0262
 2711W        W21565  14.861  11.176   4.226  0.1076  0.0370  0.1096
 2712W        W21566   0.993   8.411   2.813  0.0012  0.3535  0.3096
 2713W        W21567   4.215  16.393  13.948  0.3193 -0.0006 -0.0804
 2714W        W21568  18.409  17.791   2.101 -0.4491 -0.0586  0.1066
 2715W        W21569  11.518  12.578   0.080 -0.1400  0.0335 -0.0446
 2716W        W21570   1.261   5.474   0.295  0.0768 -0.0040  0.3119
 2717W        W21571  16.101   7.300  12.314 -0.1059 -0.1330  0.1785
 2718W        W21572   4.510  14.056  13.636  0.1435 -0.0810  0.0020
 2719W        W21573  11.636   5.694  11.874 -0.0679 -0.1537  0.0692
 2720W        W21574  10.737   1.255  12.134  0.1521  0.0961  0.1794
 2721W        W21575  17.397   8.382  12.879 -0.1511 -0.1254 -0.2482
 2722W        W21576  11.529   3.383  11.693 -0.1168 -0.2213  0.1163
 2723W        W21577  10.268  11.726  12.018  0.1584  0.3179  0.4511
 2724W        W21578   4.736  12.800  10.708  0.0514  0.1951  0.3454
 2725W        W21579  10.249  12.148  14.909  0.0556 -0.1812  0.0192
 2726W        W21580   1.992  10.130  13.498 -0.0387  0.2022  0.0529
 2727W        W21581  14.137   7.118   0.448  0.0557  0.0678  0.2255
 2728W        W21582  15.753  18.095  14.952  0.2123 -0.1729 -0.0354
 2729W        W21583  11.070  11.855   2.908 -0.2318 -0.1422 -0.2705
 2730W        W21584   6.079  17.324   0.096 -0.0514  0.1483 -0.3102
 2731W        W21585   0.039  10.982   1.312 -0.0720 -0.0308 -0.1663
 2732W        W21586  14.210   4.970  12.099  0.0034  0.2091  0.1831
 2733W        W21587  15.692  10.107   4.109  0.3530  0.0041 -0.2972
 2734W        W21588  10.380  16.929   4.270 -0.2284 -0.2047 -0.1530
 2735W        W21589  14.846   5.386   1.934 -0.0246  0.0520  0.1562
 2736W        W21590  10.710  16.558  13.440  0.0767 -0.4137 -0.3316
 2737W        W21591   6.313   3.875   2.770 -0.1222 -0.0865  0.0944
 2738W        W21592  15.740  12.587  13.871  0.0282  0.0796 -0.0252
 2739W        W21593   0.663  17.247   1.154 -0.0692 -0.1986  0.1691
 2740W        W21594   3.201  13.506   3.367 -0.0655 -0.1963  0.0117
 2741W        W21595  17.961   1.622  13.049  0.0102 -0.1632 -0.4230
 2742W        W21596  11.497   4.068   4.888 -0.0299 -0.0236 -0.2834
 2743W        W21597   7.478  10.824  15.284  0.2640  0.1169  0.1673
 2744W        W21598   0.394  13.455  13.805  0.0546  0.2546 -0.0175
 2745W        W21599  17.485  14.219  12.908  0.0983  0.0993  0.0553
 2746W        W21600  15.242  10.405   5.409  0.0108  0.0920 -0.0253
 2747W        W21601   9.898  13.979   4.460  0.0457  0.2869 -0.0892
 2748W        W21602   8.222   5.386   2.366  0.0682  0.0490 -0.1688
 2749W        W21603   3.024   5.876   0.081 -0.0624  0.3615  0.2589
 2750W        W21604   4.141  18.346   5.494  0.1933 -0.2181 -0.1357
 2751W        W21605  12.329  10.606  12.448  0.2823  0.1233 -0.1242
 2752W        W21606  13.665  17.722  15.423  0.0115 -0.0447 -0.2386
 2753W        W21607  11.373  17.094   3.420 -0.1329 -0.1405 -0.3563
 2754W        W21608  11.249  17.257  11.400 -0.0897 -0.1700 -0.2041
 2755W        W21609  12.164  11.369  13.267  0.1678  0.2839  0.0723
 2756W        W21610  11.047   9.407  12.727 -0.0155 -0.1117 -0.3291
 2757W        W21611  17.824   2.986  14.194  0.0472 -0.1924  0.1269
 2758W        W21612   4.563   0.602  12.843 -0.1519 -0.1092 -0.0453
 2759W        W21613   6.895   4.908  14.647  0.2718  0.0519  0.0027
 2760W        W21614   3.561   0.104   2.210 -0.0212 -0.1060 -0.0146
 2761W        W21615   4.029   4.473   2.529  0.2080  0.1432 -0.0159
 2762W        W21616   9.953   1.656   2.878  0.1273 -0.1647 -0.1225
 2763W        W21617   8.186   2.385   4.815 -0.2057 -0.1885  0.2581
 2764W        W21618  12.933   4.764  12.479 -0.0309 -0.1706  0.0507
 2765W        W21619  15.457  10.113   1.621  0.1127  0.1770  0.0735
 2766W        W21620  11.661  17.021  11.602 -0.1398 -0.1273  0.0061
 2767W        W21621   9.147   2.808   0.114  0.1671 -0.0393 -0.1244
 2768W        W21622   0.296  14.056  10.876  0.0647  0.1223  0.0956
 2769W        W21623   5.175  17.123  11.064  0.2751 -0.3447  0.0136
 2770W        W21624  14.393  17.459   2.287 -0.0641  0.2504  0.0579
 2771W        W21625  14.396   0.719  15.425  0.1258 -0.1701  0.2775
 2772W        W21626  10.629   7.454   4.135  0.0788  0.0557 -0.1572
 2773W        W21627   1.936   5.976  10.794 -0.1124  0.1643 -0.0506
 2774W        W21628   8.599   2.781   0.030  0.2190  0.0227  0.2108
 2775W        W21629  12.277   0.263  12.532  0.2836 -0.2959  0.0404
 2776W        W21630  15.318  10.558   0.384 -0.0893  0.0565  0.2514
 2777W        W21631  10.016  12.777   2.910  0.0469  0.0522 -0.0293
 2778W        W21632   9.208   9.651   3.406  0.1573  0.3754  0.0606
 2779W        W21633  10.674  15.248   4.374 -0.0647 -0.0294  0.1551
 2780W        W21634   3.083  13.374  10.513  0.2526 -0.0730  0.2013
 2781W        W21635   0.171   5.282   2.892 -0.0028 -0.1000 -0.3633
 2782W        W21636  17.582   7.276   0.383 -0.1554 -0.2207 -0.2196
 2783W        W21637  16.176  18.033   4.446 -0.0424 -0.1128 -0.1207
 2784W        W21638   3.552   4.103  12.494  0.1254  0.0049  0.0353
 2785W        W21639   6.406   8.908  12.758  0.1775  0.4331 -0.5097
 2786W        W21640   9.952  15.164   1.814 -0.4567 -0.0253  0.2004
 2787W        W21641   8.834   8.721   1.332 -0.2993 -0.0466 -0.1129
 2788W        W21642  15.173   7.787  13.678  0.0692  0.0189 -0.0123
 2789W        W21643   1.661   2.203  12.378  0.0781  0.0899  0.1423
 2790W        W21644  18.563   3.178   2.227 -0.1350 -0.0115  0.2298
 2791W        W21645  11.546   3.569   3.189  0.2292  0.0614 -0.1071
 2792W        W21646  11.215   7.687  14.188  0.2086  0.1045  0.1432
 2793W        W21647  17.678   9.761  14.486 -0.3416  0.0681  0.0072
 2794W        W21648  15.668   4.180   2.142  0.0560  0.1937  0.2105
 2795W        W21649  15.194   7.708  12.780  0.0053  0.0465 -0.1236
 2796W        W21650  15.128   0.470  11.368 -0.1028 -0.0728  0.0509
 2797W        W21651  11.708   5.137   0.703  0.3159  0.0339 -0.1962
 2798W        W21652   6.836   7.719   0.821 -0.0864  0.0914 -0.0515
 2799W        W21653   1.170   8.413  10.466 -0.0640  0.1055 -0.0519
 2800W        W21654  17.342   6.489   3.752 -0.1737  0.2807  0.2313
 2801W        W21655  15.928   4.188   3.895  0.1391  0.0182  0.0861
 2802W        W21656  17.901  13.142   2.650  0.2753 -0.0848 -0.1597
 2803W        W21657   7.975  14.022   1.656 -0.1724 -0.1719 -0.0850
 2804W        W21658  15.281  15.807  14.128  0.0196  0.1800 -0.4269
 2805W        W21659   8.608  11.047  14.549  0.1264 -0.2824 -0.0362
 2806W        W21660  12.342   5.354   3.576  0.0505 -0.2559  0.4150
 2807W        W21661   8.636   8.889   3.007  0.3357 -0.4385  0.1577
 2808W        W21662  13.145   3.023   4.546  0.1712 -0.1014 -0.0482
 2809W        W21663   9.703   4.996  13.076 -0.1219  0.1503  0.2749
 2810W        W21664   0.405  10.477  12.514  0.2741 -0.0099 -0.2772
 2811W        W21665  14.463   2.066  15.017  0.0866  0.2824 -0.0750
 2812W        W21666  17.384   0.307  14.323  0.2147 -0.0009 -0.0575
 2813W        W21667   1.750   6.667   0.141  0.2150 -0.3024 -0.2157
 2814W        W21668   0.199   3.635  11.383  0.1304  0.2078 -0.1286
 2815W        W21669   4.665   4.210  12.688  0.4385  0.0470  0.0481
 2816W        W21670   0.598   7.597   2.667 -0.0489  0.2753  0.2224
 2817W        W21671  11.193   4.451  13.625  0.0329  0.0849  0.2271
 2818W        W21672  14.606   6.005  15.376  0.2517 -0.4572 -0.3136
 2819W        W21673  18.174   8.591  12.619 -0.0693  0.0493 -0.0201
 2820W        W21674  15.896  17.478  12.068 -0.0577  0.2618  0.0294
 2821W        W21675  14.122   1.577   3.489  0.0569 -0.1072  0.2047
 2822W        W21676   6.416  14.774   0.677 -0.3716 -0.1179 -0.0416
 2823W        W21677   8.340  18.173  11.966 -0.1328  0.2736 -0.2704
 2824W        W21678  12.384   1.785  13.350  0.1817 -0.1154  0.3638
 2825W        W21679  17.074   4.201  14.215  0.1522  0.1677  0.0900
 2826W        W21680   9.833   7.329  10.923 -0.0152  0.1818  0.1089
 2827W        W21681   2.992   9.184  14.299  0.2215  0.2034 -0.4972
 2828W        W21682  17.777  15.110  12.702  0.1038 -0.0921  0.2053
 2829W        W21683   1.771  11.940   2.046  0.0247 -0.1025  0.3513
 2830W        W21684  10.828   7.604   1.221 -0.0939 -0.0257  0.0851
 2831W        W21685   5.615  17.082   4.416  0.0456  0.1543  0.1942
 2832W        W21686   6.204  11.251  13.839 -0.1366  0.0449  0.1308
 2833W        W21687   2.030   8.330   0.431 -0.1932 -0.2044  0.2020
 2834W        W21688  14.270  12.597   1.869 -0.0280 -0.0222  0.1769
 2835W        W21689  10.822  10.704   3.925 -0.0412 -0.1153 -0.2765
 2836W        W21690  11.256  13.600   3.887  0.0415  0.0093 -0.1961
 2837W        W21691   3.282   7.854   1.046  0.4114 -0.2475 -0.4127
 2838W        W21692  14.231  12.487  14.468 -0.2959  0.1015  0.2083
 2839W        W21693   6.000   1.026  13.786  0.0662 -0.3969 -0.0162
 2840W        W21694  17.943   0.133   3.625 -0.1875  0.1016  0.0982
 2841W        W21695  14.628   8.916   5.131  0.3660  0.0574  0.0647
 2842W        W21696   0.369  10.536  13.319 -0.0229  0.1360  0.1274
 2843W        W21697   9.092   4.051  11.853 -0.0387 -0.0167  0.0050
 2844W        W21698   0.727  17.892  11.298 -0.1694  0.2236  0.0454
 2845W        W21699   5.269  10.077  13.474 -0.2007 -0.2166 -0.3570
 2846W        W21700   2.861   9.137  11.016 -0.0920  0.1372 -0.0077
 2847W        W21701   5.289  13.048   3.299  0.0941  0.1587 -0.0586
 2848W        W21702  14.747   9.311  13.419 -0.0728 -0.5152  0.1088
 2849W        W21703   6.445  15.550  14.891 -0.1272  0.3292  0.0965
 2850W        W21704  14.858  10.246   4.183  0.2298 -0.1139 -0.2042
 2851W        W21705  14.359   3.966  13.234 -0.0239  0.0308 -0.2481
 2852W        W21706  14.338   8.712   1.572 -0.1810  0.1041 -0.4281
 2853W        W21707  17.530   5.874   1.636 -0.0363  0.2912 -0.3694
 2854W        W21708   6.934  16.910   4.676 -0.2874  0.0659 -0.0940
 2855W        W21709  10.933   7.364   0.721  0.0954  0.4495  0.0551
 2856W        W21710  12.014  17.622   0.676 -0.2823 -0.1148  0.0069
 2857W        W21711  15.617  10.946   0.587  0.1163  0.2578 -0.2654
 2858W        W21712  12.998   2.797   2.411 -0.0697  0.2243 -0.0222
 2859W        W21713  17.128   1.968   3.585  0.1228 -0.0895 -0.1539
 2860W        W21714   2.074   3.244   3.689 -0.2851 -0.1346 -0.1478
 2861W        W21715  18.233  18.429  11.543 -0.0427 -0.1804 -0.1305
 2862W        W21716   7.390   7.798   4.251  0.2067  0.1186 -0.0379
 2863W        W21717   3.002   5.148   0.760  0.1249  0.0605  0.0705
 2864W        W21718   6.655  11.259   2.960  0.0214 -0.0532  0.1342
 2865W        W21719   7.091  17.572   1.090 -0.0360  0.1616  0.2942
 2866W        W21720  13.721   5.703   2.801  0.0499 -0.0686  0.1633
 2867W        W21721  18.410   8.995  14.493 -0.1283  0.0411 -0.2191
 2868W        W21722   8.589   0.891  11.601  0.0616 -0.0424  0.0199
 2869W        W21723  13.450  16.462  14.856 -0.3887  0.5162  0.0716
 2870W        W21724   4.081   1.822  12.893 -0.2378  0.0556 -0.0362
 2871W        W21725  16.127  17.925   1.854  0.1359 -0.1969 -0.1116
 2872W        W21726  18.020  12.520   2.204  0.2277 -0.0315 -0.0520
 2873W        W21727  15.126  12.720  13.057 -0.0161 -0.1493 -0.0478
 2874W        W21728  17.740   3.912  14.946 -0.1729 -0.0113  0.1462
 2875W        W21729   2.385  11.105   5.587 -0.1538  0.1232 -0.2560
 2876W        W21730   2.972  11.096   2.161 -0.1173 -0.0953 -0.0336
 2877W        W21731  10.277  11.250   3.302  0.0272 -0.4269 -0.0391
 2878W        W21732  17.110  15.422   1.661  0.2813 -0.0236 -0.2056
 2879W        W21733   6.273  15.824   2.796 -0.0688 -0.0473 -0.0151
 2880W        W21734   0.317  16.216   1.085  0.0682  0.0340 -0.0684
 2881W        W21735   8.642  18.126   2.366  0.0758 -0.0498 -0.3531
 2882W        W21736  16.286   1.940   2.267  0.0322 -0.0279 -0.1543
 2883W        W21737   8.494  13.841  14.782  0.0526 -0.1359  0.1990
 2884W        W21738  11.914   6.882  13.249 -0.2177  0.0445 -0.1891
 2885W        W21739   5.037   4.923  10.221 -0.0362  0.5473 -0.0844
 2886W        W21740   8.513   0.218   2.595  0.1602  0.2648  0.1897
 2887W        W21741  16.392  17.734   2.534  0.2157  0.2078 -0.0191
 2888W        W21742  15.708  10.009   2.854  0.0184  0.2236 -0.1084
 2889W        W21743   4.296   8.748   3.730  0.1805  0.0121 -0.2209
 2890W        W21744  14.731  14.547   0.935  0.1507 -0.2838  0.0337
 2891W        W21745  14.005  12.462  13.928 -0.0972  0.0509  0.3872
 2892W        W21746   3.667   7.646  11.908 -0.1865 -0.3266  0.1430
 2893W        W21747  13.007  10.374   3.099 -0.1485 -0.1160 -0.2084
 2894W        W21748   9.461  11.970   4.406 -0.0611  0.2711 -0.1654
 2895W        W21749   0.285   9.199  14.604 -0.0418 -0.1257  0.2198
 2896W        W21750   9.123  16.965  14.424 -0.0345 -0.0113 -0.1695
 2897W        W21751  10.481   9.269  10.760 -0.0987  0.1473  0.0935
 2898W        W21752  10.754   0.063  12.042 -0.0836 -0.1512  0.1637
 2899W        W21753   9.679   4.854   1.317  0.0104 -0.2018 -0.0196
 2900W        W21754  11.585   7.616  13.377 -0.0358  0.1409  0.0318
 2901W        W21755   5.218  12.434  13.247 -0.1142  0.0367 -0.2313
 2902W        W21756   9.040   1.785  15.283 -0.2435 -0.0659  0.2248
 2903W        W21757  11.890   1.438   1.759 -0.1623 -0.2765  0.0380
 2904W        W21758   4.963  14.243  11.331 -0.1313 -0.0217 -0.1544
 2905W        W21759  12.035   6.941   4.791  0.0318  0.0160  0.1828
 2906W        W21760   7.849  13.858  14.602 -0.1773 -0.0326  0.0368
 2907W        W21761  14.771   1.392   2.332  0.0522  0.0180 -0.3066
 2908W        W21762   3.804   5.493   3.269  0.2258  0.0334  0.0366
 2909W        W21763   6.535   8.343   2.686  0.1982  0.2046 -0.3477
 2910W        W21764   8.610   6.714   2.417  0.0864 -0.0117  0.1478
 2911W        W21765   3.915  16.830  13.931 -0.0737 -0.0762  0.0450
 2912W        W21766  10.939  16.434   0.584  0.2872  0.0747 -0.6500
 2913W        W21767  13.740  16.638   2.350  0.0261  0.1417 -0.0465
 2914W        W21768   3.424   5.788  15.090 -0.3408  0.0483 -0.1347
 2915W        W21769   4.154  13.862   5.299 -0.0082 -0.3752  0.0637
 2916W        W21770  11.650   1.234  13.422  0.1008 -0.3203 -0.3275
 2917W        W21771   1.279   5.522  12.568 -0.1888 -0.3127  0.0451
 2918W        W21772   7.827   8.317  12.534 -0.0059 -0.1523  0.0618
 2919W        W21773   0.106   0.778   2.907 -0.0095 -0.1841  0.3425
 2920W        W21774   0.069   0.146  13.986  0.2688  0.0279  0.2432
 2921W        W21775   6.601   4.419  10.981  0.0522  0.2701 -0.0492
 2922W        W21776   7.348  14.921   4.073 -0.2741  0.2545  0.0462
 2923W        W21777  11.802  18.108  11.147 -0.1637  0.0380  0.0753
 2924W        W21778  17.136  11.051  11.657  0.3292 -0.0741  0.2076
 2925W        W21779   0.874   8.560   0.915 -0.0667 -0.0574  0.0021
 2926W        W21780   4.744   9.872  11.371  0.1068 -0.1682  0.0256
 2927W        W21781   6.294   4.636  11.425 -0.1560  0.0712 -0.1305
 2928W        W21782   7.261  17.445  12.865  0.2044  0.2316  0.1550
 2929W        W21783   3.958   6.094  12.695  0.0057 -0.1540 -0.0585
 2930W        W21784   6.015   2.127   1.582 -0.2116  0.0436 -0.2754
 2931W        W21785   6.398  15.940  14.539  0.1203  0.1290  0.0484
 2932W        W21786   5.685  16.360  11.969 -0.4776 -0.0043  0.0934
 2933W        W21787  15.028  17.544   2.874  0.0759 -0.0291 -0.0701
 2934W        W21788   6.988   1.772  14.434  0.2212 -0.0990  0.1257
 2935W        W21789   7.904  11.925   1.850  0.0960  0.1439  0.1533
 2936W        W21790  15.460   4.659  12.841  0.1757 -0.2252 -0.3214
 2937W        W21791  12.174   5.061  12.201 -0.1563  0.0548  0.1832
 2938W        W21792  13.244   0.586  12.983 -0.1339  0.0420 -0.0320
 2939W        W21793   9.632   1.956   3.771  0.1857 -0.0666 -0.0437
 2940W        W21794  15.278   7.590  14.602 -0.0722 -0.0487  0.2122
 2941W        W21795   7.652  17.742  15.183 -0.2828  0.0395  0.0005
 2942W        W21796  11.892   3.599   1.355  0.0798  0.0053  0.1322
 2943W        W21797   1.051   7.680  14.177  0.0563  0.0934  0.2858
 2944W        W21798  18.016  11.303   4.176 -0.1400  0.0964 -0.1988
 2945W        W21799   5.861  11.710   1.777  0.3158  0.0809  0.0119
 2946W        W21800  16.221   1.178  14.480 -0.1288  0.4338 -0.1424
 2947W        W21801  16.426   3.140  12.354  0.1037 -0.0144  0.2148
 2948W        W21802   8.271   0.911   2.100 -0.1212 -0.0604 -0.2516
 2949W        W21803  10.877   8.452   0.419  0.1137 -0.0235 -0.1577
 2950W        W21804  10.550  18.391  13.597 -0.1504 -0.2506  0.0892
 2951W        W21805  12.059   6.379  12.547 -0.0110  0.1447 -0.0288
 2952W        W21806   5.111   4.202  13.105  0.2669 -0.1476  0.5022
 2953W        W21807   6.952  14.650   0.425  0.1828  0.0002 -0.1220
 2954W        W21808  17.584   0.835  13.620 -0.2542  0.5282 -0.3211
 2955W        W21809   2.515   1.809  14.766  0.1506  0.3726  0.0999
 2956W        W21810  12.623  15.471  13.804 -0.0013 -0.0771 -0.0203
 2957W        W21811  18.360   6.419  13.714  0.1197 -0.0861 -0.3169
 2958W        W21812   1.817   8.802  12.906  0.0731  0.0456  0.2093
 2959W        W21813   8.241  13.322   3.038  0.0153  0.0099 -0.2411
 2960W        W21814   7.165   0.695   3.488 -0.0456  0.1676  0.1727
 2961W        W21815   1.371  15.227  11.964 -0.2508  0.1875 -0.0704
 2962W        W21816  12.471   0.298  10.391 -0.0253 -0.3010  0.0082
 2963W        W21817   9.073   6.315   2.992 -0.2256  0.1188 -0.0259
 2964W        W21818   8.398  14.521  15.362 -0.4735 -0.1217  0.1114
 2965W        W21819  13.929  13.526  10.067  0.1256 -0.1405  0.1219
 2966W        W21820  13.994   0.111  11.994  0.0395 -0.0009 -0.0164
 2967W        W21821  16.061  16.537   4.318  0.4369  0.0802  0.0532
 2968W        W21822  11.417   3.097  12.303  0.1513  0.1654  0.1715
 2969W        W21823  18.444   6.698  11.495  0.0729  0.1583 -0.1389
 2970W        W21824  10.614  16.320  12.921  0.2427 -0.0269 -0.2568
 2971W        W21825   2.912   3.530   3.622 -0.0349 -0.2059 -0.1216
 2972W        W21826  11.659   1.727   3.627 -0.1650 -0.0377  0.0937
 2973W        W21827   7.427  10.226   0.055 -0.0435 -0.1730 -0.0790
 2974W        W21828  14.038  11.307   4.000 -0.2443  0.2482 -0.1254
 2975W        W21829   9.374   1.653  12.574  0.1869  0.1970  0.1514
 2976W        W21830   4.790   1.351  15.417 -0.3253 -0.0913  0.2102
 2977W        W21831   8.744  12.461  15.179  0.3734  0.0302 -0.0066
 2978W        W21832  13.222  10.716  11.876 -0.2222  0.0882 -0.1637
 2979W        W21833   6.758   5.153   3.448 -0.2321 -0.0075 -0.1509
 2980W        W21834   8.403  13.718   0.973 -0.0624  0.2648 -0.0252
 2981W        W21835   8.332  14.105   0.205  0.3015  0.1787 -0.3863
 2982W        W21836  14.567  12.344   1.508 -0.0286 -0.1708  0.1117
 2983W        W21837  10.811  12.410  12.237  0.1835  0.0898 -0.2769
 2984W        W21838  11.796  14.399   1.771  0.3166 -0.0581 -0.0926
 2985W        W21839  16.424   2.629  12.432 -0.0042 -0.0371  0.0548
 2986W        W21840  11.661   7.559  14.605  0.1206 -0.0325  0.0609
 2987W        W21841   1.904  15.589  11.254  0.1772 -0.1509  0.1454
 2988W        W21842   6.885   1.086  13.843  0.1331 -0.1631 -0.1341
 2989W        W21843   0.621  11.162  12.083  0.1448 -0.0495 -0.2459
 2990W        W21844  17.892   3.420   4.315  0.0124 -0.0479 -0.0613
 2991W        W21845  15.050   7.220  12.835 -0.1866 -0.1342 -0.1526
 2992W        W21846  17.066   3.790   3.659 -0.1033 -0.0236  0.0268
 2993W        W21847  17.458  12.219   5.456 -0.0414  0.1982 -0.1093
 2994W        W21848   9.240  10.382  11.263 -0.0614  0.1167  0.2339
 2995W        W21849  12.114   7.352  14.576  0.0662  0.0492 -0.0475
 2996W        W21850   0.057  14.688   3.711 -0.2562  0.2099 -0.2034
 2997W        W21851   1.193   6.918  11.516  0.0395  0.0709  0.1514
 2998W        W21852  14.527  14.433   4.475 -0.1418 -0.0406  0.0511
 2999W        W21853   0.920  11.372   3.792  0.2170  0.1410 -0.0263
 3000W        W21854   2.143   6.817  14.282  0.0913 -0.3001 -0.3721
 3001W        W21855  10.436   2.105   4.289 -0.0301  0.1832  0.0964
 3002W        W21856  17.700  18.490  14.097 -0.1010 -0.0785 -0.0646
 3003W        W21857   5.200  12.311   0.550  0.0964  0.2985  0.0484
 3004W        W21858   8.758   5.317   0.418  0.0355 -0.0770 -0.2235
 3005W        W21859  17.291   5.444   2.856 -0.0426  0.0551  0.1661
 3006W        W21860   9.948  11.832  14.687 -0.0270 -0.0362  0.1877
 3007W        W21861  11.721   7.584  11.156  0.1160 -0.0026  0.1963
 3008W        W21862  15.639   9.272   0.996 -0.1087  0.1843  0.0036
 3009W        W21863   1.086   6.419   1.294 -0.0514 -0.2421 -0.0450
 3010W        W21864  10.711  15.079  15.352 -0.5004 -0.2033  0.3057
 3011W        W21865   4.959  18.398  13.073 -0.1882 -0.0938 -0.1983
 3012W        W21866  11.395   0.966   3.088 -0.0648  0.0738 -0.0457
 3013W        W21867  11.764   6.851   1.720  0.0769  0.1849  0.0920
 3014W        W21868  17.089   0.443  15.022  0.2653 -0.1371  0.0148
 3015W        W21869   1.884  16.188  14.047  0.0887  0.0093 -0.2910
 3016W        W21870   9.229  15.109   0.295  0.2321  0.0023  0.1510
 3017W        W21871   8.288  17.221  14.897  0.1445 -0.1828 -0.1531
 3018W        W21872   2.182   7.811   0.426 -0.2117 -0.2167 -0.1052
 3019W        W21873   9.398   2.348   1.839 -0.2846 -0.2062 -0.2306
 3020W        W21874  13.511   0.158  12.812  0.0025 -0.4244 -0.0717
 3021W        W21875   8.138   2.678  10.782  0.0667 -0.1383 -0.0404
 3022W        W21876   9.404  11.570  13.175  0.0996 -0.0586  0.0503
 3023W        W21877   4.692   3.207  12.122  0.1856 -0.2347 -0.3271
 3024W        W21878  10.951  12.670   2.354 -0.0734 -0.0149 -0.0964
 3025W        W21879  16.737  16.183   2.957 -0.1582  0.1450 -0.0850
 3026W        W21880   0.145   4.242   2.277 -0.0410  0.0433  0.2972
 3027W        W21881  16.568   0.553   0.760  0.1929  0.0454  0.0835
 3028W        W21882   4.237  10.576   1.149  0.1315  0.0849 -0.0326
 3029W        W21883   7.259  13.800  14.455 -0.0634 -0.3062 -0.0079
 3030W        W21884   7.430  10.029   0.547  0.1122  0.1548  0.0713
 3031W        W21885  15.223   3.498   0.232  0.0142  0.2966  0.0787
 3032W        W21886   1.439  14.769   1.627  0.0091  0.0589  0.0071
 3033W        W21887  16.223  16.278  13.222  0.1074  0.0358  0.0200
 3034W        W21888   1.429   7.931  12.273  0.0675  0.3826 -0.2399
 3035W        W21889  17.335  13.399   3.545 -0.1678 -0.1413  0.4075
 3036W        W21890   0.528   6.913  10.270 -0.0560  0.3493 -0.2184
 3037W        W21891  10.038  16.126  13.280  0.0677 -0.2888  0.0870
 3038W        W21892  15.273   0.175  15.219  0.1100 -0.3514 -0.0810
 3039W        W21893  15.065  16.718  14.523 -0.1012 -0.1464 -0.3265
 3040W        W21894  15.659   5.992  12.296  0.0415 -0.2525 -0.1889
 3041W        W21895   9.314   7.093  12.233 -0.1957 -0.2790 -0.0239
 3042W        W21896   3.206  15.887   1.965 -0.0434  0.0466 -0.2262
 3043W        W21897   4.822  12.739  13.008  0.0828  0.4037  0.1280
 3044W        W21898  12.752  14.920   3.630  0.0768  0.0966 -0.0443
 3045W        W21899   9.274  14.794  14.008 -0.1306  0.1150  0.1042
 3046W        W21900   7.937   9.315  13.478 -0.0293  0.1807 -0.2985
 3047W        W21901  10.959   7.891  13.739 -0.1845 -0.0193  0.2962
 3048W        W21902   2.498  11.351   1.935  0.0531  0.1476  0.2123
 3049W        W21903   5.417  12.706   3.894 -0.2943 -0.0554 -0.0719
 3050W        W21904   4.270   8.869  11.735 -0.0074 -0.0253  0.1421
 3051W        W21905   2.588  17.873   0.162  0.0593  0.0272  0.2193
 3052W        W21906  15.608   0.582  15.186  0.0436 -0.1113 -0.0763
 3053W        W21907  13.330  11.966   0.057 -0.2425  0.0144  0.0942
 3054W        W21908  12.561   6.216   2.743 -0.2579  0.1664 -0.0693
 3055W        W21909  17.808   6.363   3.494  0.2558  0.0366 -0.1520
 3056W        W21910  15.658  17.203   3.536 -0.4952 -0.2034  0.0141
 3057W        W21911  15.495   4.246  13.159 -0.2742  0.2876  0.0412
 3058W        W21912  16.575  12.010  11.699 -0.1501  0.1686 -0.0615
 3059W        W21913   0.643   2.862  13.435 -0.2585  0.0038 -0.3063
 3060W        W21914  17.027   4.147   2.318 -0.1000  0.1576 -0.0822
 3061W        W21915  10.171   5.033   0.427 -0.0164 -0.3082  0.0263
 3062W        W21916   1.306   3.066  11.272  0.1254 -0.1531  0.3388
 3063W        W21917   1.100  11.335   0.364 -0.3179  0.1189  0.0238
 3064W        W21918   6.425   3.345   0.227 -0.0691  0.2462  0.2080
 3065W        W21919  18.078  15.868  12.186 -0.0486 -0.2733  0.0372
 3066W        W21920  17.301   7.408   1.264  0.0459  0.0556 -0.0988
 3067W        W21921   1.235  11.856  14.115 -0.1973  0.3096  0.1913
 3068W        W21922   9.811   3.443   2.413 -0.0158  0.2541  0.1964
 3069W        W21923  13.268  15.598  11.941 -0.1296  0.3156  0.1195
 3070W        W21924   6.346  11.974  14.729  0.1782  0.1457 -0.1105
 3071W        W21925   7.638   8.873   3.860  0.1375 -0.1351  0.1296
 3072W        W21926   9.310   8.095   0.135  0.0117 -0.1767  0.3308
 3073W        W21927   9.501   8.864  11.680  0.2176 -0.1560 -0.0509
 3074W        W21928   5.919   7.145  12.537  0.0466 -0.0050  0.2168
 3075W        W21929   8.766   0.847  12.772 -0.1366 -0.1130  0.1989
 3076W        W21930  15.514  14.308   0.459 -0.2186  0.0051 -0.0291
 3077W        W21931   9.882   6.190  12.831 -0.0572  0.1406  0.0074
 3078W        W21932  17.486  16.192   1.961  0.0441  0.2298  0.0648
 3079W        W21933  17.080  13.782  12.954  0.1276 -0.4287  0.1192
 3080W        W21934   4.988   5.485  14.198 -0.2012  0.1327 -0.2349
 3081W        W21935   4.016   4.867  14.704  0.0080  0.0153 -0.3196
 3082W        W21936  17.755  13.815   0.620 -0.1645 -0.0069  0.3051
 3083W        W21937  10.670   7.146   4.875  0.2177  0.0539 -0.0673
 3084W        W21938  13.889   4.121   5.438 -0.2051  0.1232 -0.0025
 3085W        W21939   2.827   0.216  13.442 -0.5046 -0.0119 -0.1344
 3086W        W21940   3.374   9.000   4.200  0.0417 -0.2474  0.0988
 3087W        W21941  17.053   6.820  11.058 -0.4252  0.3388 -0.2563
 3088W        W21942   9.982  14.908  11.933  0.3200 -0.1347  0.1224
 3089W        W21943   3.176  17.593  12.106  0.0281  0.0117 -0.1645
 3090W        W21944  17.205  16.063  14.387 -0.1537 -0.0468 -0.1023
 3091W        W21945  18.076  14.574  15.336  0.0183 -0.2118 -0.1036
 3092W        W21946   9.059   0.313  12.168 -0.3445 -0.0122 -0.1175
 3093W        W21947   9.687   2.674   3.602 -0.0263  0.0052  0.1645
 3094W        W21948   0.540  12.646   3.576 -0.0975  0.0638  0.1323
 3095W        W21949   7.348   7.643  13.698 -0.0031 -0.2810  0.1737
 3096W        W21950   4.034  17.011  13.422  0.1302  0.1178  0.2395
 3097W        W21951   2.733  13.248   0.524 -0.1936  0.5252 -0.0963
 3098W        W21952   0.764   4.088  13.494 -0.0539 -0.2321  0.0539
 3099W        W21953  14.829   4.730   1.627  0.0581 -0.2255  0.1509
 3100W        W21954  12.556   7.546   2.363  0.3293 -0.1578 -0.0907
 3101W        W21955  13.700   4.963   2.139 -0.0972  0.1331 -0.0545
 3102W        W21956   4.607  11.751  11.027 -0.2902 -0.2610  0.1557
 3103W        W21957  13.366   1.380  12.546 -0.0848  0.1231  0.1367
 3104W        W21958   2.757   9.838   3.230 -0.1542 -0.3108 -0.0542
 3105W        W21959   9.154  10.148  12.235  0.0336 -0.2739  0.2306
 3106W        W21960  13.088   0.168  13.161  0.0045  0.2581 -0.4375
 3107W        W21961   3.198  15.154  12.383  0.0507 -0.2064 -0.0719
 3108W        W21962  12.520  12.594   0.434  0.0028 -0.1122  0.0250
 3109W        W21963  10.900  15.590  15.152  0.3236 -0.0306 -0.0634
 3110W        W21964  12.450  13.220  14.587  0.2333 -0.1209 -0.1764
 3111W        W21965   1.690  10.585   0.775  0.0318  0.0569  0.0973
 3112W        W21966  18.442   0.578   9.938 -0.1788  0.1641  0.0021
 3113W        W21967   7.264  17.069  14.136 -0.3268  0.3514  0.0719
 3114W        W21968  18.197  14.464  14.419 -0.1526 -0.0965 -0.5094
 3115W        W21969   8.498   3.942  11.907  0.0753 -0.0799  0.1616
 3116W        W21970  10.124   0.945  13.861  0.0407 -0.0239  0.0346
 3117W        W21971   5.800  18.115   0.978 -0.1032 -0.1813 -0.2497
 3118W        W21972   9.069   6.607   4.132  0.0597  0.2850  0.1726
 3119W        W21973   2.801  14.294   3.421  0.0591  0.0964  0.2332
 3120W        W21974   2.524  16.506  15.190 -0.2413 -0.0900  0.0439
 3121W        W21975   5.896   2.696   4.081  0.0481 -0.1069  0.3264
 3122W        W21976  16.744  14.837   2.576  0.0252  0.1497 -0.0152
 3123W        W21977  14.747   1.695  14.174 -0.0289 -0.0469 -0.1314
 3124W        W21978   1.911  12.021   1.519  0.1197 -0.0566 -0.2929
 3125W        W21979  12.390  13.564  13.092 -0.0714 -0.0636 -0.0657
 3126W        W21980   0.488  16.651   2.469 -0.0211  0.2270  0.1624
 3127W        W21981  14.180  14.796   0.732  0.0810 -0.0659  0.1397
 3128W        W21982  14.931  12.756  11.984  0.0049 -0.3278 -0.2197
 3129W        W21983  13.100  14.236  11.438  0.0582 -0.3195  0.2044
 3130W        W21984   0.348  18.247  13.975  0.1192 -0.2112 -0.1165
 3131W        W21985  15.828  10.828  14.609 -0.2232  0.0181 -0.2380
 3132W        W21986   9.315   7.281   2.338  0.2308  0.1744  0.2068
 3133W        W21987   3.669  15.364   3.278  0.0553  0.0609 -0.3942
 3134W        W21988   2.914  16.570   4.420 -0.1606  0.1250 -0.2423
 3135W        W21989   4.425  15.308  13.376 -0.1658 -0.2459 -0.0284
 3136W        W21990  14.247   8.257   4.945 -0.2162  0.1295  0.0742
 3137W        W21991  12.271  15.180  13.945 -0.0762 -0.1190  0.3272
 3138W        W21992  11.068  14.673  12.535  0.2387 -0.0296  0.0687
 3139W        W21993  16.412   3.082   3.340 -0.0161  0.0319 -0.1918
 3140W        W21994   8.559   5.987  13.816  0.0621 -0.0593 -0.0137
 3141W        W21995  11.866   3.759   4.532 -0.0934 -0.0961  0.3740
 3142W        W21996   1.099  14.839  11.870  0.1346 -0.0430  0.0080
 3143W        W21997  16.621  14.740   3.871  0.0490 -0.2886 -0.0185
 3144W        W21998  16.280  11.928  10.809 -0.0206 -0.0708 -0.0243
 3145W        W21999   5.350   5.379   4.251 -0.1975 -0.0765  0.0002
 3146W        W22000  14.154  13.065   4.513 -0.0835 -0.1399  0.0291
 3147W        W22001   2.887   7.183  12.358 -0.1568  0.0220 -0.0750
 3148W        W22002   3.038   3.852  15.276  0.1644  0.1115  0.0986
 3149W        W22003   6.606  15.069  15.194 -0.3719  0.0356  0.0748
 3150W        W22004  17.195   2.743  14.045  0.0745 -0.1848  0.0477
 3151W        W22005   8.303   7.833  14.099 -0.0327 -0.2953 -0.2470
 3152W        W22006   3.375  16.074  11.990 -0.0816 -0.1982  0.4051
 3153W        W22007   9.604   2.068  14.896 -0.1755  0.0512  0.1001
 3154W        W22008   2.062   7.396   0.687  0.0995 -0.3818 -0.2273
 3155W        W22009  11.881   3.502   4.023  0.0377  0.1145  0.3469
 3156W        W22010   9.264  11.793  14.134  0.1699  0.3311  0.2255
 3157W        W22011   9.773  16.838   2.983 -0.0442  0.1244 -0.0939
 3158W        W22012  16.573   8.802  11.328 -0.3480  0.1228 -0.0660
 3159W        W22013   9.689  18.260  11.026 -0.1686 -0.3298 -0.1352
 3160W        W22014  12.440   2.702  12.284  0.0936 -0.2018 -0.0084
 3161W        W22015   6.801   4.411  11.592  0.0638 -0.3512 -0.0287
 3162W        W22016  17.706  11.536   3.635 -0.0641 -0.0204 -0.1684
 3163W        W22017   2.468   2.743  14.142  0.0199  0.1759 -0.1302
 3164W        W22018   2.122   8.610  11.627 -0.1330 -0.1403  0.0957
 3165W        W22019   9.670   1.885   1.846  0.1008  0.3274 -0.0411
 3166W        W22020   7.212   8.489   5.661  0.0134 -0.3538 -0.1087
 3167W        W22021   3.162  16.665  13.215 -0.1677  0.3939 -0.3692
 3168W        W22022   3.228   7.816  14.049 -0.1427  0.2539  0.2249
 3169W        W22023   6.547   4.380   2.598  0.1017  0.1446  0.1474
 3170W        W22024   5.328  14.413   0.099  0.0378  0.0997 -0.0508
 3171W        W22025  16.118  12.126  11.847  0.0230 -0.0502  0.2700
 3172W        W22026  18.551   3.682   0.674 -0.0142 -0.2327  0.1297
 3173W        W22027  13.042  11.049   3.404 -0.3878 -0.2640  0.1549
 3174W        W22028  12.829   5.987  14.950 -0.1581 -0.0528  0.0946
 3175W        W22029   6.659   0.282  14.721  0.0557  0.2298 -0.0785
 3176W        W22030   1.027  14.923   1.206  0.0167  0.3492  0.1568
 3177W        W22031  13.276  13.763  14.317 -0.0090  0.0681  0.1666
 3178W        W22032   6.399  17.519   0.435  0.1655 -0.0870 -0.0469
 3179W        W22033  16.381  14.266   1.850 -0.1867  0.0246  0.1424
 3180W        W22034  13.366  17.444   3.065  0.1217 -0.0616  0.0412
 3181W        W22035  13.384   7.031   3.011 -0.1272  0.2497 -0.2757
 3182W        W22036  11.020  16.636  14.301 -0.3170  0.2048  0.0438
 3183W        W22037  17.879  17.229   3.493 -0.3552  0.0039  0.0756
 3184W        W22038   8.522  17.118  12.382 -0.2306 -0.1389  0.1295
 3185W        W22039   5.481  15.788   2.239 -0.1705 -0.0833 -0.0317
 3186W        W22040  10.428   0.044   2.638  0.0241  0.0052  0.1274
 3187W        W22041  15.218   4.920   3.310  0.0861  0.0859 -0.2400
 3188W        W22042   7.921  12.663  13.865 -0.2083 -0.2000 -0.0792
 3189W        W22043  11.988  12.665  12.073  0.0458  0.0392  0.2421
 3190W        W22044   0.968   1.662   3.758 -0.3194  0.2651  0.1425
 3191W        W22045  10.767  16.015  11.967 -0.1012  0.0717  0.0129
 3192W        W22046   3.308   1.445  15.131  0.0514  0.1294 -0.2507
 3193W        W22047   1.485   1.217   3.335  0.5020  0.0412  0.0614
 3194W        W22048   3.774  14.114   1.907  0.0778 -0.0912  0.0352
 3195W        W22049  13.490   9.562   3.114 -0.1813 -0.1862 -0.1527
 3196W        W22050   7.482   7.585  11.188 -0.1579 -0.0452 -0.0228
 3197W        W22051   9.943   4.516   0.433  0.1557 -0.1696  0.2013
 3198W        W22052  18.492   3.429  12.680 -0.0448 -0.0647  0.0030
 3199W        W22053   2.285  17.353  11.583 -0.1617  0.2133 -0.0020
 3200W        W22054   6.570  10.260   1.814  0.2985  0.0991  0.2228
 3201W        W22055   8.803  16.141   3.130  0.0042 -0.2897 -0.0483
 3202W        W22056  17.851  12.711  13.210  0.1687 -0.1294 -0.3073
 3203W        W22057   6.152  14.065  14.290 -0.1773 -0.2355  0.0342
 3204W        W22058   4.756   2.467   2.546  0.3875 -0.0509  0.0726
 3205W        W22059   1.194   9.666  11.946  0.0903  0.2258  0.1755
 3206W        W22060  13.371  10.980   5.287 -0.2422  0.1963 -0.0000
 3207W        W22061  12.940   9.821  13.905  0.1450 -0.0040  0.2660
 3208W        W22062  16.995  12.113  14.062  0.1982  0.3453 -0.3094
 3209W        W22063   3.747  14.545   3.575  0.1052  0.1267 -0.1994
 3210W        W22064   2.993   2.263  12.006 -0.2111 -0.0880  0.1911
 3211W        W22065   9.423  18.071  13.966  0.1852 -0.1854  0.0710
 3212W        W22066  17.285   7.867   1.469  0.2423  0.2409  0.2829
 3213W        W22067   1.567  17.870  14.606  0.0019  0.0628  0.0678
 3214W        W22068   6.407  16.021  11.271  0.0874  0.0458  0.1223
 3215W        W22069   1.624   0.684  14.806  0.1078  0.2323  0.0667
 3216W        W22070   0.089  12.810   3.224  0.3071 -0.1002 -0.0345
 3217W        W22071   3.052  15.122  13.680  0.0020  0.0893  0.0180
 3218W        W22072  16.884   1.639   2.921 -0.0162  0.0940  0.2814
 3219W        W22073  14.932   7.933  13.242  0.0663 -0.2505  0.3573
 3220W        W22074  15.840  11.873  13.041 -0.0200  0.0245 -0.0796
 3221W        W22075  12.337   2.875   0.397  0.0711  0.0446  0.0638
 3222W        W22076  13.437  12.502   0.142  0.0790 -0.0930  0.1213
 3223W        W22077   5.078   6.571  12.608 -0.4596  0.2883  0.1671
 3224W        W22078  17.737   1.239  12.359  0.1473 -0.2730 -0.2250
 3225W        W22079  13.219   4.271   4.530  0.0008 -0.1891 -0.3383
 3226W        W22080  13.297  12.383   1.823  0.4036  0.1503 -0.1178
 3227W        W22081   7.892   4.748  11.685 -0.0295  0.2247 -0.1339
 3228W        W22082  10.722   5.722  11.295  0.4119 -0.1034 -0.2143
 3229W        W22083   7.545  16.674   3.403  0.1710  0.0604 -0.1269
 3230W        W22084  16.648  12.283   3.268  0.3995  0.1735  0.2356
 3231W        W22085   7.433  17.134  13.602  0.0981  0.0767 -0.1883
 3232W        W22086  13.506  13.240  14.506 -0.1369  0.3077  0.0517
 3233W        W22087   8.928  10.669   2.112  0.1389  0.1549  0.2076
 3234W        W22088   2.644   3.149  13.097 -0.0810  0.1041  0.0964
 3235W        W22089  10.988   5.989  15.257 -0.1041  0.0181 -0.3131
 3236W        W22090   7.870   8.927  12.661  0.1816  0.1359  0.0114
 3237W        W22091   4.983  15.711  14.273 -0.1891  0.0754  0.2988
 3238W        W22092   7.306   6.828   4.346  0.2254 -0.0593  0.0388
 3239W        W22093   7.448  11.816   2.614 -0.1544  0.3160  0.1138
 3240W        W22094   0.890   3.055   3.347  0.0039 -0.2959  0.4236
 3241W        W22095   4.371   4.896   1.320 -0.4513 -0.1523  0.3368
 3242W        W22096   5.645  11.452  12.980  0.2659 -0.2018  0.2504
 3243W        W22097  13.045  15.467   2.668 -0.1261  0.0740 -0.1231
 3244W        W22098  14.041  14.595  12.828 -0.1512  0.1036  0.2129
 3245W        W22099   1.977  13.910   0.644 -0.0916 -0.2375  0.0986
 3246W        W22100  15.065   2.828   2.542  0.1657 -0.2406 -0.0264
 3247W        W22101  18.052   0.446   4.678 -0.0873 -0.0888 -0.0019
 3248W        W22102   9.169  14.221   1.236 -0.3765 -0.0894 -0.1751
 3249W        W22103  16.528   5.102  11.578  0.3238  0.0156  0.2073
 3250W        W22104  16.107  14.162   0.100 -0.0631 -0.0845 -0.1114
 3251W        W22105  17.018  17.863   2.905 -0.0890 -0.2993 -0.1480
 3252W        W22106  16.909  15.933   3.372  0.1106 -0.1593 -0.0575
 3253W        W22107   0.126   9.003   4.390 -0.0252 -0.2656  0.2505
 3254W        W22108   4.296  18.368  12.866  0.0141 -0.2080 -0.1426
 3255W        W22109   3.364   5.634  13.384  0.2461 -0.0557 -0.3126
 3256W        W22110  18.030   4.008   0.038  0.0398  0.0152  0.3225
 3257W        W22111   3.842  10.833   1.477 -0.1435  0.0581 -0.0675
 3258W        W22112  10.208   0.155  13.778  0.0505 -0.0219 -0.1185
 3259W        W22113   3.613  11.871   3.668  0.0402  0.2349 -0.1734
 3260W        W22114   0.661  11.531   9.584  0.0622  0.0391 -0.2525
 3261W        W22115   0.162  13.822  11.488  0.1858 -0.0058 -0.1305
 3262W        W22116   9.022   8.848   2.295 -0.0846  0.0051 -0.2280
 3263W        W22117  15.409  13.317  14.256  0.1481 -0.1262  0.2176
 3264W        W22118  14.328   2.795   1.207  0.0812  0.0283  0.3110
 3265W        W22119   7.219  16.552  12.983  0.2975  0.1415 -0.0381
 3266W        W22120  10.168   2.500  13.749 -0.2503 -0.0587 -0.1273
 3267W        W22121  18.517  12.533   5.089 -0.1197 -0.1637 -0.1543
 3268W        W22122  16.978  16.397   1.843  0.1695  0.1518  0.4073
 3269W        W22123  17.237  15.311   2.154  0.1260 -0.2141  0.3914
 3270W        W22124  17.536  13.091   4.039 -0.0420  0.1150 -0.1245
 3271W        W22125   9.595   3.938  11.777  0.1410  0.0435 -0.0351
 3272W        W22126   6.134   7.633   2.958 -0.3403 -0.1200  0.0508
 3273W        W22127  15.342   3.993   1.840 -0.1576  0.2917  0.1376
 3274W        W22128   0.031  16.758  13.046 -0.2989 -0.1089  0.1894
 3275W        W22129  16.750  11.284   0.257 -0.2618  0.1709  0.0477
 3276W        W22130  10.381   0.867   0.922  0.1496 -0.1877  0.1477
 3277W        W22131   9.463   1.173  13.305  0.0824 -0.1145 -0.1239
 3278W        W22132   8.389   1.872   2.760  0.4788 -0.2864  0.0157
 3279W        W22133   5.019  12.879  13.497 -0.0329 -0.5024  0.1153
 3280W        W22134   1.811   8.698  15.372 -0.0200 -0.2011  0.0182
 3281W        W22135  15.781   2.871  13.186  0.1282 -0.2604  0.1541
 3282W        W22136  15.508   0.904   3.999  0.2001 -0.0841 -0.1778
 3283W        W22137   5.269   9.835   1.452  0.0945 -0.0207  0.4918
 3284W        W22138  12.378   8.678   1.965  0.1732  0.1572  0.1047
 3285W        W22139   8.296  12.595  14.193 -0.4995  0.3072 -0.0562
 3286W        W22140   2.588  15.189   0.958  0.0160 -0.0273  0.1505
 3287W        W22141  11.671   9.736   2.677 -0.1882 -0.0414 -0.2727
 3288W        W22142   2.010  10.424  12.777  0.0643  0.2099 -0.2036
 3289W        W22143  13.810  16.937  13.378 -0.3582  0.1251 -0.0196
 3290W        W22144   6.254  13.348  13.370 -0.0184 -0.4086 -0.1517
 3291W        W22145  17.479  10.299   1.557 -0.1263  0.1915 -0.2251
 3292W        W22146   1.733   0.055  13.655  0.4395  0.0159 -0.4395
 3293W        W22147   7.878   8.484   2.821 -0.0991  0.2141  0.2661
 3294W        W22148  10.278  11.469   4.065 -0.0937 -0.2057 -0.0657
 3295W        W22149  11.810  15.740  13.606  0.0576 -0.1505 -0.2092
 3296W        W22150  15.412  11.309  12.848  0.3583 -0.0475  0.1795
 3297W        W22151   4.189   1.919  14.255  0.1344 -0.0515  0.1374
 3298W        W22152  15.772   1.658   1.688 -0.0755 -0.2453 -0.2746
 3299W        W22153  17.301   3.179  14.262  0.2720  0.1717 -0.0344
 3300W        W22154  13.345  18.241   1.662  0.0651  0.2015 -0.3095
 3301W        W22155  18.170   8.560  12.122 -0.0561  0.4759  0.0040
 3302W        W22156   5.231   3.322  12.988  0.0513  0.0118 -0.1316
 3303W        W22157   5.887   3.671   2.534 -0.0642  0.1359 -0.1130
 3304W        W22158  12.009  10.932  12.184  0.0464 -0.0327  0.4116
 3305W        W22159  16.442   1.387   4.710 -0.0856 -0.0866 -0.2981
 3306W        W22160   1.024  14.035  13.728  0.0525 -0.1144  0.6006
 3307W        W22161  10.631  16.887   0.669  0.0823 -0.0082 -0.2338
 3308W        W22162   9.743   5.088   2.988 -0.0981 -0.1781 -0.3353
 3309W        W22163  18.566  10.815  11.415 -0.1755 -0.3943 -0.3394
 3310W        W22164   0.608  17.943   1.403 -0.0312 -0.2858  0.1171
 3311W        W22165   7.251   2.789   4.505 -0.1282  0.0808 -0.2186
 3312W        W22166   5.025   1.710  12.092  0.2605 -0.1053  0.1380
 3313W        W22167   4.097  14.855   2.993 -0.2916 -0.0767  0.0712
 3314W        W22168   5.160   2.929  11.198  0.0208 -0.0719  0.1778
 3315W        W22169   7.479   7.388   0.185  0.2394 -0.1842  0.2568
 3316W        W22170  12.614   6.857   4.020 -0.2205  0.0850  0.1559
 3317W        W22171  13.468  12.456   4.365 -0.1612  0.0297  0.2965
 3318W        W22172  14.454   8.343   3.987  0.0726 -0.3062 -0.1270
 3319W        W22173  14.429   9.511   4.682  0.1538  0.0401 -0.2272
 3320W        W22174  11.901  14.052   0.898 -0.0735 -0.0567  0.0159
 3321W        W22175   4.520   5.076   0.552  0.0414 -0.1234  0.2313
 3322W        W22176   4.756  13.666  14.223 -0.2228  0.1945  0.3917
 3323W        W22177   3.634   0.147   2.697 -0.0476  0.0864  0.0892
 3324W        W22178  11.776   0.294   4.297 -0.1427 -0.1055 -0.2805
 3325W        W22179   3.627   0.358  13.541 -0.0431 -0.0102 -0.0434
 3326W        W22180   6.376   8.010   3.182  0.1188 -0.0120 -0.0515
 3327W        W22181   7.105  15.002  14.491 -0.0297  0.0072 -0.0510
 3328W        W22182   9.325  18.482   2.984  0.3233 -0.0023 -0.2415
 3329W        W22183  11.701  14.492   0.797 -0.0465 -0.0425  0.3090
 3330W        W22184  16.583  12.272  14.722  0.1925  0.4230  0.1002
 3331W        W22185   0.696   9.090   2.483 -0.0163  0.1747 -0.0204
 3332W        W22186  17.165   4.404   0.878  0.0397 -0.0658  0.1206
 3333W        W22187   8.933   1.359  14.070  0.0934  0.0108  0.0661
 3334W        W22188   5.684   6.808   3.486  0.4357  0.1794  0.1897
 3335W        W22189   1.672   4.220  13.762 -0.0275  0.0767 -0.2600
 3336W        W22190   0.899  16.776  11.958 -0.2075  0.3096 -0.1236
 3337W        W22191  11.038   7.310  14.448  0.1400 -0.2506 -0.2016
 3338W        W22192   6.773   3.615   4.800 -0.2471 -0.3023 -0.1236
 3339W        W22193  14.800  17.313  14.318  0.1067  0.1022  0.0485
 3340W        W22194  11.420   6.525  10.874  0.0179  0.0786 -0.0612
 3341W        W22195  13.938   1.385  12.756 -0.1986  0.1573 -0.0949
 3342W        W22196  12.311   4.906   1.340 -0.3359  0.0641 -0.0333
 3343W        W22197  18.451   3.182   0.430  0.1977 -0.3054 -0.2685
 3344W        W22198   6.096   2.990  13.118 -0.2777  0.2054 -0.0408
 3345W        W22199   6.322   6.479  13.198  0.0846  0.0479 -0.0583
 3346W        W22200   3.981   2.205   0.628 -0.3014 -0.1022 -0.0740
 3347W        W22201   3.452  15.925  13.975  0.4292  0.0845  0.0348
 3348W        W22202   7.497   1.560   0.405 -0.0900 -0.1102  0.3133
 3349W        W22203  14.099   7.069  12.845 -0.0101 -0.0140 -0.2534
 3350W        W22204   7.688  12.108   1.444 -0.2986  0.1386  0.0132
 3351W        W22205  13.212  16.708   1.068 -0.1162  0.0820  0.0372
 3352W        W22206  15.553  12.736  12.754  0.1470  0.0090 -0.1863
 3353W        W22207  12.717   5.460   1.787  0.1475  0.0151 -0.0281
 3354W        W22208  12.355  17.245   1.288 -0.1536 -0.1671 -0.0996
 3355W        W22209   6.169  15.698   1.313  0.0016 -0.3939  0.0316
 3356W        W22210  15.281  14.014  10.881  0.2182 -0.1335 -0.1369
 3357W        W22211   9.704   8.547   1.548 -0.2448  0.1152  0.1402
 3358W        W22212  14.554   2.981   0.048  0.0667  0.0678 -0.0890
 3359W        W22213   8.106  17.419   3.673 -0.2049  0.0125  0.0626
 3360W        W22214  10.001   0.169  14.265  0.2046 -0.0826  0.1600
 3361W        W22215  10.886  11.595   4.704 -0.1731  0.2032  0.0722
 3362W        W22216   5.358  17.066  13.624  0.1779  0.0260 -0.0119
 3363W        W22217   4.827  13.166   0.957  0.1399  0.2951  0.1937
 3364W        W22218  11.252  16.073   3.689 -0.0861  0.2519  0.2548
 3365W        W22219   6.032   6.932   5.567  0.1376 -0.2897  0.1513
 3366W        W22220  18.060   4.686   3.858  0.0196  0.0562 -0.4083
 3367W        W22221  18.148   4.773  15.351 -0.0409 -0.1512  0.0752
 3368W        W22222   5.641  11.777  13.422 -0.1203  0.1657  0.0238
 3369W        W22223  10.814   1.410  11.465  0.0627  0.0866 -0.1202
 3370W        W22224  11.793   5.477   3.919 -0.1179  0.1414  0.0537
 3371W        W22225   7.576  13.330  11.442  0.0798  0.1612 -0.0119
 3372W        W22226   5.510  16.156   0.039  0.0364 -0.0675 -0.3663
 3373W        W22227   8.994   6.214  12.497  0.1890  0.2216 -0.0016
 3374W        W22228  15.676  12.164  14.838 -0.0162  0.0780 -0.0148
 3375W        W22229   5.768  12.758  13.727  0.1148 -0.0069  0.1889
 3376W        W22230  15.924  18.458   3.061 -0.2847  0.0334 -0.0313
 3377W        W22231   8.544   9.437   2.054  0.1799  0.0760  0.1586
 3378W        W22232  18.422   7.199  11.861  0.0716  0.0898  0.2039
 3379W        W22233  16.072  11.165   0.946  0.2460 -0.2262 -0.2612
 3380W        W22234   1.482   4.807   1.867 -0.0628  0.3236  0.0918
 3381W        W22235   3.747   9.580  11.637  0.2354 -0.1570 -0.1006
 3382W        W22236   3.183   2.736  12.223  0.0329  0.0392 -0.0422
 3383W        W22237  14.906  18.498  13.965  0.2184  0.0601  0.0232
 3384W        W22238  17.459   2.657   9.712 -0.1484  0.1307  0.1951
 3385W        W22239   2.192   3.710  14.486 -0.3098 -0.0314  0.2422
 3386W        W22240  15.575   7.012   0.489  0.0171 -0.3235  0.0871
 3387W        W22241  12.351   5.999  14.770 -0.1274 -0.0472 -0.2656
 3388W        W22242  13.491  13.962   1.390  0.1772  0.0107  0.2291
 3389W        W22243   3.063   9.187  15.001 -0.3188  0.0724 -0.1791
 3390W        W22244  13.140   7.496   3.889  0.2340  0.2240 -0.0878
 3391W        W22245   1.127   4.190  10.385 -0.0493 -0.1772 -0.0094
 3392W        W22246   9.294  16.911   2.505  0.0111 -0.1174  0.0364
 3393W        W22247   4.131  18.018  12.481  0.2574  0.0709 -0.0660
 3394W        W22248   7.411  11.703  14.854  0.5011  0.0931 -0.0298
 3395W        W22249  18.040   1.418  15.431  0.0392  0.3211  0.1430
 3396W        W22250   7.814   0.897  11.449 -0.0231  0.3878  0.1552
 3397W        W22251   1.010  12.181   3.963  0.1963 -0.1219  0.0972
 3398W        W22252  18.212   6.908   2.484 -0.1010 -0.2031 -0.2244
 3399W        W22253  17.681  17.281   4.084  0.0566  0.2799 -0.1319
 3400W        W22254  11.499  10.278   0.101 -0.2503  0.2384  0.1932
 3401W        W22255   6.757  17.686  12.843  0.5003 -0.3103 -0.1171
 3402W        W22256   1.526   6.116   2.028  0.1909  0.0442 -0.3483
 3403W        W22257   2.893  15.786  12.898  0.1489  0.0716 -0.1230
 3404W        W22258  10.194  15.122  11.480  0.2182  0.1996  0.3041
 3405W        W22259   7.451  13.257  12.701  0.0576 -0.0951 -0.0176
 3406W        W22260  17.864   7.771  10.875 -0.0729 -0.2543  0.3502
 3407W        W22261  14.945   8.390   4.343  0.3771  0.3138 -0.0789
 3408W        W22262   3.836   3.359   3.132  0.1349 -0.3451  0.0550
 3409W        W22263   4.044  18.392  13.976  0.1500  0.3135 -0.0632
 3410W        W22264   4.880   7.647  11.516  0.0713  0.3060  0.0322
 3411W        W22265   0.257  16.281  11.993 -0.1101 -0.1890 -0.0130
 3412W        W22266  17.654  10.303   0.095  0.1787 -0.2603 -0.0698
 3413W        W22267  16.435   6.926  12.605  0.0500  0.0209 -0.2852
 3414W        W22268   6.087  11.140   4.171 -0.0686  0.0419 -0.0026
 3415W        W22269  16.709  12.434   9.713  0.0074  0.0775  0.2874
 3416W        W22270   1.075   5.540   3.281  0.0424 -0.3315  0.0172
 3417W        W22271  10.713  13.795   3.368  0.0826  0.1445  0.0616
 3418W        W22272   8.323  10.219  14.732  0.0870  0.2060 -0.0360
 3419W        W22273  10.571   3.447   0.149  0.0968  0.3347  0.1706
 3420W        W22274  14.969   8.229  13.638  0.1073  0.1815 -0.0307
 3421W        W22275  17.701   3.669  12.891  0.3302  0.0347  0.1618
 3422W        W22276   0.188  15.922   1.506  0.0113  0.0797 -0.3861
 3423W        W22277  11.990   8.648  14.809  0.0409 -0.1106  0.2370
 3424W        W22278  15.239   0.533   0.225 -0.3187 -0.0058 -0.2788
 3425W        W22279  10.622  11.187   2.030 -0.2036 -0.0531  0.0003
 3426W        W22280   6.171  10.568   1.652  0.2964 -0.1178  0.0101
 3427W        W22281   2.003  13.144  11.219  0.1818  0.1274 -0.0743
 3428W        W22282   3.746  10.465  13.203 -0.0171  0.3279  0.2293
 3429W        W22283   9.015   0.041   4.567  0.0395  0.0649 -0.0309
 3430W        W22284  13.686   1.342   0.167 -0.1063 -0.0841  0.1071
 3431W        W22285   8.063   7.479   3.690  0.3271 -0.0694  0.3016
 3432W        W22286   6.325  10.540  14.852  0.1312  0.0756  0.1746
 3433W        W22287   4.578  14.499  11.352 -0.0704 -0.1333 -0.0427
 3434W        W22288  15.791   1.323  14.645  0.2311  0.0149  0.0151
 3435W        W22289   5.697  11.319   2.213  0.0073 -0.2526  0.0394
 3436W        W22290   6.801  16.948  11.181  0.0213 -0.1141 -0.1717
 3437W        W22291  17.837   8.231  13.503  0.0336 -0.0804 -0.0060
 3438W        W22292   1.490   8.534  11.635  0.0450 -0.1618 -0.1712
 3439W        W22293   8.064  13.741  11.452  0.0688 -0.0569  0.1573
 3440W        W22294   2.339   3.532  15.287  0.0930  0.3187 -0.0022
 3441W        W22295  17.910   8.946  12.856 -0.0627 -0.2084 -0.0496
 3442W        W22296  11.586  10.021   3.964 -0.1774 -0.0020 -0.2591
 3443W        W22297   9.410  13.468   4.335  0.0395 -0.2084  0.0697
 3444W        W22298   8.516   9.744  11.408  0.0545  0.1372 -0.0428
 3445W        W22299   3.101   1.448   2.806 -0.0831  0.2432 -0.0330
 3446W        W22300   5.414  10.501  12.740 -0.2495  0.1972 -0.1183
 3447W        W22301  15.980   3.632   3.888 -0.0511  0.1337 -0.0377
 3448W        W22302  17.451   9.560   3.797  0.1382 -0.1607 -0.0645
 3449W        W22303  11.176  10.646  14.522 -0.2126 -0.0008 -0.0129
 3450W        W22304  18.536  12.999  11.657  0.2222 -0.0812  0.2827
 3451W        W22305   1.861  10.232   3.089  0.0063 -0.0786  0.4434
 3452W        W22306   4.791   1.869   2.465  0.0267  0.1618 -0.0856
 3453W        W22307   8.017   7.425  14.202 -0.1792  0.2186  0.0314
 3454W        W22308  17.980   1.052  11.888 -0.3333 -0.1199 -0.2407
 3455W        W22309   1.837   2.586  13.145 -0.0164 -0.2404  0.0024
 3456W        W22310  13.318  15.957   0.629 -0.1153  0.0481 -0.1398
 3457W        W22311   9.464  17.512  13.128 -0.0592 -0.4849  0.1670
 3458W        W22312   5.496  14.812  14.253 -0.6239  0.2116 -0.1935
 3459W        W22313  15.321  17.958   2.880 -0.0837  0.0531  0.3605
 3460W        W22314   8.614  12.770   2.663  0.2126  0.5563 -0.0545
 3461W        W22315  14.541   7.099   1.297 -0.0426 -0.0628 -0.2276
 3462W        W22316  14.340   6.930   0.026 -0.0784  0.0590  0.2352
 3463W        W22317   5.531   2.555  11.961  0.2130  0.1068 -0.1351
 3464W        W22318   4.182  17.029  15.226  0.2381 -0.1308 -0.0625
 3465W        W22319  17.146   6.940   0.456  0.1273  0.1295 -0.3931
 3466W        W22320   6.885  13.599  11.027  0.0065 -0.1395 -0.1281
 3467W        W22321  16.399   6.637   2.999  0.1220  0.0322 -0.0922
 3468W        W22322   4.774  18.391  11.782  0.1160 -0.0955 -0.2116
 3469W        W22323  16.275   7.888  12.929  0.1204 -0.1515 -0.0330
 3470W        W22324   9.727   4.987  12.294 -0.0923  0.2712  0.2114
 3471W        W22325   8.914  11.926  11.565  0.1946 -0.0745  0.1992
 3472W        W22326   1.655   1.070   3.846  0.0524  0.1949  0.0592
 3473W        W22327  10.589   1.672  11.811 -0.0912  0.0337  0.0021
 3474W        W22328  17.994   6.438  11.109  0.1148 -0.0694  0.1413
 3475W        W22329   6.329   5.158  11.403  0.4715 -0.2045  0.4135
 3476W        W22330  11.340   5.699  14.197  0.2046  0.1240 -0.2389
 3477W        W22331   1.386  15.055   3.336  0.0986  0.1329 -0.0782
 3478W        W22332  13.100   1.360  12.061 -0.0369  0.0179  0.0457
 3479W        W22333  10.913   5.157   4.264 -0.1402 -0.0976 -0.1539
 3480W        W22334   4.287   9.522   3.184  0.2238  0.1979 -0.1485
 3481W        W22335  13.159   1.493   1.784  0.0326 -0.2018  0.0952
 3482W        W22336  18.565  10.207   2.154  0.0942 -0.0900  0.1347
 3483W        W22337  11.469   7.585   4.535 -0.1880  0.0498  0.1401
 3484W        W22338  15.541  15.885   4.677 -0.4037  0.5771 -0.1251
 3485W        W22339   5.800  18.341  11.245  0.1024 -0.3024  0.2420
 3486W        W22340  11.731   9.271  15.337  0.1269 -0.1968  0.0597
 3487W        W22341   7.399  10.293  10.562 -0.2312  0.1727 -0.1618
 3488W        W22342   7.643   1.468   1.431 -0.1375 -0.0093 -0.2498
 3489W        W22343   5.197   3.408  14.731 -0.2454 -0.0202 -0.1562
 3490W        W22344   0.419  16.107   1.896  0.1682 -0.0528  0.0339
 3491W        W22345   1.614  17.370  12.017 -0.0248 -0.1449  0.2531
 3492W        W22346   7.027   6.187  12.582 -0.0832 -0.0873  0.2417
 3493W        W22347  15.947   7.542  13.198  0.2529  0.1781  0.2166
 3494W        W22348   3.646   7.598  11.380 -0.1089  0.2112 -0.1880
 3495W        W22349   0.249   6.567  10.641  0.2195  0.0335  0.3149
 3496W        W22350   1.522  13.771   0.828  0.0972 -0.0096 -0.1916
 3497W        W22351  12.448   8.897  14.690  0.1785 -0.2616  0.2363
 3498W        W22352   0.182   4.460   4.240  0.0225 -0.0868  0.0426
 3499W        W22353  17.516   1.661  12.181 -0.0705  0.0845  0.1100
 3500W        W22354   6.820   4.691   3.638  0.2061  0.1181  0.2344
 3501W        W22355  18.379   9.841   3.831 -0.1046 -0.2531 -0.0988
 3502W        W22356   9.340   5.683   1.744  0.0051  0.3078  0.2953
 3503W        W22357  13.464  15.495  12.756 -0.2104 -0.2307  0.5056
 3504W        W22358  17.259   5.254   4.200  0.2590 -0.2104 -0.1239
 3505W        W22359  10.255   5.597   2.111  0.0854 -0.0934  0.0253
 3506W        W22360  11.596  18.529  14.512  0.2504  0.2765 -0.0692
 3507W        W22361   1.600   1.177  14.630  0.1363 -0.3601  0.1860
 3508W        W22362   5.028  15.145   4.126 -0.0175  0.1151 -0.1933
 3509W        W22363  10.380  12.193   1.838  0.1379  0.0323  0.3246
 3510W        W22364   1.566  15.935  13.738 -0.0609  0.1099 -0.1555
 3511W        W22365   9.902   1.028   1.134  0.0633  0.0745 -0.0254
 3512W        W22366  12.284  16.512   4.363  0.0181  0.0191  0.1987
 3513W        W22367  13.230   3.135   3.556 -0.2482 -0.0811 -0.0721
 3514W        W22368  16.768  17.396   2.742 -0.0729 -0.5610 -0.0959
 3515W        W22369  18.445   5.542   1.904  0.2304  0.1196 -0.2631
 3516W        W22370   5.828   5.015  14.242  0.0734  0.2393  0.0321
 3517W        W22371   6.672  14.650  13.057 -0.1984  0.0514  0.1128
 3518W        W22372   2.265   1.003  13.824 -0.2614  0.0965 -0.2053
 3519W        W22373   0.555  15.463  15.295  0.0991 -0.0452 -0.1098
 3520W        W22374   5.975   7.889   1.395  0.1198  0.0943  0.0372
 3521W        W22375  11.854  16.045  14.049 -0.3801 -0.0415 -0.0148
 3522W        W22376   5.080  16.059   0.527 -0.1252  0.3219  0.0992
 3523W        W22377  16.919  10.332   3.636 -0.2025 -0.3750 -0.1140
 3524W        W22378  13.079  14.021  12.605  0.0552 -0.0823  0.1567
 3525W        W22379  16.878   7.454   2.562 -0.4132 -0.0603 -0.1517
 3526W        W22380   1.502   5.480   4.050  0.0706  0.0685 -0.2786
 3527W        W22381   6.049  10.188   0.932  0.3031  0.0544  0.1433
 3528W        W22382   5.891   9.112   3.839  0.0858  0.2271 -0.0230
 3529W        W22383   3.650   2.114  13.919  0.1282 -0.2499  0.4789
 3530W        W22384  18.132   5.541   2.317  0.2645 -0.0360  0.1403
 3531W        W22385   3.316   2.077   0.166  0.0186  0.2069 -0.2866
 3532W        W22386   6.033   0.176   2.432 -0.1104 -0.0988  0.3238
 3533W        W22387   1.281  10.542   0.487  0.1131 -0.0816 -0.0291
 3534W        W22388  14.677  11.374  10.844 -0.0253  0.2119 -0.2835
 3535W        W22389   5.514  13.670   1.596  0.1188 -0.0753 -0.2347
 3536W        W22390  12.878   4.069  12.870  0.0462 -0.1782 -0.1446
 3537W        W22391   3.170   5.363   3.883  0.1808  0.1626  0.0564
 3538W        W22392   7.486  12.090   0.956 -0.0518  0.0729 -0.0720
 3539W        W22393   1.722   9.439  14.376 -0.0920 -0.0007  0.2360
 3540W        W22394   3.174   0.179  12.542  0.1673 -0.1185  0.0198
 3541W        W22395   1.619  16.745  14.810  0.2702 -0.0143  0.1781
 3542W        W22396   7.270  18.031   2.154 -0.1702 -0.0326  0.0375
 3543W        W22397  13.220  11.949   3.908 -0.2780 -0.3226  0.1088
 3544W        W22398  16.331   5.885   3.473  0.2807  0.0377 -0.1314
 3545W        W22399   4.316  13.675  13.939 -0.0277 -0.0598 -0.2634
 3546W        W22400   3.257  10.884   4.583 -0.2101  0.0213  0.1377
 3547W        W22401   1.499  16.174   3.762  0.1597 -0.0323  0.2811
 3548W        W22402  11.296  14.866   0.771  0.1139 -0.0585 -0.2085
 3549W        W22403   4.625   9.730  11.884 -0.0134  0.1668  0.1615
 3550W        W22404   7.192   1.016   2.624  0.1675  0.0616 -0.0718
 3551W        W22405  14.533  15.788  11.305  0.0987 -0.1891 -0.1711
 3552W        W22406   2.752  17.475  11.218 -0.1530  0.1898  0.1593
 3553W        W22407  11.515   6.752   2.676 -0.0851  0.0654 -0.1038
 3554W        W22408  16.646  10.754  12.553 -0.0969 -0.2048  0.0963
 3555W        W22409  16.698  17.179   1.220  0.1850 -0.1766  0.2334
 3556W        W22410   2.904   3.825   0.696 -0.0147  0.4155  0.2200
 3557W        W22411   2.579   4.870   0.679  0.3503  0.1260 -0.0397
 3558W        W22412  11.905   7.617   3.815  0.2456 -0.3002  0.0452
 3559W        W22413  15.650  14.893  11.768  0.3107 -0.0413  0.1322
 3560W        W22414  12.162  12.481   2.874  0.1844 -0.1422 -0.1414
 3561W        W22415   3.196  10.178   3.398 -0.0145 -0.0749 -0.0305
 3562W        W22416  11.635  14.662   0.347 -0.2262  0.1215 -0.2328
 3563W        W22417   9.594   6.565   4.893 -0.0565 -0.2637 -0.1396
 3564W        W22418  13.647   7.924  12.859 -0.0534 -0.2829  0.0725
 3565W        W22419   9.392  10.597   2.475  0.1023 -0.0212  0.0710
 3566W        W22420  12.740   1.966   0.495 -0.0774  0.4033  0.1488
 3567W        W22421  12.505   4.066  11.491  0.1681 -0.1942  0.0347
 3568W        W22422   8.655  11.698   0.113  0.2454  0.2274 -0.0067
 3569W        W22423   0.080  16.751  11.621  0.0495 -0.2156 -0.1246
 3570W        W22424   7.029  12.549  11.569  0.1167 -0.0041  0.1822
 3571W        W22425   6.852  10.607  12.278 -0.0923  0.2040 -0.0112
 3572W        W22426  17.607  14.980   4.772 -0.1310  0.0627 -0.3571
 3573W        W22427  12.911   4.138   4.086 -0.1347  0.0904 -0.1420
 3574W        W22428   1.762   1.653   2.141 -0.3941  0.1216  0.0172
 3575W        W22429   2.676  16.995  11.489  0.0553 -0.0259 -0.1296
 3576W        W22430  10.530   6.293  14.881  0.0814 -0.0017 -0.3671
 3577W        W22431  15.332   7.706   2.122  0.0685  0.2352  0.5017
 3578W        W22432   5.340   2.792   1.282  0.3040 -0.0452  0.0285
 3579W        W22433  15.077   3.117   3.526 -0.1039  0.0410 -0.0505
 3580W        W22434   7.829  13.102  10.763  0.3081 -0.2419 -0.1906
 3581W        W22435  10.413   0.360  12.238 -0.1980  0.0720 -0.0211
 3582W        W22436   9.125   6.976  15.391  0.0572 -0.3495 -0.0937
 3583W        W22437   5.599  11.189  13.828  0.1564  0.1437 -0.0648
 3584W        W22438  10.106   8.404  12.925 -0.0324 -0.0228  0.0554
 3585W        W22439   7.605  12.170   3.099 -0.2266  0.1292 -0.0703
 3586W        W22440   2.524   3.498  12.739 -0.2623  0.1662  0.0315
 3587W        W22441  18.040   4.083  10.724 -0.1254  0.4494 -0.2953
 3588W        W22442   5.458   1.204   4.303 -0.1603 -0.0765 -0.1533
 3589W        W22443  11.674   6.145  12.819 -0.0286  0.0693 -0.0701
 3590W        W22444   2.788   6.779  12.569 -0.0089 -0.0697 -0.1829
 3591W        W22445  12.908  15.614  13.306 -0.1531  0.1002  0.0907
 3592W        W22446   3.332  18.547   4.213  0.0514 -0.0272  0.1985
 3593W        W22447   0.308  12.647  12.993  0.1643 -0.4790 -0.2936
 3594W        W22448   2.279   8.178   0.837 -0.2385  0.0750  0.4158
 3595W        W22449   3.831  15.899   0.681  0.2024  0.3014 -0.0805
 3596W        W22450  11.792  11.711   3.394 -0.0109  0.4308 -0.2058
 3597W        W22451   7.978   6.044   1.874  0.0411 -0.0843 -0.1222
 3598W        W22452  17.909   2.514   2.816 -0.1803 -0.1680  0.0492
 3599W        W22453  10.472  14.521   0.543  0.0293  0.0820  0.1562
 3600W        W22454   7.707   5.812   2.679 -0.0539 -0.0126 -0.0340
 3601W        W22455  14.175  14.549  11.752 -0.3734  0.2378 -0.2777
 3602W        W22456  17.149   3.097   1.996 -0.0678 -0.1190 -0.2801
 3603W        W22457   5.272  12.559   0.971 -0.2503 -0.1405  0.1405
 3604W        W22458   2.935   7.556  13.267 -0.2061  0.4481 -0.2007
 3605W        W22459  18.483  17.946  11.627  0.2306 -0.0746  0.0521
 3606W        W22460   9.038   5.343   2.422 -0.2655  0.1322 -0.2565
 3607W        W22461   5.139   4.666   1.529 -0.3095 -0.0939 -0.1398
 3608W        W22462  16.490   6.384  14.391 -0.0518  0.0266  0.1755
 3609W        W22463  10.348  10.200   3.585 -0.0999  0.1077 -0.0896
 3610W        W22464   2.951  16.270   0.660  0.0242  0.0849  0.0080
 3611W        W22465   8.308  13.613   0.434  0.2640 -0.0928 -0.2122
 3612W        W22466   7.688   8.442   0.482 -0.4198  0.1248  0.0436
 3613W        W22467  14.127   0.591   1.512  0.0239  0.1397 -0.5455
 3614W        W22468   0.365  11.230  11.685 -0.0182  0.0257  0.1633
 3615W        W22469  12.800  14.241  12.257 -0.0916  0.1689 -0.2241
 3616W        W22470  14.447  11.443  10.423  0.2549  0.1626 -0.1626
 3617W        W22471  10.580   8.176   0.946  0.1888 -0.1301 -0.1404
 3618W        W22472  13.127  11.190   2.862 -0.0196 -0.2161  0.1562
 3619W        W22473  15.360   9.710   3.052 -0.1666  0.2908  0.1267
 3620W        W22474   7.842  18.313  13.057  0.2278 -0.0638 -0.0238
 3621W        W22475  12.121  12.998  12.983 -0.3393  0.2622 -0.3633
 3622W        W22476   0.330  10.792   0.078  0.1823  0.2753 -0.1455
 3623W        W22477   5.865  15.079   3.622  0.0706  0.3662 -0.0144
 3624W        W22478   7.505   6.039   4.856 -0.0504 -0.0687 -0.2098
 3625W        W22479   0.286   2.488   0.225 -0.0986 -0.0149 -0.1693
 3626W        W22480   9.257  10.590   0.669  0.4559 -0.0139 -0.2291
 3627W        W22481   5.021   1.263   4.572 -0.0008 -0.2263  0.1199
 3628W        W22482  10.911  10.890  14.094  0.3468  0.0102 -0.0913
 3629W        W22483   4.465  17.262   4.067 -0.0407  0.4078 -0.1969
 3630W        W22484   5.319  17.580  14.436 -0.2408 -0.0491 -0.0452
 3631W        W22485   2.625  17.244  12.803 -0.0846 -0.1652  0.3367
 3632W        W22486   0.272  14.172   2.739  0.1377 -0.1172  0.1777
 3633W        W22487   9.537  15.641  11.892 -0.0151 -0.1797  0.2357
 3634W        W22488   5.028  11.349   3.702 -0.1380  0.1254  0.0600
 3635W        W22489   3.192   7.992   4.457  0.0914 -0.2093 -0.1007
 3636W        W22490   1.220   2.139   3.616  0.3274  0.0229 -0.1708
 3637W        W22491  12.603  13.301   3.804  0.0793 -0.0110 -0.1402
 3638W        W22492   4.475  17.559  11.526 -0.3493 -0.0326  0.1843
 3639W        W22493  11.194   6.706   4.315 -0.0568  0.0440  0.1126
 3640W        W22494   5.004  12.227   4.555 -0.1798  0.2850  0.0481
 3641W        W22495  11.746  12.691   1.016 -0.2296  0.3285  0.1866
 3642W        W22496   7.966  14.864   4.868 -0.2195 -0.0645  0.1131
 3643W        W22497  13.547  18.189  14.846 -0.0150  0.0037  0.0253
 3644W        W22498   5.661  14.910   2.858  0.1453 -0.2543 -0.0719
 3645W        W22499  15.891   9.055   1.801  0.0259  0.0351 -0.0505
 3646W        W22500  15.588  18.442   2.720  0.0097  0.1202 -0.0009
 3647W        W22501   3.846   1.668   1.834  0.2011 -0.2429 -0.3763
 3648W        W22502   8.920   1.295   0.083 -0.2098  0.2231  0.0203
 3649W        W22503   2.413  13.661   0.365 -0.4716  0.1363  0.0756
 3650W        W22504  10.690  12.137   3.203 -0.3886  0.1616 -0.0882
 3651W        W22505   2.487   8.988  14.169 -0.3519  0.1358 -0.1588
 3652W        W22506  11.722   1.366  12.970  0.3293 -0.0293  0.0348
 3653W        W22507   2.382  15.184   1.427  0.1817  0.0483 -0.1161
 3654W        W22508   8.290   1.114  14.748  0.0955 -0.0386  0.0778
 3655W        W22509  18.452   8.195   1.876  0.0188  0.2178 -0.1338
 3656W        W22510  16.449   4.273  12.264  0.0231  0.1010 -0.1203
 3657W        W22511   2.155  11.851   0.233 -0.1422 -0.0879 -0.2745
 3658W        W22512   3.647   4.850  15.384  0.0255  0.3921  0.2792
 3659W        W22513   5.535  17.513   2.635  0.1512 -0.3246 -0.3720
 3660W        W22514   4.240  15.945   3.097  0.3805  0.0271  0.3712
 3661W        W22515   2.025  14.433   2.954  0.1888 -0.1137 -0.0203
 3662W        W22516   6.064  14.439   0.530 -0.2166  0.1460  0.0113
 3663W        W22517   3.267  12.476  15.123  0.2378  0.2127 -0.0539
 3664W        W22518  10.089  16.427  14.179 -0.0559 -0.2721  0.0513
 3665W        W22519   0.851   1.714   0.356 -0.1096 -0.2317 -0.2273
 3666W        W22520   0.165  17.375   1.920  0.2058 -0.0862 -0.1972
 3667W        W22521   1.423  11.432   3.952 -0.0356 -0.2542 -0.1029
 3668W        W22522  14.372   1.236  12.975  0.2045 -0.1499 -0.0211
 3669W        W22523   8.023  17.630   4.234  0.0532  0.0424 -0.1663
 3670W        W22524   5.308   7.004   1.294  0.1854  0.1040 -0.1037
 3671W        W22525  15.097  14.965  12.124 -0.0626  0.1495  0.1491
 3672W        W22526  10.344   3.865  15.124  0.2547  0.0836 -0.2256
 3673W        W22527   7.373  13.999  12.123  0.2720 -0.1712  0.3606
 3674W        W22528   1.466   4.996   4.642 -0.2121  0.0807  0.0473
 3675W        W22529  14.378   2.127  13.995 -0.2318  0.0681  0.0569
 3676W        W22530   4.486   7.298   0.836  0.1659 -0.0457  0.5373
 3677W        W22531  15.161  14.848   2.462  0.1349  0.0884  0.1698
 3678W        W22532  14.265  10.542  15.300  0.1886 -0.1816 -0.2524
 3679W        W22533   9.532  16.513   2.690 -0.3401  0.1596  0.1223
 3680W        W22534  14.637   6.243  10.575 -0.1277 -0.0280 -0.2380
 3681W        W22535  17.720   9.829   1.326  0.3345 -0.0623 -0.1741
 3682W        W22536   6.406   4.421   3.824  0.0434 -0.2203  0.1296
 3683W        W22537  12.280   3.312   2.017  0.0117 -0.0264 -0.0306
 3684W        W22538   6.177  13.900   3.891 -0.0729 -0.0871  0.0340
 3685W        W22539  14.243   8.065  11.203  0.0306  0.2250 -0.0378
 3686W        W22540   2.293   8.157  12.381 -0.3684  0.0372  0.3602
 3687W        W22541   9.348  15.361  13.765  0.0354  0.0086  0.0664
 3688W        W22542   2.749   1.245   3.104 -0.2280 -0.0631  0.0347
 3689W        W22543   4.781  10.429   2.464  0.0301 -0.2174  0.2757
 3690W        W22544  16.338   7.885   2.293 -0.0221 -0.1341 -0.3070
 3691W        W22545   6.538  15.602   0.976  0.1745 -0.2066 -0.1213
 3692W        W22546  15.357   3.757  13.329  0.0728  0.0627  0.0131
 3693W        W22547   7.345   8.057   2.324  0.1054 -0.2679 -0.0808
 3694W        W22548  13.198  10.092  12.833  0.1271 -0.0311  0.2618
 3695W        W22549   5.619  17.578   0.968 -0.0173 -0.1667  0.0593
 3696W        W22550  13.061   6.348   0.914  0.0254  0.1480 -0.0933
 3697W        W22551   9.804  17.789   2.820 -0.0072 -0.0218  0.2351
 3698W        W22552  10.362  14.846   0.945 -0.1001  0.1710 -0.4756
 3699W        W22553   9.028   7.651  13.604  0.3683 -0.0082  0.2764
 3700W        W22554  14.747   3.489   2.435  0.1188  0.2736  0.0598
 3701W        W22555  13.623   4.606   3.037  0.1702 -0.1701  0.0202
 3702W        W22556   6.886  12.103   1.702  0.1620  0.0360 -0.0266
 3703W        W22557  16.004  13.790   4.738 -0.0050 -0.0287  0.2344
 3704W        W22558  10.162   0.823  15.307  0.0786  0.0420  0.0088
 3705W        W22559   6.472  14.580  15.103 -0.0136  0.2011 -0.0392
 3706W        W22560   8.944   5.764  12.110  0.2255 -0.0614 -0.2085
 3707W        W22561   0.324  17.587  12.049  0.4287  0.1385 -0.0874
 3708W        W22562  17.581   3.180   0.067  0.0683  0.1107  0.2201
 3709W        W22563  18.137  11.433  14.077 -0.0153  0.0002 -0.0506
 3710W        W22564   0.963   6.200   2.807  0.0878 -0.1866 -0.0729
 3711W        W22565   6.376  12.163   2.540  0.1783 -0.0110  0.0787
 3712W        W22566   3.944   3.944   0.002 -0.1548  0.2956 -0.1072
 3713W        W22567   7.261   4.857  12.579  0.0959  0.0707  0.1987
 3714W        W22568  15.629  12.293   4.790  0.0639 -0.1697 -0.1344
 3715W        W22569  10.369   2.711  15.134  0.3375  0.0140 -0.0712
 3716W        W22570   2.708  13.585   3.490  0.0655  0.3329 -0.0687
 3717W        W22571   5.991  18.120  13.170  0.2649  0.3118  0.3063
 3718W        W22572   6.640   1.328  12.434  0.1957 -0.2376 -0.1927
 3719W        W22573  11.136  15.796  11.158 -0.1357 -0.1896 -0.1161
 3720W        W22574   3.383   5.084  14.547 -0.1404 -0.1792  0.0197
 3721W        W22575   2.097   9.581  13.206 -0.3024 -0.3335 -0.1209
 3722W        W22576   7.771   1.186  14.481 -0.5001  0.4140 -0.2973
 3723W        W22577   5.224   4.503   0.445  0.1581 -0.2229  0.3539
 3724W        W22578   4.035   2.758  11.167  0.0832  0.1383 -0.2935
 3725W        W22579  17.450   0.723   0.604  0.2740 -0.2848  0.4633
 3726W        W22580  17.398  12.207  14.360  0.1076  0.1673  0.2953
 3727W        W22581  15.059   3.428  15.163  0.0490  0.1434 -0.1623
 3728W        W22582  16.643   8.048   2.663 -0.1312  0.1525  0.4653
 3729W        W22583  15.699  16.249  11.296  0.1381  0.1146  0.0826
 3730W        W22584   0.074  14.868  12.853  0.2239 -0.4954  0.0833
 3731W        W22585  10.317   3.754   1.742  0.0850  0.0389  0.2214
 3732W        W22586  15.570   5.375  14.426 -0.0890  0.2091  0.0096
 3733W        W22587   1.039   2.077  11.274 -0.1700 -0.2470 -0.0467
 3734W        W22588  12.221  16.714   2.937  0.0719 -0.0070 -0.2181
 3735W        W22589   7.403   4.200   0.260 -0.1494 -0.4579  0.0136
 3736W        W22590  15.060  11.461  13.173 -0.1612  0.0830  0.0051
 3737W        W22591   9.168   5.865  13.285  0.2464 -0.0276 -0.0614
 3738W        W22592  18.452  14.265   1.773 -0.2109 -0.0924  0.0226
 3739W        W22593   2.539   9.008   3.748 -0.1748 -0.0495 -0.0095
 3740W        W22594  14.429   6.849  14.436  0.2923  0.1849  0.4043
 3741W        W22595  17.245   5.904  15.442 -0.0547 -0.3661 -0.2229
 3742W        W22596  15.620   4.460   0.113 -0.0063 -0.0601  0.0455
 3743W        W22597   3.412  11.549   0.418  0.1138  0.0308  0.0895
 3744W        W22598   0.386  14.053  14.204 -0.2152  0.1259  0.0176
 3745W        W22599   6.021  12.785  13.204  0.0591 -0.3454 -0.1659
 3746W        W22600   8.873   4.383   2.120  0.1266  0.2417  0.3388
 3747W        W22601  14.196   9.927   2.398  0.1141 -0.1012  0.0021
 3748W        W22602  14.198   7.198   0.928  0.0006 -0.2057 -0.1244
 3749W        W22603  10.730  10.860  11.494 -0.1335  0.3044  0.0539
 3750W        W22604  18.428   3.311   1.778 -0.0559  0.1771 -0.0238
 3751W        W22605   6.982   9.992   2.458  0.1891  0.0979  0.0516
 3752W        W22606   6.171   3.800   2.149  0.1575 -0.1023  0.3322
 3753W        W22607  13.773  12.815  11.277 -0.0240 -0.0848  0.1407
 3754W        W22608   3.924  16.695  10.151  0.0299  0.3417  0.3073
 3755W        W22609   3.530  13.229   3.645  0.2202 -0.0481 -0.2062
 3756W        W22610   1.263  14.734   2.214  0.0859  0.0732 -0.1308
 3757W        W22611   0.710   3.456  11.416 -0.1043  0.0646  0.0447
 3758W        W22612   5.892   2.715  14.538  0.0086 -0.4155  0.0108
 3759W        W22613   6.877   1.656   3.349  0.2780 -0.1920 -0.0862
 3760W        W22614  10.236   9.521   3.232  0.1395  0.2348 -0.1057
 3761W        W22615   8.061   1.934  13.995 -0.3046 -0.3902  0.0353
 3762W        W22616   1.038   4.642  11.001 -0.0692 -0.0826 -0.1287
 3763W        W22617  14.048   9.993  11.540 -0.0217 -0.5234 -0.0282
 3764W        W22618   0.166  14.411  11.300 -0.2493  0.1069  0.1264
 3765W        W22619  17.938   2.459   0.065 -0.1765  0.1044 -0.1103
 3766W        W22620   4.519  11.288   2.155  0.1035 -0.0968  0.0302
 3767W        W22621  12.151  12.122  12.841 -0.0174  0.1435  0.1021
 3768W        W22622   6.278  15.896  12.743 -0.0891  0.4022  0.1403
 3769W        W22623  13.117   2.740   3.273 -0.2036 -0.1601  0.0703
 3770W        W22624   7.103   3.067  12.212  0.4251 -0.2050  0.4058
 3771W        W22625   9.504  10.151  13.667  0.0348 -0.0301 -0.0293
 3772W        W22626   3.380   5.096  15.053  0.2346 -0.1355  0.0526
 3773W        W22627   2.223  12.073  10.457 -0.0198 -0.2932  0.1268
 3774W        W22628   2.172  12.754   2.464 -0.0923  0.1657 -0.2893
 3775W        W22629  10.777  14.373  11.855  0.1720 -0.0903 -0.3753
 3776W        W22630  12.270   7.690  13.987 -0.0038  0.0211 -0.0790
 3777W        W22631   9.558  14.865  15.344  0.3097  0.1749 -0.4364
 3778W        W22632   7.780  15.702  13.815  0.0824  0.1177 -0.1221
 3779W        W22633  11.490   8.634  12.623  0.2489  0.1918  0.0377
 3780W        W22634  16.097  14.499   2.723  0.0113 -0.1207  0.2120
 3781W        W22635  10.511   9.674   3.587  0.1743  0.1627  0.0725
 3782W        W22636  15.978   0.394  14.550 -0.2456  0.0942  0.1997
 3783W        W22637   0.846  14.500   2.728 -0.0845  0.3618 -0.0397
 3784W        W22638  14.080   8.092   4.469  0.1938 -0.1410  0.1159
 3785W        W22639  13.793  11.171  12.375  0.0689 -0.1915 -0.1201
 3786W        W22640   2.346  17.341   1.753  0.2202 -0.0472 -0.1372
 3787W        W22641   0.953   4.729  13.805  0.1792  0.0551  0.1149
 3788W        W22642   0.595  11.887  13.453 -0.0575  0.1345 -0.1244
 3789W        W22643  14.574  13.056  13.679 -0.1380  0.5808  0.2520
 3790W        W22644  15.442  11.817   4.715 -0.0305 -0.1799  0.1297
 3791W        W22645   6.629  13.630  15.194 -0.0818 -0.6365 -0.0009
 3792W        W22646   8.369  12.038  11.571  0.0388 -0.0879 -0.0205
 3793W        W22647   6.828   0.997  14.345 -0.1214  0.3799  0.5167
 3794W        W22648   1.966  11.841  12.160  0.1020 -0.4023 -0.0161
 3795W        W22649  16.633   0.947  14.300  0.0762  0.0888 -0.1181
 3796W        W22650  10.071   5.685  13.432 -0.0465  0.0730  0.0038
 3797W        W22651   4.474   2.885   2.639 -0.0169  0.3965 -0.3411
 3798W        W22652   6.412  18.555   0.951 -0.1069  0.0837  0.2813
 3799W        W22653   2.734  12.615   2.614 -0.0150 -0.1535  0.0911
 3800W        W22654   7.200   5.451   2.016  0.2815 -0.0078  0.0821
 3801W        W22655   4.531  12.113  14.895  0.2024  0.2818 -0.0707
 3802W        W22656   0.375  17.949   0.035  0.0225  0.0045 -0.3346
 3803W        W22657   4.352  12.387  13.749  0.2177  0.1785  0.1101
 3804W        W22658  16.552   2.362  14.195 -0.1713 -0.1307 -0.0549
 3805W        W22659   5.903   6.769  12.949  0.0829 -0.0115 -0.0669
 3806W        W22660   7.544   4.726  10.382  0.1937 -0.1246 -0.1223
 3807W        W22661   4.919  14.452  10.717 -0.0100  0.0442 -0.1808
 3808W        W22662   4.546   1.070  11.207  0.3031 -0.2599 -0.1454
 3809W        W22663  11.511   5.872   2.132 -0.0786 -0.2001 -0.0592
 3810W        W22664  11.725   8.412   0.294  0.1791  0.0767 -0.1593
 3811W        W22665   4.276   2.986   3.204 -0.0403  0.2571  0.1094
 3812W        W22666  11.985   5.935  11.523  0.0964  0.0902  0.0916
 3813W        W22667  16.291   6.578   0.189 -0.0596  0.0225  0.1309
 3814W        W22668   8.443  13.208  13.501  0.1592 -0.0002  0.1850
 3815W        W22669   3.239  11.971   3.247  0.0709  0.0990 -0.1585
 3816W        W22670   6.869   4.453   3.058 -0.2177  0.0864  0.1712
 3817W        W22671  14.698  16.664   2.418  0.1641  0.0357  0.0425
 3818W        W22672   9.039  16.046  11.283 -0.1156  0.1328  0.2456
 3819W        W22673  16.087  12.291   3.201 -0.0638 -0.1143  0.1219
 3820W        W22674   7.883   8.094   4.182  0.0129  0.0984  0.0001
 3821W        W22675  12.588  14.046   1.653 -0.1384  0.1825  0.0672
 3822W        W22676   2.899   4.254  11.662 -0.0441  0.1361 -0.0737
 3823W        W22677  14.732  10.806   2.655  0.0860 -0.2334 -0.0823
 3824W        W22678   3.337  17.627  13.378 -0.0636 -0.1319 -0.1266
 3825W        W22679   5.997   2.878   3.624 -0.2071  0.1002  0.0954
 3826W        W22680  14.319   4.787  13.029  0.2895  0.0926  0.1656
 3827W        W22681  10.082   4.305  15.003  0.1960 -0.0501 -0.1360
 3828W        W22682   8.305  13.429  15.417 -0.1666  0.4482 -0.0466
 3829W        W22683   5.955  18.131   4.214 -0.1343 -0.1588 -0.2103
 3830W        W22684   4.612  13.451   1.303 -0.1551 -0.1856 -0.1306
 3831W        W22685  15.413  15.738   3.513 -0.0288  0.1952 -0.0368
 3832W        W22686   5.993  18.048   2.528  0.2073  0.3451 -0.2355
 3833W        W22687   2.170   4.380  14.282  0.1365  0.0570 -0.1632
 3834W        W22688   5.565  12.717   2.513  0.0890  0.3674  0.1828
 3835W        W22689   7.891  13.833   1.054 -0.0740 -0.2230  0.1290
 3836W        W22690   7.904   7.503  11.466  0.1051  0.0483  0.1705
 3837W        W22691  18.336  11.197  12.263  0.3369 -0.0856  0.1263
 3838W        W22692  16.769  14.122   3.105  0.2093 -0.2253  0.1753
 3839W        W22693   3.188  11.945  11.961 -0.1135 -0.0640  0.0554
 3840W        W22694   0.174   0.299   3.357 -0.0756  0.2351 -0.0078
 3841W        W22695   0.148   2.217   0.688 -0.1091  0.2686  0.1760
 3842W        W22696   9.150  13.557  11.273 -0.0643  0.1665  0.2317
 3843W        W22697   1.173   8.540   3.325  0.1011 -0.0007 -0.2137
 3844W        W22698   3.221  14.847  11.420  0.2651  0.1932 -0.1852
 3845W        W22699   4.215  10.587   1.633 -0.2294 -0.2155  0.1206
 3846W        W22700   7.102   7.220  13.855  0.1470 -0.2434  0.2165
 3847W        W22701  15.238   0.918  13.043 -0.0941 -0.1006 -0.2246
 3848W        W22702   1.670   9.777  15.325 -0.0194  0.1779  0.2327
 3849W        W22703  10.466   1.902   0.838  0.2266  0.0285 -0.0326
 3850W        W22704  13.540  14.928  13.118 -0.0831 -0.0232  0.0635
 3851W        W22705   2.486   4.720  10.567 -0.0409 -0.3850 -0.0898
 3852W        W22706  15.950  10.481   3.189  0.0804 -0.1844 -0.1207
 3853W        W22707   3.998   9.879  12.442 -0.1657  0.2954  0.0194
 3854W        W22708  14.322   1.132  13.549 -0.2018  0.2994 -0.0627
 3855W        W22709   9.650  14.592  11.685 -0.1745  0.1155  0.0440
 3856W        W22710  14.583   0.861   1.564  0.0908  0.1301 -0.0396
 3857W        W22711  15.409   2.943   2.167  0.2301 -0.2961 -0.0509
 3858W        W22712  15.377  15.436   4.909  0.1039  0.0634 -0.3721
 3859W        W22713   2.317  12.157   1.208  0.1264 -0.4823 -0.2760
 3860W        W22714   2.631   2.130  13.074 -0.2520  0.0839  0.3176
 3861W        W22715  18.314   7.334   2.862  0.0082 -0.3971 -0.1744
 3862W        W22716   1.346   3.745  11.825  0.0159 -0.0301  0.0102
 3863W        W22717   7.961   7.484  10.368  0.1071  0.2230 -0.1304
 3864W        W22718   3.575  15.304  15.317 -0.0660  0.0112  0.3806
 3865W        W22719   5.179   7.688  13.009  0.2386 -0.1972  0.1309
 3866W        W22720   8.599   2.047  15.141 -0.1465  0.0313 -0.1537
 3867W        W22721  14.689   2.615  11.411 -0.0961 -0.1554 -0.1567
 3868W        W22722  12.289   5.369   2.278  0.0363  0.0081  0.0898
 3869W        W22723   4.086  13.187  13.633 -0.0510  0.0704 -0.1153
 3870W        W22724   9.960   6.511   0.672 -0.0025  0.2149 -0.0734
 3871W        W22725   3.706  10.819  13.614 -0.0413  0.3099  0.0619
 3872W        W22726   1.384   5.337   2.446 -0.0403 -0.0206 -0.1630
 3873W        W22727  15.411   4.209  11.025  0.1666  0.0104 -0.1442
 3874W        W22728  15.924   8.184  14.788 -0.1444 -0.1196  0.1830
 3875W        W22729   4.879   9.959  13.283 -0.1296  0.0354 -0.3672
 3876W        W22730   3.912   9.311   0.794  0.0613 -0.1942  0.3769
 3877W        W22731  10.887   1.923  11.405 -0.2582  0.0046 -0.0861
 3878W        W22732  10.427   7.730   4.456 -0.0659 -0.0189 -0.0895
 3879W        W22733  12.157   0.086   2.505  0.0021 -0.0491 -0.0040
 3880W        W22734  18.257  15.235  12.816  0.0946 -0.0116 -0.2107
 3881W        W22735   3.630   2.139   4.676 -0.0814 -0.1403  0.1184
 3882W        W22736   3.128   6.587   0.534  0.1027 -0.1027  0.1565
 3883W        W22737  18.449  10.839  13.268  0.0922  0.3023  0.0059
 3884W        W22738  10.072   3.138  12.884  0.0558  0.0730 -0.0728
 3885W        W22739   0.260   7.151  13.048  0.1338  0.0334  0.1928
 3886W        W22740  15.486  16.526  14.898 -0.1897  0.2141  0.1233
 3887W        W22741   0.642   9.675  12.044  0.0982  0.3074 -0.0437
 3888W        W22742   7.648  17.759   1.928  0.0313 -0.4342 -0.2954
 3889W        W22743  15.617   0.698  13.306  0.3544 -0.3934 -0.0335
 3890W        W22744   8.102   9.628  14.909 -0.1570  0.0191  0.1584
 3891W        W22745   2.283  11.251   1.021  0.0512  0.1180 -0.0869
 3892W        W22746   2.033  10.836   2.517 -0.1579  0.1797  0.1538
 3893W        W22747   9.962   4.713  14.033  0.0742  0.0357 -0.0770
 3894W        W22748  14.208   9.202   2.336 -0.1678  0.1568 -0.1564
 3895W        W22749  11.259   7.440  15.435  0.0961  0.1946 -0.1932
 3896W        W22750   4.712   2.426  14.952 -0.1985 -0.1774 -0.1740
 3897W        W22751   0.177  16.792  12.563 -0.1662 -0.2661 -0.1307
 3898W        W22752   0.776  10.855  14.198 -0.0571  0.1628 -0.1366
 3899W        W22753  17.389  11.416  12.566  0.2690 -0.3687  0.0630
 3900W        W22754   4.774  15.213   1.029 -0.2426  0.0634 -0.1321
 3901W        W22755   2.160   4.352  15.285 -0.0495 -0.1141 -0.1561
 3902W        W22756  13.462  10.533   2.083 -0.1205  0.2411  0.3824
 3903W        W22757  11.751  13.230   5.985  0.0032 -0.0566  0.0969
 3904W        W22758  13.758  14.639   5.443  0.2043 -0.0461  0.3127
 3905W        W22759  12.024  15.093   0.190  0.0882 -0.0736  0.2594
 3906W        W22760   0.595  14.047   1.751  0.2206  0.1735  0.2087
 3907W        W22761  11.586   4.001  12.845  0.0230 -0.4100 -0.0871
 3908W        W22762  17.468  11.820  11.300 -0.0688 -0.2748  0.1275
 3909W        W22763  14.603   0.706  14.176  0.0178 -0.0801  0.0311
 3910W        W22764  10.793   3.860  15.408 -0.3765  0.1864  0.2355
 3911W        W22765   8.385   8.506   4.867  0.0638  0.2292 -0.2321
 3912W        W22766   6.535   2.165   0.273  0.0859  0.0846 -0.0139
 3913W        W22767  15.338  15.105   0.412  0.2080  0.1397 -0.1171
 3914W        W22768   4.532   9.687   1.907 -0.4618 -0.1045 -0.0148
 3915W        W22769  14.878   4.954   2.495 -0.1059 -0.2640  0.1583
 3916W        W22770   3.973  13.605   3.521 -0.1001  0.2307  0.1189
 3917W        W22771   7.404   6.881  11.969  0.1674 -0.1862 -0.4026
 3918W        W22772  17.389   6.857   4.152  0.1331  0.1482  0.0626
 3919W        W22773  18.538   5.222  12.295 -0.1745  0.0217 -0.2087
 3920W        W22774  15.173  11.357  14.366  0.0581  0.1810 -0.4263
 3921W        W22775   9.230   1.682  13.055 -0.1168 -0.0854  0.2117
 3922W        W22776  11.065  13.326  12.235 -0.0282 -0.2552  0.2051
 3923W        W22777  17.945   1.338  14.816 -0.2944 -0.1058 -0.1098
 3924W        W22778  16.551   9.715  12.664  0.0036 -0.0545 -0.0281
 3925W        W22779   2.644   4.696  15.179 -0.0954  0.2195 -0.1578
 3926W        W22780  16.505  10.459   2.832  0.1569 -0.1473 -0.0625
 3927W        W22781  12.007  10.426   0.716 -0.2873 -0.0931 -0.1141
 3928W        W22782  13.656  10.869  11.457 -0.1082 -0.1753  0.2222
 3929W        W22783   5.752  16.055  13.778 -0.0476  0.0587  0.1011
 3930W        W22784  14.749   5.632  11.701 -0.2319 -0.2025 -0.1184
 3931W        W22785  10.260   1.935  12.246  0.1855  0.1746 -0.1670
 3932W        W22786  15.617   7.491   0.904 -0.0364  0.0167 -0.2516
 3933W        W22787  16.821  16.841  12.887 -0.0395  0.0328  0.0003
 3934W        W22788  10.571  13.244   4.797  0.3191 -0.3283 -0.1815
 3935W        W22789  13.276  18.381  15.239  0.4098  0.2130  0.4226
 3936W        W22790  15.361  15.800  13.621  0.2422  0.2683  0.2468
 3937W        W22791   8.876   2.251  11.346 -0.1648  0.0589  0.0743
 3938W        W22792   1.680   9.889   2.744  0.1348 -0.0624  0.1997
 3939W        W22793   5.998   8.090  12.540 -0.4973 -0.2107  0.0822
 3940W        W22794   4.849   7.265  14.594 -0.1742 -0.2619  0.0595
 3941W        W22795  12.170   1.309  13.444  0.2937 -0.2315  0.0926
 3942W        W22796   7.067  11.663  14.488  0.1354 -0.1723  0.0103
 3943W        W22797   6.699   8.181   0.325  0.2781 -0.1349 -0.0855
 3944W        W22798   1.893  10.242  12.000 -0.0493  0.2410 -0.1236
 3945W        W22799   9.321   2.505   2.681  0.1708  0.1161  0.0152
 3946W        W22800   5.655  11.760  15.272 -0.2166 -0.0535  0.1714
 3947W        W22801   6.082   0.326  14.570 -0.0297  0.0334 -0.0271
 3948W        W22802  10.528   7.647  14.746 -0.0971 -0.1202 -0.1098
 3949W        W22803   5.061  11.824   2.405  0.0460 -0.0422  0.1678
 3950W        W22804   3.708  17.656   1.320  0.2000 -0.1673  0.0523
 3951W        W22805   3.186   8.336  13.922  0.2437 -0.0224  0.1907
 3952W        W22806  18.169  13.864   1.622 -0.2232 -0.3249 -0.2852
 3953W        W22807   7.938   1.437   4.208  0.0452  0.2645  0.0823
 3954W        W22808   9.296   6.099   0.534  0.2311  0.0397 -0.1153
 3955W        W22809   3.237   3.625   1.318 -0.1560 -0.0583 -0.0376
 3956W        W22810  10.603   5.557   4.101  0.0621  0.0588  0.2913
 3957W        W22811   5.563   5.955   2.132  0.0183 -0.1290 -0.0212
 3958W        W22812   1.510   7.949  12.859 -0.0724  0.1135  0.0229
 3959W        W22813  10.284  17.758   4.723  0.0772  0.1202 -0.0718
 3960W        W22814   1.092   4.122   0.523  0.2145 -0.2216  0.2071
 3961W        W22815   6.733  17.834  11.060  0.0977 -0.3348 -0.2981
 3962W        W22816  11.129   1.147   2.318 -0.0869 -0.0508  0.0530
 3963W        W22817  18.421  15.496   1.239  0.0765  0.0027  0.3033
 3964W        W22818  15.088   2.968  11.662 -0.0446 -0.1003  0.0711
 3965W        W22819   6.528   5.172   0.160  0.0506  0.1373  0.0047
 3966W        W22820   4.752  11.694   3.947  0.0839  0.1427  0.0332
 3967W        W22821   4.189  16.509  15.064 -0.2209 -0.1238 -0.2738
 3968W        W22822  11.067  12.533  12.698 -0.0326 -0.2294  0.0095
 3969W        W22823  14.638   1.606  15.281 -0.2551 -0.2148 -0.0357
 3970W        W22824  17.236  10.570  14.258 -0.0338 -0.2933 -0.2050
 3971W        W22825   7.594   4.870  11.242 -0.2524  0.1879  0.1252
 3972W        W22826  17.652   8.673  15.238  0.0166 -0.0887 -0.0584
 3973W        W22827   6.469  10.737   2.002  0.0418  0.0890  0.0946
 3974W        W22828  12.787   7.695  12.467  0.1495 -0.1239  0.2871
 3975W        W22829   5.212  16.379   2.812  0.0213 -0.2556 -0.1101
 3976W        W22830  14.783   4.473   3.834  0.0241  0.0451 -0.1409
 3977W        W22831  14.715  14.671  14.706  0.0849  0.0118 -0.2199
 3978W        W22832  13.731   6.033   0.249 -0.1845  0.0417 -0.1483
 3979W        W22833  17.008   4.832   3.496  0.1222  0.2572  0.0941
 3980W        W22834  16.518  16.671   3.603  0.0757 -0.2678  0.1607
 3981W        W22835   9.165  11.380   2.913 -0.1694  0.2720  0.0641
 3982W        W22836   6.975  18.005   1.316  0.0868 -0.1255  0.2124
 3983W        W22837   3.345   6.787  14.676 -0.0192 -0.1218 -0.2007
 3984W        W22838  14.218   6.925   3.350 -0.0639  0.0561 -0.4465
 3985W        W22839   4.528   0.145  13.177  0.0098 -0.2047  0.0544
 3986W        W22840   6.379   6.838   2.963  0.0280  0.1604  0.1767
 3987W        W22841   3.666   1.527  12.005 -0.3084  0.1004 -0.0864
 3988W        W22842  13.939   1.470  11.594  0.1060 -0.1653 -0.0612
 3989W        W22843  11.304   8.210   4.538  0.0186 -0.1122  0.0230
 3990W        W22844   3.769  15.634  15.003  0.2073 -0.0651  0.1282
 3991W        W22845   8.084   7.422   5.381 -0.0878  0.0301  0.0748
 3992W        W22846   9.648   0.846  15.178  0.0874  0.0121  0.1693
 3993W        W22847  15.908   9.554  15.114  0.0668 -0.1636 -0.2794
 3994W        W22848  16.352   5.476  11.873  0.1480  0.1131  0.5215
 3995W        W22849   8.814   2.833   4.200  0.1334 -0.1217  0.0521
 3996W        W22850   7.401  10.458  11.055 -0.0080  0.2192 -0.1655
 3997W        W22851   1.586   1.666  13.411  0.0377  0.3004 -0.2237
 3998W        W22852  12.487   8.347   5.130  0.1625  0.0023 -0.0122
 3999W        W22853  16.006   8.200  12.709 -0.0118 -0.2322 -0.1905
 4000W        W22854  11.566  14.862  15.370 -0.2204  0.1629 -0.0382
 4001W        W22855  14.375   0.261   9.786 -0.1782 -0.0297 -0.2891
 4002W        W22856  12.080   2.221   4.268  0.2976 -0.0014 -0.2705
 4003W        W22857  16.130   1.797   3.577  0.0020  0.2042  0.0385
 4004W        W22858  10.357   7.172   4.470  0.3347 -0.3371 -0.1267
 4005W        W22859   5.420  12.875  11.127 -0.2293  0.2990  0.1037
 4006W        W22860   3.337   5.940   3.916  0.1381  0.0737  0.1726
 4007W        W22861   4.047  10.820   2.722  0.1224  0.0468 -0.1496
 4008W        W22862   5.089  12.594  14.322  0.0662  0.2510  0.1969
 4009W        W22863   5.828  16.604   0.834 -0.1484  0.1481 -0.2125
 4010W        W22864  15.566   0.469  12.002  0.0120  0.1733 -0.0643
 4011W        W22865   8.429  17.154   0.089 -0.2078 -0.2044  0.1495
 4012W        W22866   5.971  12.126   2.068  0.0836 -0.2998 -0.1964
 4013W        W22867  15.999   5.764  10.996 -0.1214  0.2572  0.1044
 4014W        W22868   6.186  11.823   4.504 -0.0246  0.0715  0.2286
 4015W        W22869  14.180  18.318  12.292  0.2079 -0.0355  0.2066
 4016W        W22870   1.975  16.951   0.248 -0.0083 -0.1008 -0.2861
 4017W        W22871   7.181   1.365   1.757 -0.0939 -0.2351  0.1346
 4018W        W22872  18.442  15.234   4.498  0.0984  0.2243 -0.1920
 4019W        W22873  15.759  18.010   3.153  0.3806  0.2244 -0.1477
 4020W        W22874   6.575  12.675   1.665 -0.3816  0.3494 -0.0390
 4021W        W22875  16.517   2.497  10.596 -0.4845 -0.1601  0.0200
 4022W        W22876   4.078  14.118  12.638  0.1423 -0.0904  0.2350
 4023W        W22877  15.989  10.014  13.763 -0.2965 -0.1434 -0.0471
 4024W        W22878   5.628   4.839  10.791 -0.2104 -0.2097  0.0109
 4025W        W22879  18.467   4.370  10.786 -0.2272  0.0325  0.2858
 4026W        W22880   9.990  18.036   2.459  0.0354 -0.2634  0.0699
 4027W        W22881   2.414  11.227  14.547 -0.1818 -0.1555  0.0111
 4028W        W22882   4.103   0.735  12.680 -0.1026  0.1205 -0.0982
 4029W        W22883   2.526   7.515   0.788  0.2326  0.0208  0.1290
 4030W        W22884   5.321  16.643  12.134  0.1197 -0.0483  0.0249
 4031W        W22885   2.952  15.830  13.795 -0.0937 -0.2002 -0.2055
 4032W        W22886   2.766   4.295   0.709 -0.1590  0.0527  0.2174
 4033W        W22887   8.279   4.860  15.286  0.1599 -0.0571  0.1600
 4034W        W22888   9.633  16.161  11.947 -0.0561 -0.0738  0.0519
 4035W        W22889  12.830  12.617  11.317 -0.0247  0.1136 -0.1696
 4036W        W22890   5.681  14.112   0.345  0.0589  0.1444 -0.1954
 4037W        W22891  11.826   4.421   5.021  0.1970 -0.0985  0.3302
 4038W        W22892   9.371   6.115  13.762  0.0759  0.1806 -0.0752
 4039W        W22893  17.691   6.624  14.351  0.2465 -0.1439  0.0170
 4040W        W22894  10.704  14.625   0.066  0.1682  0.1617  0.0395
 4041W        W22895  17.722  18.151  13.307  0.1506 -0.1787  0.1895
 4042W        W22896  10.643   9.546   4.061 -0.0359 -0.3125  0.2823
 4043W        W22897   8.824   6.992   3.732 -0.2075 -0.1882 -0.0065
 4044W        W22898  16.178  14.968   2.528 -0.0168 -0.0853  0.0357
 4045W        W22899  14.503  15.678  15.137 -0.3771  0.1958  0.1518
 4046W        W22900   7.357   7.003  15.257 -0.1815  0.0199 -0.0365
 4047W        W22901   9.613   6.138   2.005 -0.2169  0.0308  0.2549
 4048W        W22902   8.031   2.212  12.387  0.0240 -0.1520  0.1467
 4049W        W22903  13.012   0.027   4.427  0.0778  0.2576  0.0334
 4050W        W22904  18.356   3.480  12.205 -0.1993 -0.1802  0.0307
 4051W        W22905   9.601  18.329   2.612 -0.1370 -0.1947 -0.0853
 4052W        W22906  18.140   3.623  13.731  0.2983  0.1148  0.4264
 4053W        W22907   1.122  18.100   3.658 -0.0227  0.1332 -0.0225
 4054W        W22908   0.737  12.879   2.065  0.0206  0.1288 -0.0274
 4055W        W22909  12.035   9.967   2.422 -0.0080  0.0458 -0.0371
 4056W        W22910  15.091   8.049  11.550 -0.0962  0.0505 -0.3094
 4057W        W22911   0.077  17.410  14.226  0.1496  0.1028 -0.2696
 4058W        W22912   6.242   9.152  12.380 -0.1921  0.0637  0.1930
 4059W        W22913   1.138   4.846   2.912  0.1124 -0.0985 -0.0724
 4060W        W22914  13.357   8.449   1.781 -0.1127  0.1338 -0.0209
 4061W        W22915   0.150  14.373  14.493  0.0364 -0.1185  0.0025
 4062W        W22916   8.330  12.832   5.017 -0.0862  0.3220  0.1785
 4063W        W22917   4.543   0.153   3.125  0.2921  0.0681 -0.1305
 4064W        W22918   8.243  17.371  13.368 -0.3008  0.0490  0.0680
 4065W        W22919  13.539   9.267   0.901  0.1320  0.3298  0.3517
 4066W        W22920   6.594   1.309   4.510 -0.2888  0.5293 -0.0695
 4067W        W22921   4.545   7.841  12.275 -0.1761  0.0901 -0.1326
 4068W        W22922  14.913  15.441  15.171 -0.0903  0.0125  0.2052
 4069W        W22923  17.085   3.762   5.422 -0.0445 -0.0598 -0.0118
 4070W        W22924   4.877   9.304  15.273  0.0552  0.0746 -0.1146
 4071W        W22925   8.110   5.852   2.349  0.1421  0.0887  0.1130
 4072W        W22926  13.354  15.944   4.285  0.0720 -0.3850  0.2156
 4073W        W22927  10.698   6.660  14.522 -0.0068 -0.2223  0.0747
 4074W        W22928  18.354  17.141  14.508  0.1682 -0.0762 -0.0111
 4075W        W22929  16.768  14.984  11.550 -0.2730  0.2285  0.2992
 4076W        W22930   5.528  10.785   1.596  0.1772  0.0180  0.0181
 4077W        W22931  15.344  11.910  12.897 -0.0578  0.2124 -0.0000
 4078W        W22932  11.938  14.057   3.178  0.1526 -0.0123 -0.1329
 4079W        W22933  16.828  18.317   3.657 -0.0915 -0.2199  0.0241
 4080W        W22934  12.231  13.181   3.532 -0.0459  0.4044  0.0835
 4081W        W22935   3.854   4.444   1.519  0.1508 -0.1058  0.0820
 4082W        W22936  14.418   5.119  15.299 -0.1586  0.1302  0.1534
 4083W        W22937  15.067   8.053   1.647 -0.0441  0.1933  0.1114
 4084W        W22938   6.979  13.153   3.682  0.0967  0.0929 -0.2115
 4085W        W22939   9.591  14.269   4.785 -0.2042 -0.0330 -0.3950
 4086W        W22940   8.232   1.857  13.416 -0.2979  0.1946 -0.1419
 4087W        W22941   8.258   3.993   1.946 -0.1342 -0.3580 -0.2971
 4088W        W22942   3.795   9.967  13.478 -0.0755 -0.1102 -0.0042
 4089W        W22943  11.910  13.384  13.363  0.1903 -0.0417  0.1486
 4090W        W22944  14.038  11.920  11.178 -0.2595 -0.2034 -0.2633
 4091W        W22945   0.002   2.702  13.402  0.1869 -0.0003 -0.0858
 4092W        W22946  14.798   1.900   0.308  0.0575  0.0112 -0.1940
 4093W        W22947   1.521  17.898  13.338 -0.1327 -0.0072  0.0097
 4094W        W22948   0.501   6.658   2.731 -0.0212 -0.0503 -0.0732
 4095W        W22949   2.202  15.109   0.637  0.0177 -0.2062  0.1178
 4096W        W22950   4.703   0.037  15.233  0.0442 -0.0759  0.3167
 4097W        W22951  14.336   4.703   1.634  0.0357 -0.3986 -0.0182
 4098W        W22952  12.327  17.215  14.052 -0.0295  0.5743 -0.1815
 4099W        W22953   8.324  11.020   3.002  0.2009 -0.0387  0.2104
 4100W        W22954  11.809  15.741   4.044 -0.0342  0.0891  0.0183
 4101W        W22955  12.332  10.104   1.000  0.0448  0.2436 -0.1575
 4102W        W22956   6.082   9.057  14.560 -0.0585 -0.0409 -0.4769
 4103W        W22957  13.077   0.924  11.166 -0.2600 -0.0445  0.0659
 4104W        W22958  13.384  17.869  11.203  0.1236  0.1788 -0.1876
 4105W        W22959   0.146  10.994  10.175  0.0321 -0.0619 -0.1112
 4106W        W22960   1.224  17.077  13.453  0.0427  0.0664 -0.0678
 4107W        W22961   1.600  17.276  14.295 -0.2440 -0.2152 -0.3512
 4108W        W22962   5.135   8.354  10.047 -0.1961  0.1304 -0.2115
 4109W        W22963   3.584  18.531  11.143 -0.0742  0.0880 -0.1641
 4110W        W22964  14.106   0.040   1.468 -0.2945  0.1298  0.1439
 4111W        W22965   8.715   4.208  10.722 -0.4742  0.0327  0.0693
 4112W        W22966  10.151  13.024   4.518  0.1596 -0.2834 -0.2363
 4113W        W22967   9.356  16.215  13.224 -0.0845 -0.1023 -0.0411
 4114W        W22968   7.484   3.718   0.761  0.0182  0.2999  0.1459
 4115W        W22969   9.515  17.028  13.135  0.1447  0.0667 -0.0208
 4116W        W22970   9.562  10.436  14.084  0.1429 -0.1672  0.0249
 4117W        W22971  10.959   2.428   4.225  0.0550 -0.1905 -0.1782
 4118W        W22972   9.515  16.251   5.095  0.1217  0.0440  0.1405
 4119W        W22973   4.832   5.978  14.247 -0.2340 -0.2109 -0.0413
 4120W        W22974   7.208   3.420   3.115  0.1687 -0.0676 -0.0399
 4121W        W22975  15.915   8.823   3.576 -0.0846  0.0055  0.2017
 4122W        W22976  15.828   5.098   2.039 -0.0204  0.0144  0.2550
 4123W        W22977  12.778  15.259   3.080 -0.1389 -0.0588  0.0933
 4124W        W22978  13.192  10.684   1.449 -0.2116  0.0791 -0.0064
 4125W        W22979   5.849  12.277   4.592 -0.2079 -0.1197  0.2031
 4126W        W22980  16.927  10.102  15.166  0.1597 -0.1604 -0.0371
 4127W        W22981   5.344   1.602  12.437 -0.0827  0.0712 -0.0953
 4128W        W22982  11.408   9.677  12.499 -0.2679  0.1017 -0.0227
 4129W        W22983   1.024   4.959  10.577  0.2979  0.3343  0.0753
 4130W        W22984   3.618   3.128   3.882 -0.0653 -0.2228  0.3489
 4131W        W22985   3.781   6.690   1.083 -0.2326 -0.1097 -0.0425
 4132W        W22986   6.090   4.772  10.145  0.1289  0.3105 -0.3012
 4133W        W22987   0.783  15.065  12.862  0.1871 -0.3890 -0.3155
 4134W        W22988   5.103  15.439  12.690  0.3518  0.0697  0.2698
 4135W        W22989   6.020  11.802   2.997  0.1063  0.1833  0.2439
 4136W        W22990  12.562   8.590  10.718  0.0682 -0.1191  0.2225
 4137W        W22991   4.238   6.257  15.225  0.2534 -0.1353 -0.2106
 4138W        W22992  16.063   0.911  11.308  0.0080  0.1359  0.1568
 4139W        W22993   2.613  11.896   3.150  0.1303 -0.0187 -0.0651
 4140W        W22994   5.031  17.828  12.818 -0.2702  0.2411  0.0865
 4141W        W22995  13.184   4.489  12.854  0.0019 -0.0239 -0.0695
 4142W        W22996  14.842  13.672  12.470  0.0253 -0.0500 -0.2656
 4143W        W22997   0.417   6.604  14.284  0.0821 -0.1515  0.1332
 4144W        W22998  17.948  11.666  15.133 -0.0813  0.1880 -0.2738
 4145W        W22999  12.866   3.063   3.006  0.3455  0.2224  0.1216
 4146W        W23000  13.057  17.747  14.155 -0.1899 -0.3511 -0.2822
 4147W        W23001   0.240   6.047   9.772 -0.0337  0.3339  0.0400
 4148W        W23002   5.746  11.425   2.735 -0.0994 -0.0826 -0.0019
 4149W        W23003   3.371  17.296   1.320  0.0960  0.0951 -0.0720
 4150W        W23004   7.984   5.245  15.298  0.1719 -0.1170  0.0192
 4151W        W23005   4.669   1.566   3.305  0.1191 -0.2018  0.1163
 4152W        W23006  11.816   4.094   3.480 -0.1204  0.0676  0.2092
 4153W        W23007  10.747  15.220   1.053 -0.1201 -0.2268  0.5166
 4154W        W23008   0.050   8.203  11.358 -0.2375 -0.1632 -0.0139
 4155W        W23009   2.378  10.078   2.134  0.1549 -0.1220  0.3498
 4156W        W23010  10.114   2.351   4.984  0.3113  0.1111 -0.1016
 4157W        W23011  15.135   4.079  14.500  0.1165  0.1944  0.0555
 4158W        W23012   5.906   6.034   4.442  0.0776 -0.0661  0.2474
 4159W        W23013   6.071   6.960  13.414  0.3571  0.0029 -0.0207
 4160W        W23014  12.136  15.585  11.314 -0.2164  0.1976 -0.1728
 4161W        W23015   7.751  17.398   0.661  0.0263  0.2256  0.2348
 4162W        W23016   2.833  17.267   0.892 -0.2159 -0.3173  0.1024
 4163W        W23017  16.127   5.548  14.757 -0.1710  0.1197  0.0044
 4164W        W23018   7.070  13.421  13.432  0.2949  0.0908  0.1885
 4165W        W23019   7.376  12.344   0.124 -0.0957 -0.1547 -0.2587
 4166W        W23020  11.028   8.532  12.350  0.1045 -0.1221  0.0963
 4167W        W23021  10.636   2.022   1.617 -0.1348 -0.3567  0.2847
 4168W        W23022  15.184   3.636  11.199  0.2064  0.2118 -0.1074
 4169W        W23023  14.335  12.850  12.738 -0.0982  0.1540  0.1349
 4170W        W23024  13.825   3.933  12.923  0.2118 -0.0741  0.2345
 4171W        W23025   9.898   4.541   1.614  0.1513 -0.1408  0.1082
 4172W        W23026   2.928  12.229   0.629  0.1159  0.2407 -0.4092
 4173W        W23027   1.879  15.188   0.278  0.0193 -0.0249  0.0969
 4174W        W23028  11.475   3.589   1.056  0.0644  0.0360 -0.2721
 4175W        W23029  18.492  12.204  11.352  0.1217  0.2315  0.0024
 4176W        W23030   4.999  16.416   4.375  0.2066 -0.0659 -0.1166
 4177W        W23031  18.152  14.627   1.273  0.1252 -0.0460  0.0310
 4178W        W23032  17.720   7.954   2.723 -0.2503  0.1229  0.1831
 4179W        W23033   0.737  16.113   0.210  0.1690 -0.0994 -0.0352
 4180W        W23034   8.721   9.607  10.935 -0.3028  0.2298  0.0751
 4181W        W23035  11.623  16.582  10.329 -0.1333 -0.1932 -0.0312
 4182W        W23036   5.403   3.824  12.232  0.0627 -0.0961  0.2277
 4183W        W23037   8.764  12.219  11.186 -0.0387 -0.3441  0.0454
 4184W        W23038  12.836  13.521   2.371  0.1830  0.1749 -0.0945
 4185W        W23039   0.825  15.254  11.984 -0.1406  0.0070 -0.0404
 4186W        W23040  13.506  15.033   3.970  0.1352  0.2140 -0.0878
 4187W        W23041  11.977  16.561  12.861 -0.1115 -0.3122 -0.2013
 4188W        W23042  15.912   9.041  11.713  0.1411 -0.1722  0.1926
 4189W        W23043  10.043   4.388   1.153  0.0946 -0.2771  0.2772
 4190W        W23044   6.813   1.655   1.515  0.3044  0.0858  0.0396
 4191W        W23045   8.029   9.693  11.310  0.0267 -0.2602 -0.2782
 4192W        W23046  14.339   2.386  11.693  0.3476  0.1450  0.2710
 4193W        W23047   4.970  18.133   1.231 -0.0280 -0.0654 -0.4271
 4194W        W23048   3.832  10.077  11.928  0.2278  0.1100 -0.3187
 4195W        W23049  13.418   2.511  11.171 -0.0659 -0.1881 -0.0782
 4196W        W23050   1.652  13.774  12.670 -0.1024  0.1123 -0.0441
 4197W        W23051   3.153  13.326   0.860  0.1240  0.1090  0.2455
 4198W        W23052   8.315   4.751  12.943  0.0766  0.0800  0.2058
 4199W        W23053   2.242  12.700   0.033 -0.4725 -0.2447 -0.2425
 4200W        W23054   4.076   1.767   0.819  0.0107 -0.2555 -0.1029
 4201W        W23055   9.671   7.758   0.270 -0.0128  0.1328  0.2264
 4202W        W23056   3.382   7.699  14.522  0.0423 -0.2253  0.3005
 4203W        W23057  12.452   8.247   4.045 -0.1169  0.2157 -0.2038
 4204W        W23058   5.419  14.424  13.941  0.1575 -0.1020  0.0328
 4205W        W23059   4.799   8.962  13.003  0.1671  0.0808  0.0661
 4206W        W23060   8.794   9.900  11.796 -0.4910 -0.0030 -0.1015
 4207W        W23061   7.149   9.298  10.741  0.0812  0.0035 -0.3290
 4208W        W23062  11.606  14.558  13.568  0.1564 -0.2354  0.0772
 4209W        W23063   4.555  11.908  11.812 -0.0136 -0.2309  0.2121
 4210W        W23064  13.889   1.787  12.415 -0.0076  0.0787  0.2241
 4211W        W23065  17.170   9.465  11.949 -0.0876  0.1091 -0.2113
 4212W        W23066  18.018  13.592   2.326 -0.3173  0.3186 -0.2616
 4213W        W23067  16.327  11.520  13.959 -0.2667  0.3983  0.0184
 4214W        W23068   2.741  11.735   3.807  0.0515 -0.0526 -0.2471
 4215W        W23069  10.240  11.380   0.017  0.0510  0.0001  0.2887
 4216W        W23070  16.690   7.683  13.174 -0.1048 -0.0458  0.0107
 4217W        W23071   8.428  10.847  13.242  0.0252 -0.0272 -0.2885
 4218W        W23072   5.148   1.717  15.313 -0.2496  0.0570 -0.1642
 4219W        W23073   0.117   5.857   2.584 -0.0249 -0.3050 -0.1260
 4220W        W23074  11.756  11.367   2.124 -0.0694  0.0137  0.2402
 4221W        W23075   6.038  11.710   3.559 -0.3453  0.1238 -0.2340
 4222W        W23076  14.627   3.833   2.093 -0.1425  0.1591  0.0727
 4223W        W23077   5.196  10.241  15.210  0.3085  0.0990 -0.1293
 4224W        W23078   6.910  12.065  13.010 -0.2880  0.4285  0.0445
 4225W        W23079   8.213  18.069  15.201  0.1247 -0.1643  0.2269
 4226W        W23080   3.845  14.602  15.192  0.1136 -0.2839 -0.1847
 4227W        W23081  17.205   6.050   3.488  0.2216  0.2648 -0.2008
 4228W        W23082  12.064   6.162   1.900  0.3729  0.4622  0.3236
 4229W        W23083   9.688   6.044  13.281  0.0009  0.1408  0.1628
 4230W        W23084   6.922   2.321  11.216 -0.0285 -0.0381 -0.1813
 4231W        W23085  17.732   4.956   1.660  0.0639  0.0081 -0.1560
 4232W        W23086   8.555   3.902  12.993 -0.1183  0.1193  0.1721
 4233W        W23087   0.205   6.715   0.865  0.2436  0.0784 -0.0728
 4234W        W23088   1.260  10.713  14.074  0.1657  0.1528  0.3989
 4235W        W23089   1.791   3.169   1.923 -0.0650 -0.3107  0.1343
 4236W        W23090   6.978  17.185   2.377  0.0499 -0.1944 -0.0245
 4237W        W23091   3.850  15.956  12.436 -0.1912  0.1953 -0.2116
 4238W        W23092   4.225  12.983  10.673 -0.0269 -0.1112 -0.0193
 4239W        W23093  16.883  11.745  15.467  0.1213 -0.0556  0.0791
 4240W        W23094  15.007  12.614   1.466  0.2032  0.0034 -0.0095
 4241W        W23095  11.571  12.612  12.384  0.0484 -0.2482 -0.1541
 4242W        W23096   7.049   7.433  10.808  0.2632  0.1779 -0.0560
 4243W        W23097  16.661  13.315  12.120 -0.2549  0.0436  0.0156
 4244W        W23098   5.259  13.155  13.017 -0.1062  0.0788 -0.0290
 4245W        W23099  10.716  16.359   0.109 -0.0781 -0.2993 -0.0204
 4246W        W23100  17.425   3.149   1.508  0.0707  0.0465  0.4326
 4247W        W23101   9.675  10.869  15.407  0.1423  0.1073 -0.1066
 4248W        W23102  13.806   7.091  12.401 -0.1220  0.0118 -0.3394
 4249W        W23103   5.232   1.981   0.284  0.1300 -0.0790 -0.1243
 4250W        W23104  10.069   4.762  14.692  0.1046 -0.0278  0.0323
 4251W        W23105  10.785   9.329  15.094  0.0906 -0.3699  0.2007
 4252W        W23106   7.887   9.829  12.940 -0.2256 -0.1039 -0.2659
 4253W        W23107   2.325  10.561  11.077 -0.1423 -0.1010  0.2419
 4254W        W23108  16.989  10.357   2.490  0.0469  0.2151  0.1090
 4255W        W23109  11.448   7.826  13.763  0.1504 -0.1415  0.4668
 4256W        W23110  16.881  13.306  13.831  0.3398 -0.3736 -0.0080
 4257W        W23111   4.939  14.371  13.692 -0.1474  0.0660 -0.0968
 4258W        W23112   5.540  12.941   1.327 -0.2502 -0.0217 -0.1486
 4259W        W23113  11.091  16.347   4.466 -0.1460 -0.0770 -0.1888
 4260W        W23114   8.661   0.559   3.505  0.1776  0.2955 -0.1179
 4261W        W23115  10.257  11.563   1.810  0.1061  0.2663  0.2825
 4262W        W23116   3.103  11.533  13.605  0.0166  0.0569 -0.2099
 4263W        W23117  15.867  16.351  14.664 -0.2858  0.1344 -0.0676
 4264W        W23118   8.819   0.965  11.074 -0.0477 -0.2054  0.0523
 4265W        W23119  15.637  11.500   4.275  0.0181  0.1521  0.3931
 4266W        W23120   5.291   7.913  11.433 -0.3106 -0.1734 -0.1894
 4267W        W23121   4.287  17.860  15.152 -0.2185 -0.0298  0.3384
 4268W        W23122   0.474   7.597  10.700 -0.1075 -0.1065 -0.4172
 4269W        W23123   7.647   9.108   1.217 -0.0405 -0.3511 -0.2774
 4270W        W23124   0.314   1.427  14.835 -0.1676 -0.1227  0.1506
 4271W        W23125  15.478  12.326  13.140  0.1630 -0.1550 -0.0075
 4272W        W23126   1.212   5.756   2.273  0.1039  0.1663  0.0088
 4273W        W23127  16.679   0.619   4.066 -0.0522  0.0411  0.1562
 4274W        W23128  16.358  18.036  15.097 -0.1936  0.1476  0.0262
 4275W        W23129   5.968  17.118   3.699  0.0181 -0.0237 -0.0258
 4276W        W23130  17.769   6.518   1.950 -0.3006 -0.2843 -0.3091
 4277W        W23131   9.854   3.192  12.357  0.3792 -0.1837 -0.1003
 4278W        W23132  18.547   6.821  14.571  0.2086 -0.3682  0.2314
 4279W        W23133   7.374  16.615  13.946 -0.1768  0.0241  0.0339
 4280W        W23134  10.283   8.270  13.353  0.1070  0.0958  0.1542
 4281W        W23135  17.852   0.850  13.199 -0.0456 -0.2971 -0.1666
 4282W        W23136  12.682   8.515  11.837  0.0672  0.0325  0.1820
 4283W        W23137   4.010  11.547  13.002  0.0430  0.1242 -0.1905
 4284W        W23138  14.531  18.565  13.615  0.3621 -0.3683  0.0716
 4285W        W23139   7.014   5.051   0.558 -0.5619  0.0141 -0.3099
 4286W        W23140   1.572  14.896  14.357  0.2568  0.0571  0.1132
 4287W        W23141  16.855   5.734  12.569 -0.1938  0.0983 -0.0851
 4288W        W23142   4.243   4.550  11.674 -0.0169 -0.0804 -0.2037
 4289W        W23143   4.937   5.299   2.407 -0.2077  0.0988  0.0057
 4290W        W23144   4.907  12.532  15.221  0.1132 -0.3135  0.0602
 4291W        W23145   2.495  10.865   1.702  0.1319 -0.0637 -0.1211
 4292W        W23146   4.822   0.513   4.206 -0.3570  0.0376 -0.1997
 4293W        W23147  10.386  11.000   3.786 -0.1864  0.0928 -0.1971
 4294W        W23148   7.561  10.158  11.895  0.0839  0.0989 -0.4375
 4295W        W23149  13.831  11.255  11.211  0.0142 -0.3465 -0.0994
 4296W        W23150   6.491   1.870  14.476  0.1419  0.2062 -0.1258
 4297W        W23151   7.392   1.298  11.176 -0.2079 -0.0069 -0.0338
 4298W        W23152   5.040  14.739  11.285 -0.3220 -0.1037  0.1279
 4299W        W23153   7.909   6.085   1.327 -0.0494  0.0585 -0.0330
 4300W        W23154   4.568   4.598  15.222 -0.0572 -0.1527 -0.1872
 4301W        W23155  14.964   4.815  11.703  0.1826  0.1772  0.1939
 4302W        W23156  10.061  17.558  11.634 -0.0184 -0.1152 -0.2074
 4303W        W23157  12.593   2.421   0.345  0.1576 -0.2057  0.3673
 4304W        W23158   9.323  16.013  14.511 -0.0217 -0.2691  0.0848
 4305W        W23159  13.997  11.283  14.714 -0.0694 -0.0505  0.1011
 4306W        W23160  12.428  11.555  14.713  0.1842 -0.1339  0.0067
 4307W        W23161  10.600  11.279   2.829 -0.0140 -0.1006 -0.1469
 4308W        W23162   4.436   3.348   3.941 -0.0617  0.0076  0.0580
 4309W        W23163   0.311  16.625   0.633 -0.0676  0.0057  0.1877
 4310W        W23164  17.695   1.654  14.450 -0.0015  0.1507  0.3076
 4311W        W23165  13.111   0.001   0.213 -0.0890  0.2460  0.0094
 4312W        W23166  16.179  10.798   2.571  0.1241  0.0227 -0.2297
 4313W        W23167  11.408  11.593   1.461  0.0357  0.0947 -0.1417
 4314W        W23168   6.397   8.965  14.970 -0.0967 -0.0131  0.2166
 4315W        W23169  18.340   5.055   3.728 -0.0051  0.0229 -0.0327
 4316W        W23170   4.080   8.867   1.507  0.0801 -0.1655 -0.1730
 4317W        W23171  13.044  17.812  11.832 -0.0132 -0.0187 -0.2251
 4318W        W23172   3.458   7.704   3.538 -0.0796  0.1807  0.0308
 4319W        W23173   3.798  13.539  12.023 -0.2194 -0.1406 -0.2925
 4320W        W23174   7.412  14.110   0.991  0.1894 -0.2234 -0.0337
 4321W        W23175   5.953  16.568   5.067  0.1744 -0.1679 -0.0569
 4322W        W23176   0.511   2.721  10.987  0.1741  0.0155  0.1363
 4323W        W23177   3.545   1.166   2.741  0.0066  0.1390  0.2745
 4324W        W23178   6.404   6.098   4.212 -0.1009 -0.1124 -0.0904
 4325W        W23179   1.688  10.307  13.834  0.1360  0.3445  0.2132
 4326W        W23180  15.004   7.731  12.343 -0.1134 -0.2061 -0.0577
 4327W        W23181   1.867  16.614   3.377 -0.0478 -0.0366  0.3141
 4328W        W23182  10.099   6.013   3.476 -0.1956 -0.1158  0.3401
 4329W        W23183   7.664   8.665  12.115  0.0073 -0.1066  0.0361
 4330W        W23184   3.253  14.151  13.605 -0.3139  0.4570  0.1123
 4331W        W23185  18.333  11.339   1.676 -0.0307  0.2254 -0.0559
 4332W        W23186  14.160  16.157   4.489 -0.0254  0.1254  0.0204
 4333W        W23187  12.839   2.395  14.602  0.1325  0.5754  0.1301
 4334W        W23188  11.781  15.163  11.575  0.2104  0.1374 -0.3198
 4335W        W23189   6.046  17.559  13.087 -0.3765 -0.2134 -0.0064
 4336W        W23190   2.685  13.203   2.141  0.3279 -0.1695 -0.1973
 4337W        W23191   7.737  15.094  13.798 -0.1502 -0.2752 -0.1891
 4338W        W23192  13.922   8.972  14.574  0.1209  0.1838  0.3915
 4339W        W23193   0.071  17.695  12.527 -0.0512 -0.0614 -0.0276
 4340W        W23194  15.940  11.404   2.250 -0.2159 -0.0651 -0.1311
 4341W        W23195  12.972   6.582  14.462 -0.3918  0.1247  0.3363
 4342W        W23196   3.450  12.883   0.956 -0.2088 -0.3111 -0.1592
 4343W        W23197  17.239  11.310   3.515  0.0437  0.0094 -0.2036
 4344W        W23198   2.705  10.404   0.477  0.0865  0.0431  0.0261
 4345W        W23199   9.559  10.958  14.873 -0.2155 -0.2091 -0.0784
 4346W        W23200  14.096   2.091   4.189 -0.2384 -0.1688  0.2270
 4347W        W23201   1.228   1.867  10.861 -0.2633  0.0785  0.2709
 4348W        W23202   4.060  17.646   2.550 -0.1854 -0.0481 -0.4572
 4349W        W23203   0.982   3.688  14.080  0.2036 -0.0382 -0.0107
 4350W        W23204  12.663   2.258  10.634 -0.1116 -0.0385 -0.3364
 4351W        W23205  15.477  10.076  12.403 -0.0119 -0.4146 -0.2533
 4352W        W23206   0.311   8.786  13.135  0.0462 -0.1168 -0.1340
 4353W        W23207   6.138  11.885  15.425  0.0928  0.1204  0.2831
 4354W        W23208  11.497  12.998   2.041  0.0826 -0.1313  0.2931
 4355W        W23209   6.402  10.055  14.732  0.1701  0.2402 -0.0817
 4356W        W23210  10.444  15.678  15.284 -0.0105 -0.2449  0.0277
 4357W        W23211  13.325   0.364  14.559  0.1041  0.1817  0.5543
 4358W        W23212   3.843  11.314   0.156 -0.2652  0.1093  0.1075
 4359W        W23213  12.180   3.794  10.371 -0.2176  0.0050 -0.4258
 4360W        W23214  14.315   6.196   0.427 -0.0429  0.0050 -0.0110
 4361W        W23215  18.139  15.818  14.553  0.2133  0.0522 -0.1597
 4362W        W23216   7.142  12.107  14.730  0.0545  0.3064 -0.3097
 4363W        W23217  16.218  13.696  15.107 -0.0756 -0.3220 -0.2210
 4364W        W23218   0.394  11.771  15.199 -0.2695 -0.0690 -0.1080
 4365W        W23219  15.051  13.092  11.606  0.2249  0.0222 -0.1815
 4366W        W23220   9.516   4.829   4.617 -0.1285 -0.2382  0.1668
 4367W        W23221   5.471   1.648   4.654  0.0127  0.0025  0.1291
 4368W        W23222   6.559   0.148  12.880  0.1332 -0.2850 -0.1833
 4369W        W23223   7.616  16.603   1.847 -0.2429 -0.1667  0.0066
 4370W        W23224   6.640  13.905   3.265  0.1907  0.2002 -0.2909
 4371W        W23225  13.794   9.702  14.159  0.0812  0.0465 -0.0145
 4372W        W23226  18.199  11.606  11.985 -0.1545  0.2780  0.0108
 4373W        W23227   9.827  12.611  12.238  0.0625  0.1844  0.3682
 4374W        W23228  10.805   2.634  11.424 -0.2834  0.3131  0.0231
 4375W        W23229   6.699   8.490  13.016  0.1086  0.0513  0.0664
 4376W        W23230   5.618  18.021  13.456 -0.1457  0.0880  0.0157
 4377W        W23231  15.526  13.721  10.429  0.2670  0.0239 -0.1827
 4378W        W23232   4.810  11.169  11.808 -0.2629 -0.0928  0.0352
 4379W        W23233   6.343  14.390   3.075  0.2140 -0.1616 -0.2417
 4380W        W23234  11.828   4.263  14.384 -0.1875  0.1057  0.0626
 4381W        W23235  14.127   0.913  14.931 -0.0261  0.1089  0.2040
 4382W        W23236  13.541  14.620   4.920 -0.1497 -0.2638 -0.0773
 4383W        W23237  14.419  18.145   2.961 -0.1051 -0.0153 -0.2069
 4384W        W23238   2.916  13.132   3.516 -0.0332  0.0678  0.0878
 4385W        W23239   1.974  13.315  10.613  0.0575 -0.0940 -0.2406
 4386W        W23240   9.342   6.844   4.436  0.1777  0.0414  0.1882
 4387W        W23241   5.514   0.484   3.528 -0.2627 -0.1552  0.2438
 4388W        W23242  17.458  10.866  15.396 -0.1900 -0.0472 -0.2430
 4389W        W23243  10.548  12.390  15.289  0.1453  0.2270 -0.0284
 4390W        W23244  13.670  11.503  13.502 -0.0748 -0.0050  0.0831
 4391W        W23245   6.307  15.427  12.809 -0.0449  0.2749  0.1454
 4392W        W23246  11.589  11.862   2.167 -0.1071 -0.1816 -0.0026
 4393W        W23247  14.184  16.563  13.406  0.1360 -0.1921  0.2042
 4394W        W23248   0.010   9.178  15.046 -0.2242  0.1550  0.3470
 4395W        W23249  16.422   2.696   1.363  0.2182  0.1561 -0.0309
 4396W        W23250  16.726  17.922  11.096  0.1232 -0.0839 -0.0488
 4397W        W23251   3.503   9.021   0.905 -0.3339  0.1349  0.1054
 4398W        W23252  12.895   1.708  14.937 -0.0458 -0.0493 -0.0216
 4399W        W23253   4.344   8.774  12.782 -0.1007 -0.0191 -0.0478
 4400W        W23254  15.162   8.575  13.253 -0.2286 -0.0782  0.0827
 4401W        W23255   8.444  14.936  11.718 -0.0699  0.1701  0.1207
 4402W        W23256  16.575   5.368   2.317 -0.2055  0.1345  0.2738
 4403W        W23257   2.435  10.866   2.836  0.1785 -0.0321 -0.3317
 4404W        W23258  11.985  12.519  14.483  0.1346 -0.2383 -0.0495
 4405W        W23259  11.548   9.123   0.703  0.0610 -0.0599 -0.1001
 4406W        W23260  15.235   1.184  13.616 -0.1232  0.1069  0.0603
 4407W        W23261   7.816   3.901  14.623  0.2276 -0.3061 -0.0532
 4408W        W23262  14.012  17.011   3.622 -0.1484 -0.0366 -0.1050
 4409W        W23263   9.746   2.783  12.968  0.0259  0.1424  0.0866
 4410W        W23264   7.225   3.504  13.375 -0.0714 -0.0875  0.3610
 4411W        W23265   9.155   5.662  14.748 -0.0202  0.2046  0.2711
 4412W        W23266  15.955   7.983  11.547 -0.0642 -0.0341  0.0322
 4413W        W23267  12.629   8.839  12.370 -0.3811  0.3347  0.0329
 4414W        W23268   2.303   9.336   4.878 -0.1559 -0.4184 -0.1974
 4415W        W23269  15.171   1.465  13.094 -0.1038 -0.1052  0.0920
 4416W        W23270  11.825  11.422   4.522  0.1992 -0.0100 -0.3063
 4417W        W23271  16.844   9.257   0.932  0.0893  0.1536  0.0999
 4418W        W23272   4.578  15.912  14.503  0.0146 -0.0231 -0.1346
 4419W        W23273  17.208   6.166  14.783 -0.1608  0.2631  0.2481
 4420W        W23274   4.195  15.345   4.058 -0.1595  0.0473  0.1925
 4421W        W23275  17.682   5.234   0.790 -0.1596  0.0577 -0.5014
 4422W        W23276   6.888   1.653  12.104 -0.1844  0.1077 -0.0698
 4423W        W23277   6.120   8.254   3.653 -0.0546 -0.0286 -0.1371
 4424W        W23278  18.445   3.768  11.025 -0.1453 -0.2800  0.1338
 4425W        W23279   8.306   9.114   4.911  0.0970  0.1427 -0.2958
 4426W        W23280   3.486  13.823  13.844 -0.2344 -0.0756  0.2178
 4427W        W23281   0.169   1.933  13.689 -0.2816  0.1491 -0.4396
 4428W        W23282   4.080   3.642  13.381  0.4167  0.1113 -0.0136
 4429W        W23283   5.482  17.225   3.901 -0.1209 -0.0175  0.1196
 4430W        W23284   4.367   7.063  10.914 -0.1314  0.1263 -0.1858
 4431W        W23285   8.426   6.558  15.405  0.0412 -0.1189  0.1130
 4432W        W23286  12.136  16.581   3.885 -0.4854 -0.1019  0.0655
 4433W        W23287   9.121  15.867  13.453 -0.1693 -0.3826  0.0279
 4434W        W23288  12.317   6.569  13.176 -0.1110  0.2922  0.1705
 4435W        W23289  16.987   0.669   3.111 -0.2845  0.0573 -0.0743
 4436W        W23290   5.056   0.660  13.656 -0.2312 -0.0134 -0.2443
 4437W        W23291  17.697   1.846  15.390  0.2999 -0.1204 -0.0337
 4438W        W23292  17.488  11.660   5.501  0.1415 -0.0747  0.0020
 4439W        W23293   5.464  18.003  11.813 -0.1495  0.2357 -0.1438
 4440W        W23294   3.238  17.195  15.039 -0.3351  0.0391 -0.1102
 4441W        W23295  17.886   3.297  12.362  0.1446  0.0714  0.1100
 4442W        W23296   7.656   6.736   0.728  0.0062 -0.4670  0.0283
 4443W        W23297  16.853   6.507   4.947 -0.1045 -0.1414  0.0077
 4444W        W23298   5.417   9.308   9.990 -0.1892  0.1293 -0.0839
 4445W        W23299  17.466   7.760  11.135 -0.1273  0.1946 -0.0308
 4446W        W23300  16.506   8.817   0.046 -0.3397 -0.2590 -0.1912
 4447W        W23301  17.998   7.919  11.339 -0.1286  0.0274  0.0090
 4448W        W23302   6.532   9.709   3.650 -0.1149 -0.1168  0.0777
 4449W        W23303   6.739   5.376   1.846  0.2926  0.0852 -0.0271
 4450W        W23304   5.414  14.613   3.781 -0.5519  0.1500 -0.1463
 4451W        W23305  16.976  14.497  11.306  0.0799  0.1617  0.1189
 4452W        W23306   0.297  12.209   1.730  0.0644 -0.0141 -0.0676
 4453W        W23307  10.995   9.639  11.776 -0.1255 -0.0336  0.0509
 4454W        W23308   5.044   3.788  12.789  0.1022  0.1401  0.0484
 4455W        W23309  17.292   7.926   1.953  0.0351  0.0807  0.0178
 4456W        W23310   4.536  13.450  15.090 -0.3112  0.1210 -0.1388
 4457W        W23311  10.175  16.258  11.837  0.1052 -0.1452 -0.0685
 4458W        W23312  18.526   2.671   2.200  0.2259  0.2922 -0.0394
 4459W        W23313   9.506   2.813   1.651 -0.0831  0.3140 -0.0125
 4460W        W23314   2.536   2.774   3.228 -0.2263 -0.0547 -0.1134
 4461W        W23315   3.450  15.671   2.409  0.1170 -0.0572 -0.0569
 4462W        W23316   5.634   7.652  13.086  0.1964 -0.1050 -0.1848
 4463W        W23317   5.333   9.977  12.565 -0.0158  0.2553  0.2842
 4464W        W23318   5.090  10.393  13.103 -0.2492 -0.2731 -0.2355
 4465W        W23319   7.041  13.479   1.472 -0.0141 -0.1503  0.0007
 4466W        W23320  12.989   3.388  14.252 -0.1592  0.1807 -0.0636
 4467W        W23321   0.762  13.508  10.837  0.0530 -0.1824  0.1574
 4468W        W23322  16.138   4.787   2.765  0.2045 -0.0310  0.1187
 4469W        W23323   9.262   5.274  13.734 -0.0193  0.3163 -0.0059
 4470W        W23324  12.947   0.642  14.460  0.1459 -0.1376 -0.1768
 4471W        W23325  14.376  17.679  12.304 -0.2830 -0.2793 -0.1041
 4472W        W23326   3.264   2.109   4.058  0.0411  0.2796  0.0194
 4473W        W23327  18.467   3.766  13.422 -0.1118 -0.0157 -0.4464
 4474W        W23328  15.696   3.683   0.977  0.3188  0.0450 -0.0738
 4475W        W23329  14.641   8.879   2.413  0.1473 -0.1952 -0.0273
 4476W        W23330   6.300  14.772  11.171 -0.1935 -0.2862  0.2164
 4477W        W23331   5.188  14.937   0.705  0.0369 -0.3991  0.2059
 4478W        W23332  16.347   7.342   1.294 -0.0422  0.1580  0.0658
 4479W        W23333   1.985   7.516   1.229  0.2130 -0.0134  0.1748
 4480W        W23334   2.801   8.327   2.186  0.2343 -0.1956  0.0625
 4481W        W23335   7.225  13.519  11.983  0.1830 -0.0270  0.0476
 4482W        W23336   2.074   6.536  15.031  0.1449 -0.2049 -0.2005
 4483W        W23337  16.309   3.741  13.404  0.1647 -0.0236  0.0189
 4484W        W23338   8.805   4.745  10.732 -0.1645  0.4821  0.1536
 4485W        W23339  15.912  12.863   2.423 -0.2043 -0.3299 -0.2078
 4486W        W23340  11.861  10.784   2.429 -0.1038  0.3084 -0.2997
 4487W        W23341  17.132   3.749   2.601 -0.0809 -0.0345 -0.2673
 4488W        W23342   2.218  16.624  14.838 -0.0425 -0.1500  0.2270
 4489W        W23343   8.143  13.062  12.947 -0.1780 -0.1277  0.0694
 4490W        W23344   2.814   6.696   4.967 -0.2083 -0.4678 -0.1279
 4491W        W23345   2.581  13.110  11.904 -0.1083  0.1703 -0.0911
 4492W        W23346   2.442  11.806   2.600 -0.1673  0.0571  0.1304
 4493W        W23347   7.847   3.356   0.940  0.0391 -0.0869 -0.0919
 4494W        W23348   5.632   6.516   0.513 -0.0438 -0.2463 -0.1883
 4495W        W23349  10.481   2.581   4.678  0.1850  0.1414  0.2123
 4496W        W23350   8.142   3.296  13.594 -0.0568 -0.0769 -0.1748
 4497W        W23351  16.053  16.519   2.298  0.2076 -0.2172  0.1526
 4498W        W23352  13.777  10.018  13.385 -0.0519 -0.2022 -0.3019
 4499W        W23353   0.173  13.501  12.243  0.3446 -0.2671 -0.1161
 4500W        W23354   2.271   1.522  13.957 -0.0506  0.0657 -0.1394
 4501W        W23355  16.669  16.780  14.388  0.2532 -0.2758 -0.1548
 4502W        W23356   1.020  17.986  14.659 -0.3178 -0.1470  0.0967
 4503W        W23357   2.172  18.413  13.555 -0.0108  0.1453  0.0023
 4504W        W23358  11.166   5.776  14.691 -0.0706 -0.3368  0.1897
 4505W        W23359   7.336   6.100  15.416 -0.1696  0.1451 -0.0723
 4506W        W23360   9.808   3.806   2.747 -0.2807 -0.1254 -0.3911
 4507W        W23361   2.753   7.119   5.187 -0.1531 -0.3608  0.0751
 4508W        W23362   8.481   7.490   3.963 -0.2892  0.2109  0.1365
 4509W        W23363  10.014   2.222  12.656 -0.1682 -0.1332 -0.0480
 4510W        W23364  14.585  12.726   2.751 -0.5964  0.0288 -0.1416
 4511W        W23365   9.189  10.431  10.528 -0.1980  0.0228  0.0525
 4512W        W23366  11.972   2.898   2.009  0.3088  0.0781 -0.0748
 4513W        W23367  14.865   7.205   3.502 -0.0139 -0.1200 -0.1401
 4514W        W23368  14.022  18.075   1.636 -0.0877 -0.1581  0.0935
 4515W        W23369   1.727  12.834  15.401 -0.1306  0.0202 -0.2084
 4516W        W23370  16.758  17.245  10.252  0.1926 -0.3834  0.1213
 4517W        W23371  16.502  10.147  10.985  0.0830 -0.1500 -0.1089
 4518W        W23372  15.656   1.505  12.329  0.0182  0.0745 -0.0389
 4519W        W23373  13.258  10.669   4.382  0.1263  0.0268  0.0570
 4520W        W23374  16.646   3.236   1.885  0.2125 -0.0473  0.3532
 4521W        W23375   2.007   3.990   0.912  0.0981 -0.0475 -0.0676
 4522W        W23376  17.845  11.347   9.985  0.1522  0.0680 -0.0414
 4523W        W23377   4.154   0.196   3.981  0.2139 -0.0376  0.1413
 4524W        W23378   2.929  15.492   2.208 -0.0429  0.0311  0.0054
 4525W        W23379  10.669  13.141  13.713 -0.1790 -0.2167 -0.1192
 4526W        W23380   3.338  16.945  11.623  0.1325  0.1462  0.1421
 4527W        W23381  17.451   2.280   4.386 -0.0209 -0.4516  0.1951
 4528W        W23382  11.429   3.248   4.075 -0.1046 -0.0545  0.0127
 4529W        W23383   1.253   5.196  12.109  0.1645  0.0041 -0.2686
 4530W        W23384   3.100  17.076  11.200  0.1644 -0.2029 -0.4788
 4531W        W23385   4.783   3.561   2.377 -0.1116  0.2481  0.3988
 4532W        W23386   8.583   1.254   1.946 -0.0077  0.1512 -0.0270
 4533W        W23387  12.018  13.996   4.467  0.0471  0.0676 -0.1723
 4534W        W23388  12.107  12.132  10.289  0.0308 -0.2515  0.0708
 4535W        W23389   9.372  15.206  14.266  0.0159  0.1153  0.1273
 4536W        W23390  12.266   1.018   1.604 -0.1569 -0.0244 -0.0521
 4537W        W23391   3.178   9.206  10.418 -0.3193 -0.1435  0.2989
 4538W        W23392  18.556  13.585  14.083  0.2225 -0.0660  0.0276
 4539W        W23393   5.430   1.030  11.646 -0.1494  0.1482 -0.1963
 4540W        W23394   2.520   3.422  13.474 -0.0971  0.2291  0.3748
 4541W        W23395   9.383   3.298   1.451 -0.0546  0.1664 -0.2395
 4542W        W23396   5.016   9.065   1.927  0.0346 -0.1140 -0.1188
 4543W        W23397  13.324   9.777  12.013  0.1740 -0.0227 -0.0682
 4544W        W23398  13.937  16.484   3.686  0.2406  0.2834 -0.2644
 4545W        W23399   0.406   4.964  11.742  0.0006 -0.2936  0.0100
 4546W        W23400  11.989  14.514   3.338 -0.1504  0.2261 -0.4057
 4547W        W23401  16.274   1.808   4.916  0.1229  0.1193 -0.1086
 4548W        W23402   8.315  17.842   2.687  0.1180 -0.1391  0.0901
 4549W        W23403  17.238  10.473  13.247  0.0361 -0.0929  0.0849
 4550W        W23404   5.419   8.469  14.185  0.2942  0.1571 -0.1715
 4551W        W23405   6.585  13.529   2.703 -0.2930  0.0942  0.1057
 4552W        W23406   8.037   6.549   1.740  0.0398 -0.1598 -0.1022
 4553W        W23407  18.145  12.889  11.956 -0.2122  0.1338  0.1922
 4554W        W23408  16.387   4.762  14.416  0.0476  0.2098  0.3054
 4555W        W23409  18.171   5.982   2.616  0.1700 -0.0824 -0.2988
 4556W        W23410   5.150   0.554  14.658 -0.2765 -0.0586  0.1835
 4557W        W23411  11.071   3.879  14.460 -0.0262  0.0049 -0.2579
 4558W        W23412  16.181  15.382  12.840  0.0237  0.0583 -0.0507
 4559W        W23413  12.548  16.866  11.911  0.1212  0.1964 -0.2379
 4560W        W23414   0.188   5.073   9.867  0.0495 -0.3774  0.0277
 4561W        W23415  13.017   6.788   3.764  0.1431  0.1252 -0.1594
 4562W        W23416  10.629  15.581  13.423  0.1990 -0.0096  0.0826
 4563W        W23417  13.571   7.737  14.108  0.0181  0.0662 -0.1304
 4564W        W23418  17.364   7.772   3.013  0.0177  0.1556  0.1164
 4565W        W23419  12.421  15.340   5.798  0.2598 -0.3167  0.3243
 4566W        W23420  17.515  18.015   2.520  0.1498 -0.0087 -0.0151
 4567W        W23421   6.301   7.718   0.665 -0.1157  0.0632 -0.2685
 4568W        W23422   6.603  11.118   3.495 -0.1884 -0.0902  0.1191
 4569W        W23423   3.362   7.131  15.266 -0.1766  0.2850  0.2194
 4570W        W23424  18.394  10.021  10.914 -0.1232 -0.1534  0.0811
 4571W        W23425   8.515   2.233   0.712  0.2400 -0.0379 -0.1462
 4572W        W23426   5.431   7.201   0.883 -0.2052  0.1925 -0.0640
 4573W        W23427   5.314   9.985   1.907  0.0320  0.4436 -0.1704
 4574W        W23428  15.847   2.923   3.919  0.2978  0.0427 -0.0630
 4575W        W23429   0.514  18.312  11.253  0.0228 -0.0632 -0.1873
 4576W        W23430   4.344  11.347  11.069 -0.0064 -0.0543 -0.0330
 4577W        W23431  16.742   9.878  13.961 -0.0132 -0.2015  0.1374
 4578W        W23432   3.393  13.416  12.858 -0.2027 -0.0259 -0.0359
 4579W        W23433   3.434   7.078  10.928  0.0856  0.1058  0.0120
 4580W        W23434   4.609   5.463  15.263 -0.2384  0.0800 -0.0283
 4581W        W23435   8.629   7.066  15.357  0.2755  0.1499 -0.0594
 4582W        W23436  12.129  12.052   3.113  0.2077  0.1203 -0.2914
 4583W        W23437   0.370   0.680   9.766  0.1620 -0.2792 -0.2416
 4584W        W23438   5.562   5.518   2.444  0.0810  0.1656 -0.3578
 4585W        W23439  10.889  11.426   2.446 -0.1238 -0.2866 -0.1968
 4586W        W23440  10.047  12.672   0.241  0.2284 -0.1473  0.0500
 4587W        W23441   9.036   2.924  11.759  0.2696 -0.0140 -0.2018
 4588W        W23442   0.944   6.922  11.958 -0.0268 -0.0375 -0.0389
 4589W        W23443   0.970   4.515  14.265 -0.2351 -0.1620  0.0500
 4590W        W23444  10.030   5.697   0.275  0.2690  0.0272  0.0516
 4591W        W23445  15.075  10.673   3.085  0.1180 -0.0636  0.2758
 4592W        W23446   8.340   0.636  15.007  0.1051 -0.2887  0.2897
 4593W        W23447   9.349   4.580   0.188 -0.0323  0.0401  0.0973
 4594W        W23448  14.643  18.145  12.268  0.1494 -0.0649 -0.0666
 4595W        W23449   7.020  18.269   1.760 -0.0898  0.0416 -0.1714
 4596W        W23450  17.621   4.560   4.054 -0.1593  0.1861 -0.0158
 4597W        W23451  14.556  16.138   0.015 -0.2967  0.0142  0.0116
 4598W        W23452   4.136   9.373  10.218 -0.1631  0.2620 -0.0509
 4599W        W23453   1.970  16.987  14.541 -0.0895 -0.2303  0.0807
 4600W        W23454  17.357   6.883   2.788  0.3044 -0.0748  0.0602
 4601W        W23455   2.058  13.963  15.412 -0.1654  0.4000 -0.0105
 4602W        W23456  13.413   8.962   2.561 -0.0963 -0.2488  0.2119
 4603W        W23457   1.861  13.729   4.689 -0.4537  0.1350 -0.0113
 4604W        W23458   5.971   0.731   0.406  0.1330  0.3049  0.2496
 4605W        W23459  18.263  13.537   0.459 -0.1553 -0.0279  0.2738
 4606W        W23460  13.630  10.096  14.998 -0.1861 -0.0045  0.2450
 4607W        W23461  16.071  10.164   2.231 -0.0821 -0.0732 -0.0117
 4608W        W23462  11.531  13.832  12.228 -0.2262  0.1775 -0.0421
 4609W        W23463   8.790  11.103   0.125  0.5150 -0.0544 -0.2085
 4610W        W23464   1.199  11.605  12.691  0.0356  0.1424 -0.0829
 4611W        W23465  12.643  15.408  12.415  0.1388 -0.1578  0.3418
 4612W        W23466  13.361   4.943   3.788 -0.0019  0.1728  0.0356
 4613W        W23467   5.836  12.291  14.563 -0.1079 -0.2006 -0.1645
 4614W        W23468  12.583  14.750   1.923  0.0917 -0.0852 -0.1228
 4615W        W23469  13.509  10.162   3.453  0.2073  0.1645 -0.0807
 4616W        W23470   2.350  15.859   3.373  0.1700  0.2262 -0.2071
 4617W        W23471   8.155   6.578  11.916  0.1270 -0.2673 -0.1078
 4618W        W23472   7.335  13.805   2.620 -0.3171  0.0708 -0.3177
 4619W        W23473  16.995   0.240   0.632  0.0107  0.1657 -0.0874
 4620W        W23474   9.081  13.299   3.037  0.0941 -0.2063 -0.2199
 4621W        W23475  14.040  11.589   2.769 -0.1563 -0.1882  0.1661
 4622W        W23476  15.237   1.691   0.508 -0.1163 -0.1360  0.0215
 4623W        W23477  11.627  18.302   0.074  0.1618  0.1048 -0.1043
 4624W        W23478   8.060   7.812  14.554  0.2361 -0.0606 -0.4432
 4625W        W23479   7.676   9.547  10.876  0.2389 -0.3225  0.0061
 4626W        W23480   9.748   0.657   3.368 -0.0203 -0.0725 -0.0337
 4627W        W23481  14.956   5.499  12.685 -0.1273  0.0432 -0.0470
 4628W        W23482  14.829   8.536   1.004 -0.1117 -0.0702 -0.4051
 4629W        W23483   5.895  13.210  14.815  0.0457  0.1667  0.2076
 4630W        W23484  10.694   8.404   3.427  0.1554 -0.0644  0.0907
 4631W        W23485   2.838  13.244  15.184  0.2830  0.3402  0.0840
 4632W        W23486   4.758   0.160  12.735  0.1312  0.0180 -0.3153
 4633W        W23487   8.194   1.098   0.595 -0.0577 -0.2104  0.1260
 4634W        W23488  14.954   9.027  11.759 -0.0007 -0.1358  0.3954
 4635W        W23489   7.296   5.576   2.516 -0.3807 -0.0349 -0.0832
 4636W        W23490   8.856  17.824   2.679  0.3578 -0.2865 -0.1070
 4637W        W23491  12.430   9.111  13.595  0.2240 -0.3956 -0.1805
 4638W        W23492  14.001   8.644  11.529  0.3709  0.2230 -0.3180
 4639W        W23493  11.092  14.084   3.567 -0.0639  0.1976  0.2610
 4640W        W23494   6.534   2.721  14.982  0.1369  0.2668 -0.0171
 4641W        W23495   1.300  17.229   1.397 -0.0213  0.1354  0.3472
 4642W        W23496  18.327  14.102  12.413 -0.0500 -0.1437  0.0845
 4643W        W23497  16.260   7.799  12.424  0.0164  0.0959  0.2839
 4644W        W23498   9.710   3.979   0.957  0.0863 -0.2796  0.0284
 4645W        W23499  14.173   5.234  14.302 -0.0024  0.0924  0.0317
 4646W        W23500  16.782   2.459  13.301 -0.0470 -0.1579 -0.2797
 4647W        W23501  12.180  12.187  11.410  0.0728  0.1648  0.2093
 4648W        W23502  14.118   9.322  10.353 -0.3473 -0.0629  0.2136
 4649W        W23503   2.941  13.174  10.953 -0.0790  0.0265  0.0850
 4650W        W23504   6.442   3.810   4.122 -0.0778 -0.2783  0.0407
 4651W        W23505  16.025   4.173  10.984  0.1816 -0.0179 -0.1282
 4652W        W23506   8.975   3.965  13.377  0.1475 -0.1063  0.0302
 4653W        W23507   2.010   3.686   3.985  0.3907  0.1519 -0.1434
 4654W        W23508   4.984  12.517   4.076 -0.1873 -0.0709  0.1138
 4655W        W23509  17.975   7.191  12.812  0.0943 -0.0159 -0.0950
 4656W        W23510   4.875  17.012  13.561 -0.2387 -0.0402 -0.2317
 4657W        W23511   6.743  15.847  12.527 -0.0076  0.1156 -0.5148
 4658W        W23512  14.948   3.942   4.228  0.0813 -0.1245 -0.2817
 4659W        W23513   5.372   6.058  11.843 -0.3751  0.0046 -0.0847
 4660W        W23514   4.083  12.087  14.681 -0.1163 -0.4036 -0.0205
 4661W        W23515   4.479   7.716  14.916  0.2221  0.2488  0.0088
 4662W        W23516  17.096  14.059  11.941  0.1791  0.1082 -0.1497
 4663W        W23517  10.453   7.341   0.581  0.0078 -0.0862 -0.0611
 4664W        W23518   1.725   8.416   3.765 -0.0047 -0.0624  0.1763
 4665W        W23519   0.795  15.895  11.402  0.1155  0.0306 -0.0343
 4666W        W23520  18.005   2.983   4.088  0.0948 -0.0887  0.1166
 4667W        W23521  13.405   4.433  12.408  0.0548 -0.2311 -0.3128
 4668W        W23522  14.742   1.127  15.256 -0.0428  0.2691 -0.0094
 4669W        W23523  18.162   6.129   1.218 -0.1258 -0.0465 -0.1141
 4670W        W23524  11.453   0.817  14.078  0.0191 -0.3751 -0.2951
 4671W        W23525  14.222  16.460   2.423 -0.1311 -0.0170 -0.1196
 4672W        W23526  16.726   5.416  12.195  0.3969 -0.2228 -0.2306
 4673W        W23527  12.674   8.460   2.311  0.1034 -0.0117 -0.3554
 4674W        W23528   9.414  11.171  13.422  0.1118 -0.0919  0.1558
 4675W        W23529  10.753   9.764   1.718 -0.1521 -0.2299  0.0111
 4676W        W23530   0.376   0.082   2.049  0.1394  0.0669 -0.1897
 4677W        W23531   4.689   7.925   4.269  0.1211  0.1064 -0.2420
 4678W        W23532  10.138   4.318   5.338  0.1286 -0.0392  0.1120
 4679W        W23533   3.880   7.059   0.727  0.3131 -0.2127  0.1854
 4680W        W23534   2.273  13.191   1.172 -0.0377  0.2408  0.0376
 4681W        W23535   2.271  16.659   3.664 -0.0609  0.1997 -0.2292
 4682W        W23536   7.496   1.582  14.601  0.0559  0.1100  0.0590
 4683W        W23537   9.940   4.199   0.035  0.0696 -0.2392  0.0696
 4684W        W23538   7.615   3.042  15.448  0.2277 -0.2319 -0.4166
 4685W        W23539   5.731   5.303  12.641  0.1955  0.3599  0.2021
 4686W        W23540   2.602   0.796   2.828 -0.1324 -0.1060 -0.0733
 4687W        W23541  12.244  16.620   2.466 -0.0662  0.0706  0.1396
 4688W        W23542   4.363  18.269   3.977  0.2002  0.0924 -0.0513
 4689W        W23543   4.718   2.064   1.954 -0.0452  0.1264  0.1330
 4690W        W23544  13.069  15.990   2.779 -0.0168 -0.2017 -0.1142
 4691W        W23545   2.111  11.715   1.178 -0.0149  0.1636 -0.2157
 4692W        W23546   7.148   8.392  11.304  0.2275 -0.1860 -0.1390
 4693W        W23547   5.609  15.302   2.512 -0.0887  0.1487  0.2352
 4694W        W23548  13.866  12.243  14.731  0.0045  0.0319  0.0154
 4695W        W23549   5.501   2.884  13.175 -0.2685  0.0080  0.0803
 4696W        W23550   3.229  15.894  12.499  0.2251 -0.1746 -0.0539
 4697W        W23551  16.951   4.871   4.266  0.3543  0.0769  0.0142
 4698W        W23552  15.453   3.176   1.234 -0.0808  0.1900  0.2496
 4699W        W23553  14.232   0.565  14.533 -0.0081 -0.1817 -0.0775
 4700W        W23554   2.906  15.598  11.148  0.1638 -0.6123 -0.0615
 4701W        W23555   3.872   0.350   1.782  0.0619 -0.2930 -0.0904
 4702W        W23556   8.390   7.644   0.350  0.2627 -0.0044  0.2561
 4703W        W23557   0.363   1.700   3.247  0.1980 -0.2250 -0.1232
 4704W        W23558   4.235  16.756  14.358 -0.1528  0.0343 -0.1120
 4705W        W23559   1.822   8.300  11.318  0.1265 -0.1382  0.1043
 4706W        W23560   9.878   6.854  14.223 -0.1715 -0.0795 -0.2646
 4707W        W23561  14.743   9.685   3.612 -0.0229 -0.4321 -0.0933
 4708W        W23562  14.369   2.028   0.075  0.0834 -0.0506 -0.1289
 4709W        W23563   1.612   8.476  13.855 -0.1790  0.0740 -0.0425
 4710W        W23564  15.650   8.752   1.114 -0.2185 -0.0123  0.0642
 4711W        W23565  17.756   2.064   0.395  0.1127 -0.1332  0.1321
 4712W        W23566   1.177   3.774   1.514  0.0736 -0.0755 -0.1843
 4713W        W23567   6.782   2.593   0.527 -0.3868 -0.0645 -0.0698
 4714W        W23568  17.758   9.962  14.976 -0.1939 -0.4496 -0.1221
 4715W        W23569   9.698  14.109   2.435 -0.2298 -0.2684  0.1851
 4716W        W23570  10.853  18.054  14.382  0.3747 -0.0867  0.0926
 4717W        W23571   3.956   0.088  13.158  0.2366 -0.0545 -0.0007
 4718W        W23572   8.216   1.940  14.775  0.2347 -0.2622  0.3809
 4719W        W23573  10.213   8.355   3.792 -0.0117  0.1645  0.0517
 4720W        W23574  17.605   8.373  11.436 -0.1378  0.0605 -0.0458
 4721W        W23575  11.963   9.013  11.781  0.4663  0.3234 -0.1267
 4722W        W23576  17.251  16.179   3.063  0.0762  0.0850  0.0115
 4723W        W23577   6.244   3.719   0.607 -0.0734  0.4042  0.3325
 4724W        W23578  13.249   0.153   1.474  0.1067  0.2352  0.2478
 4725W        W23579   7.752   7.264   1.437 -0.1919 -0.1964 -0.1084
 4726W        W23580   6.394   6.007   2.425  0.1541  0.0390  0.0949
 4727W        W23581   2.266   2.565  12.785  0.2324  0.2734  0.1118
 4728W        W23582  16.498  18.066  14.241 -0.0746 -0.1090  0.2037
 4729W        W23583  11.513  12.506   3.559  0.0468 -0.1107  0.0194
 4730W        W23584  14.482   2.972   4.300 -0.2065 -0.1454  0.2266
 4731W        W23585   5.444  14.470  11.102 -0.2626  0.1826  0.0186
 4732W        W23586  11.205   6.596   3.542  0.1025 -0.0966  0.0448
 4733W        W23587   3.172   7.794   0.565  0.0420  0.1754 -0.4905
 4734W        W23588   4.909   8.913   3.119 -0.3717 -0.0133 -0.0744
 4735W        W23589  13.547   4.208   1.450  0.0706  0.0372 -0.1600
 4736W        W23590   2.334   4.778   0.104 -0.3368 -0.2182  0.2951
 4737W        W23591  12.836   4.134   1.046  0.2190 -0.2637  0.0237
 4738W        W23592   5.489  15.805  14.094 -0.1054  0.1003 -0.2569
 4739W        W23593  12.585  14.323   2.223 -0.1226 -0.1082  0.2704
 4740W        W23594   3.719  15.012   1.991 -0.0248  0.0829  0.1740
 4741W        W23595   3.475   1.345   0.343  0.0003  0.0799 -0.3476
 4742W        W23596  14.308  13.069   1.719  0.1116 -0.0425  0.0537
 4743W        W23597  17.347   7.354   2.632 -0.2143  0.1381  0.3280
 4744W        W23598   0.222  15.099   2.039  0.0330  0.0273 -0.1602
 4745W        W23599  14.531   0.872   4.507 -0.1923 -0.0987  0.1506
 4746W        W23600  18.226  14.121   0.710  0.0652 -0.1592  0.1351
 4747W        W23601   5.130  14.444   0.586  0.1156  0.0815 -0.0768
 4748W        W23602  16.535   1.387   3.186  0.0074  0.0551  0.3846
 4749W        W23603   7.612   9.647  11.719 -0.0300 -0.3680 -0.4445
 4750W        W23604  15.128   7.581  11.873 -0.2353 -0.1527  0.0849
 4751W        W23605  18.514  16.668   3.111  0.1260  0.0664 -0.0409
 4752W        W23606  15.253   8.943  15.094 -0.4348 -0.1021  0.2257
 4753W        W23607   7.445  10.213  13.585 -0.1906 -0.1290  0.0409
 4754W        W23608  13.057   6.437   4.861 -0.0047 -0.0698 -0.1692
 4755W        W23609   6.156   0.006   4.148  0.1138 -0.2600 -0.0770
 4756W        W23610   1.286  14.329  12.392  0.0166 -0.0324 -0.1336
 4757W        W23611   0.474  13.633  14.604 -0.0178  0.2352 -0.2367
 4758W        W23612   9.624  10.423  11.593  0.2029 -0.0079  0.2668
 4759W        W23613  16.496   4.438   2.781 -0.0244 -0.2418 -0.0111
 4760W        W23614  15.824   6.556  13.990  0.1368 -0.1569 -0.3833
 4761W        W23615   8.879   8.764   0.214  0.0330  0.2552  0.0718
 4762W        W23616   1.779   3.392  10.836  0.1763  0.1867  0.0594
 4763W        W23617  16.604   8.061   0.774  0.1472 -0.1633  0.1651
 4764W        W23618   9.721   7.368  14.350 -0.1749 -0.0550  0.0824
 4765W        W23619   0.112  16.323  13.355  0.1488 -0.3109 -0.0512
 4766W        W23620  10.466   2.166  11.844  0.0544 -0.0851  0.1974
 4767W        W23621   4.323  11.620  14.810  0.0493  0.1555 -0.2128
 4768W        W23622  10.002   8.631  12.101 -0.1886 -0.2028  0.2596
 4769W        W23623   4.612  15.084   1.586  0.2337  0.1006 -0.3567
 4770W        W23624  17.793  10.087  14.052  0.2660  0.2355  0.2974
 4771W        W23625   6.724   4.879  11.289 -0.3100 -0.0512 -0.3802
 4772W        W23626   2.424  11.000   4.050 -0.3571 -0.1548  0.3687
 4773W        W23627   1.802   8.894  11.914 -0.1593 -0.0342 -0.1397
 4774W        W23628  11.166   3.972   3.378 -0.1016  0.1814 -0.0898
 4775W        W23629  12.876   3.689  12.411  0.0567 -0.3158 -0.2277
 4776W        W23630  16.183  14.764   4.140 -0.2190 -0.2382  0.0636
 4777W        W23631   2.358   3.972   2.037 -0.0072  0.1774  0.1463
 4778W        W23632   4.365   7.143  13.072 -0.1452 -0.4062 -0.1666
 4779W        W23633   4.395   9.209   2.128  0.1232  0.0331 -0.0761
 4780W        W23634   7.906   0.318  14.766 -0.0334 -0.0118 -0.0798
 4781W        W23635  16.056   1.665  13.621 -0.0195 -0.1696  0.4700
 4782W        W23636   2.524   6.682  11.050  0.1779  0.0686  0.0578
 4783W        W23637   5.448   4.022  11.247 -0.0163 -0.1523  0.1535
 4784W        W23638  10.019  10.172  12.953  0.4045  0.1321 -0.2169
 4785W        W23639  13.470   0.905  13.342  0.2417  0.1787  0.0305
 4786W        W23640  14.655   1.647  12.212  0.0349  0.5436 -0.1515
 4787W        W23641   9.251  12.812   1.839  0.0964 -0.0440  0.3361
 4788W        W23642   2.423  12.361   2.278  0.1902  0.2034 -0.1803
 4789W        W23643   7.247  17.477   3.377 -0.0204  0.0335  0.3738
 4790W        W23644   2.526  13.979   0.773 -0.1166  0.1491 -0.1699
 4791W        W23645  14.783   6.406   0.310  0.1542  0.2522  0.1770
 4792W        W23646  15.868  15.343   4.774  0.0298 -0.0450 -0.1513
 4793W        W23647   5.483   9.689   2.776  0.0746 -0.0169  0.0311
 4794W        W23648  11.012  16.037  15.300  0.1426 -0.0637  0.0927
 4795W        W23649   4.728  13.190   1.775  0.0067 -0.1242  0.1218
 4796W        W23650  10.540   1.835   2.102 -0.1700  0.3860 -0.1654
 4797W        W23651  14.821   2.159  11.637 -0.0792 -0.0334 -0.1769
 4798W        W23652   1.620  17.006  13.813  0.2354  0.0375 -0.0079
 4799W        W23653   9.285  15.557  12.370 -0.1081 -0.0088 -0.0509
 4800W        W23654  14.483   2.694   2.411  0.0014 -0.0459 -0.1620
 4801W        W23655   7.254   1.104   3.150 -0.0993  0.1341  0.1655
 4802W        W23656  17.151   0.021  13.234 -0.2028  0.4223  0.0667
 4803W        W23657  13.520   2.965   0.506 -0.1035  0.0819 -0.3240
 4804W        W23658   9.296   8.767  12.160  0.1483 -0.0555 -0.1808
 4805W        W23659  12.834  11.893   5.240 -0.2545  0.1157 -0.0658
 4806W        W23660   4.010  12.153   3.523  0.0421  0.1627  0.1599
 4807W        W23661   8.046  11.044  13.630 -0.0113 -0.3238 -0.1208
 4808W        W23662   2.469  13.416  11.179 -0.0546 -0.3351  0.3275
 4809W        W23663   8.906  10.261   0.237 -0.0201  0.2539  0.0654
 4810W        W23664  12.071  10.633  12.914  0.1033 -0.2801  0.1839
 4811W        W23665  17.941  10.866   2.316 -0.3419 -0.0121 -0.1338
 4812W        W23666  14.779   6.258   3.682 -0.1513 -0.1367  0.1171
 4813W        W23667   2.324  14.951   4.534  0.2719 -0.2048  0.2053
 4814W        W23668  18.150   1.983   5.430 -0.3708  0.0038  0.0039
 4815W        W23669   3.007   4.939  14.238 -0.2237  0.0447 -0.1384
 4816W        W23670   2.518  12.710   1.244 -0.0390  0.0523  0.3383
 4817W        W23671  12.930  16.997   1.424  0.1390 -0.0996  0.0404
 4818W        W23672  17.343  16.984   0.551 -0.2942 -0.1761 -0.1722
 4819W        W23673   4.223   9.634  15.037  0.0665 -0.1598 -0.1444
 4820W        W23674  10.168  11.530   0.552 -0.0617  0.0331  0.1271
 4821W        W23675   8.668   0.038  13.489  0.0409 -0.0300  0.3219
 4822W        W23676  13.750  18.346   4.200 -0.4195  0.0536 -0.1247
 4823W        W23677   2.864   1.884   2.891 -0.1667 -0.3970 -0.1980
 4824W        W23678   5.309   7.845   0.891 -0.1352 -0.0652 -0.1175
 4825W        W23679   7.133   8.235  13.090  0.1472  0.0270  0.6119
 4826W        W23680  16.353  16.310  14.183  0.2114  0.3794 -0.2717
 4827W        W23681   0.311  12.958  14.969  0.0091 -0.2288  0.1681
 4828W        W23682   9.960   0.089  12.405  0.2231  0.1624  0.0481
 4829W        W23683   2.377   9.465  11.573  0.1257 -0.1472 -0.1370
 4830W        W23684   6.287   7.627  13.746 -0.1409  0.0101  0.0788
 4831W        W23685  11.846   4.649  12.265 -0.1937 -0.0749  0.0859
 4832W        W23686  14.365   3.520  11.753  0.0951 -0.2718  0.4477
 4833W        W23687   4.747   5.839   0.308  0.2993 -0.1723  0.0398
 4834W        W23688   2.787   5.467   1.336  0.2811 -0.0310  0.1981
 4835W        W23689   8.009   7.347   3.101 -0.1252  0.2345 -0.0328
 4836W        W23690  14.856  15.459  14.102 -0.1445 -0.0664 -0.1862
 4837W        W23691  11.975  12.989  12.444  0.0030  0.2060  0.0365
 4838W        W23692  10.353   3.933  12.885  0.0771 -0.1249  0.2079
 4839W        W23693  17.544  18.221   4.967 -0.3021  0.1359  0.0229
 4840W        W23694  16.446   9.549   3.057 -0.1232 -0.1334 -0.2053
 4841W        W23695   7.543  15.702  13.212  0.0087  0.2050 -0.0970
 4842W        W23696   9.424   7.554  12.463 -0.1902  0.0198 -0.2139
 4843W        W23697   9.422   0.411   2.982 -0.0352  0.0434  0.2925
 4844W        W23698  17.845   4.948   2.250 -0.0707 -0.1676 -0.0866
 4845W        W23699   4.977   5.250   0.601 -0.4044  0.2218  0.1861
 4846W        W23700  13.459  14.793   1.164  0.1655  0.4443  0.2123
 4847W        W23701  16.167   1.532   0.787  0.1764 -0.1299  0.1015
 4848W        W23702  16.124   0.665   2.753 -0.1104 -0.0213  0.2103
 4849W        W23703   4.982  10.339  12.508 -0.2452 -0.1175 -0.1657
 4850W        W23704   1.353  14.589  13.189 -0.2206 -0.2197  0.0608
 4851W        W23705   2.856   9.385   3.472  0.1287  0.2283  0.1484
 4852W        W23706   0.270  17.838  11.123  0.1844 -0.0857 -0.1813
 4853W        W23707  17.761   6.499   4.036  0.0691 -0.0346  0.0496
 4854W        W23708  12.353  15.622   2.131  0.1824 -0.3614  0.0789
 4855W        W23709   2.740   4.018  13.519 -0.1493 -0.2074  0.0489
 4856W        W23710  17.258  14.378  15.282  0.1638  0.0112 -0.1737
 4857W        W23711  14.627   3.492  14.296  0.0634 -0.3221  0.1597
 4858W        W23712  15.015  10.206  11.591 -0.3468  0.1063 -0.1641
 4859W        W23713   8.170  17.500  14.437 -0.1116 -0.0257  0.2875
 4860W        W23714   2.907   2.132   4.573 -0.1603  0.0073  0.2198
 4861W        W23715  11.408   8.017  11.855  0.1212 -0.1783  0.0712
 4862W        W23716   9.644  13.313   0.028  0.0458 -0.0849 -0.0436
 4863W        W23717  11.468   9.847   1.280 -0.0103  0.0893  0.0874
 4864W        W23718   7.944   6.333   0.720 -0.0885 -0.1198  0.1675
 4865W        W23719  12.936   6.964   3.266 -0.1275  0.3833  0.0930
 4866W        W23720   5.167   4.655  13.325 -0.0220  0.1691  0.2195
 4867W        W23721  13.331  13.873   0.762  0.3728  0.2925  0.1917
 4868W        W23722  14.130   4.362  11.901 -0.1058 -0.1940  0.0068
 4869W        W23723   8.631   9.686   0.773  0.2011  0.2239  0.1849
 4870W        W23724   9.677   2.450   3.093 -0.0068 -0.1726  0.0871
 4871W        W23725  14.488  17.376   1.407 -0.1111 -0.5053  0.0640
 4872W        W23726   5.020  14.948   3.540 -0.0288  0.0057  0.3675
 4873W        W23727  17.657  15.164   0.408  0.1505 -0.2733  0.0103
 4874W        W23728   7.054   0.968  15.113  0.0830 -0.3217 -0.1257
 4875W        W23729   7.290   9.389  11.469  0.1310  0.0338  0.1398
 4876W        W23730   5.662   2.924  12.319  0.0102  0.2448  0.0920
 4877W        W23731  10.478  12.582  11.602  0.2805  0.1599 -0.1005
 4878W        W23732  16.657  11.300   2.237 -0.0880  0.2435  0.0346
 4879W        W23733  14.164  12.979  13.205 -0.0938 -0.0403  0.2395
 4880W        W23734   9.068   0.029  13.950  0.3085  0.1164 -0.0842
 4881W        W23735   0.383  18.473  15.165  0.0268 -0.1188  0.0486
 4882W        W23736  14.330  18.375   5.374 -0.1660  0.2700 -0.3797
 4883W        W23737   6.870   6.057   1.126  0.2406  0.2234 -0.7988
 4884W        W23738  18.249  14.569  11.043 -0.1088  0.3007  0.0678
 4885W        W23739  18.204   4.491   0.673  0.0168 -0.2946 -0.0408
 4886W        W23740   1.477   5.003   0.881  0.1340  0.1697 -0.3008
 4887W        W23741   9.636  15.037   4.679  0.1166  0.0170  0.2017
 4888W        W23742   6.925   2.350   4.448  0.1333  0.0669  0.3121
 4889W        W23743   6.924  11.708  10.780 -0.1695 -0.0602 -0.3662
 4890W        W23744   6.279  18.073   1.020 -0.4884  0.0619  0.2613
 4891W        W23745   3.017   2.669   3.350  0.2092  0.3321  0.0383
 4892W        W23746  18.017  18.296  13.762 -0.0805  0.1609 -0.1656
 4893W        W23747   2.756   9.776   2.650 -0.1929  0.2722 -0.0520
 4894W        W23748   6.940  17.204   3.680  0.0859  0.0851 -0.1054
 4895W        W23749   3.767   2.553   1.084 -0.1866 -0.0408 -0.0918
 4896W        W23750   7.065   2.282   0.750  0.2145  0.1944 -0.1643
 4897W        W23751   6.818  16.737  13.953 -0.0041  0.0360  0.1041
 4898W        W23752   9.796  15.644  12.333  0.2855 -0.2035  0.1342
 4899W        W23753   9.420  13.627  15.031  0.1852  0.2854  0.3617
 4900W        W23754  17.605   1.240   2.313  0.1882 -0.4209 -0.0551
 4901W        W23755   2.884  18.228   4.381 -0.2011  0.1229 -0.0026
 4902W        W23756   4.457   1.182   3.677  0.1106  0.0603 -0.1253
 4903W        W23757   8.070  15.564   1.640  0.1752  0.2316  0.1782
 4904W        W23758   0.753  12.624   0.176  0.0336  0.0745  0.0773
 4905W        W23759   5.499  11.571  12.080 -0.3013  0.1370 -0.2731
 4906W        W23760   9.945   8.306   4.323  0.2743 -0.0950  0.2056
 4907W        W23761   7.763  18.214  15.130  0.1152  0.3788 -0.2185
 4908W        W23762  10.950  13.646   5.998 -0.1644 -0.2212  0.1060
 4909W        W23763  16.366  15.359  15.400 -0.0382  0.1976 -0.2583
 4910W        W23764  10.413  10.036  13.264  0.0693  0.0099  0.0821
 4911W        W23765  10.088  16.039   2.542  0.1866  0.2132  0.0073
 4912W        W23766  16.380   0.709  14.673  0.3362 -0.0095  0.1119
 4913W        W23767   8.022   7.020   3.459 -0.0888 -0.4316  0.2574
 4914W        W23768  17.825   7.210   1.314  0.1510  0.0779  0.1282
 4915W        W23769  12.241  12.450   2.342 -0.0667 -0.0118  0.2211
 4916W        W23770   5.802   7.871   3.388  0.0040  0.3634 -0.1023
 4917W        W23771   1.436  11.966   2.525  0.1063  0.0926  0.0986
 4918W        W23772   4.242  14.490   0.023 -0.1519  0.3569  0.0578
 4919W        W23773  12.241   9.750  12.172  0.0835 -0.1567 -0.0182
 4920W        W23774  10.469   5.728   3.164 -0.3744 -0.1034  0.3813
 4921W        W23775   8.842   2.329   5.460 -0.0112  0.1006  0.1727
 4922W        W23776   9.291   4.793  12.464 -0.2150  0.2670 -0.3504
 4923W        W23777  17.202   8.558   3.732  0.1808 -0.0020  0.0682
 4924W        W23778  12.852   4.640   4.035  0.1972 -0.2189 -0.0799
 4925W        W23779  17.404  15.883   3.454 -0.3309 -0.0441 -0.1227
 4926W        W23780  13.947  15.232  14.982 -0.1468  0.1680  0.0273
 4927W        W23781  18.477   9.846  13.074 -0.2123 -0.1274 -0.0498
 4928W        W23782  17.048  11.723   9.890 -0.0537 -0.1146 -0.2473
 4929W        W23783   4.561   1.714   1.701 -0.0200  0.1337 -0.0024
 4930W        W23784   3.267   3.125  11.030 -0.1047  0.0635 -0.2416
 4931W        W23785   9.981  12.405   0.637 -0.1333  0.0287 -0.1792
 4932W        W23786  17.643   5.059  15.396 -0.0328 -0.0794  0.3187
 4933W        W23787  17.252   6.831   3.303  0.1188  0.0950 -0.1200
 4934W        W23788   4.958  15.455  11.784  0.0602  0.1793  0.2266
 4935W        W23789   9.333  13.353   0.429 -0.0370 -0.0393  0.0687
 4936W        W23790   4.922   5.452   1.806 -0.0583  0.0016  0.4230
 4937W        W23791   3.010   8.313   3.665  0.1553 -0.1781  0.3907
 4938W        W23792   9.257  17.308   4.291 -0.3544  0.2932  0.0223
 4939W        W23793  15.875  13.018  14.796  0.2778 -0.1938  0.0172
 4940W        W23794  16.840  16.965   2.021 -0.3477  0.0591 -0.1131
 4941W        W23795   2.429   3.453   3.381  0.0076 -0.3728 -0.2575
 4942W        W23796   5.146   8.357  11.970 -0.1191  0.3948  0.2316
 4943W        W23797   7.923   7.717   1.750  0.1471  0.0728  0.2403
 4944W        W23798  14.997   6.322  15.213  0.2566 -0.0027 -0.3829
 4945W        W23799  16.041  13.669   2.465  0.0630  0.2191 -0.1149
 4946W        W23800  15.819  17.649   1.050 -0.1522  0.1705 -0.2769
 4947W        W23801   4.602  13.997  11.564  0.0189  0.0209  0.1683
 4948W        W23802  17.521   2.001   3.979 -0.0252 -0.5126 -0.0131
 4949W        W23803  17.903   6.075  11.516  0.0113  0.1858  0.2578
 4950W        W23804   4.911  11.226   3.248  0.0533 -0.1734 -0.1396
 4951W        W23805  17.763   0.306  12.509  0.1175  0.1532  0.1259
 4952W        W23806   5.726   9.754   1.771 -0.0826 -0.2245  0.0028
 4953W        W23807  10.587  13.071   1.713  0.0118 -0.2416  0.2951
 4954W        W23808  11.848   8.457   1.615 -0.1955 -0.3052  0.1728
 4955W        W23809   7.780  14.942   0.092  0.1335  0.2060 -0.0728
 4956W        W23810  13.068   1.644   0.716  0.0926 -0.1195  0.0784
 4957W        W23811  16.203  17.123   0.488 -0.2299 -0.0638  0.1417
 4958W        W23812  17.910   2.359   3.904 -0.2021  0.1633  0.1977
 4959W        W23813  12.413  17.309  12.647  0.2823 -0.0318 -0.0902
 4960W        W23814   4.937   8.341   4.385 -0.1312 -0.1474  0.1318
 4961W        W23815   8.150  11.741  12.441  0.0294 -0.3972  0.0152
 4962W        W23816  13.035   9.124  13.255 -0.1252 -0.0253 -0.1112
 4963W        W23817  11.774   4.921  11.819 -0.3274  0.3246 -0.0009
 4964W        W23818   8.910   2.540   3.798  0.1131 -0.0699 -0.1354
 4965W        W23819  10.408   2.807   1.159 -0.1716 -0.1808  0.2351
 4966W        W23820  15.637   8.552  12.430  0.3694 -0.2751  0.0290
 4967W        W23821  17.714  11.039   3.893 -0.2139  0.2096  0.2699
 4968W        W23822   1.230  18.563   4.421 -0.1870 -0.0078 -0.2172
 4969W        W23823  16.128   4.658  11.563  0.1851 -0.0860  0.2095
 4970W        W23824   3.398   6.882   3.963 -0.0785 -0.0884 -0.1341
 4971W        W23825  14.264   7.208  11.897 -0.1391  0.2051 -0.0841
 4972W        W23826  16.607   1.868   0.885  0.3642 -0.1232 -0.1406
 4973W        W23827   3.018  16.796  13.742  0.1818 -0.0650  0.6462
 4974W        W23828   3.094   0.911   2.714 -0.2972 -0.0987  0.0242
 4975W        W23829   4.390   3.633  12.181 -0.2143 -0.0535 -0.0863
 4976W        W23830   0.885   1.003  11.335 -0.0744 -0.3337 -0.0335
 4977W        W23831  13.201  11.532   1.883  0.0395 -0.0997  0.0341
 4978W        W23832   4.393  16.764   0.615 -0.0167  0.0443  0.2365
 4979W        W23833   6.472  14.286  12.195 -0.2619 -0.2456  0.1833
 4980W        W23834   6.456   1.358   1.271 -0.3389  0.1378 -0.0440
 4981W        W23835  13.123  18.342   2.135  0.2343  0.3638  0.1407
 4982W        W23836  17.718   9.303  12.594  0.1108 -0.0218 -0.1756
 4983W        W23837   0.128   5.711  14.364 -0.1584  0.0638  0.3073
 4984W        W23838   0.354   9.169  12.823  0.4046  0.0427 -0.2013
 4985W        W23839   4.073   0.491   0.411 -0.0232  0.2487 -0.0668
 4986W        W23840  18.209   7.912   0.405  0.0515 -0.1423 -0.4226
 4987W        W23841   8.126   3.153   4.618 -0.0316  0.3779  0.0070
 4988W        W23842   2.999   7.956  13.645 -0.1400  0.0926 -0.0616
 4989W        W23843   9.215   8.736  15.349  0.0763  0.0685 -0.0901
 4990W        W23844   6.220  14.609   3.525  0.3164  0.2609  0.0498
 4991W        W23845   5.388  11.376  10.842 -0.0131 -0.0209 -0.0057
 4992W        W23846   0.034  13.781  13.609 -0.2454 -0.1977  0.2040
 4993W        W23847   1.562   5.524  14.892  0.2748 -0.3463  0.1602
 4994W        W23848   0.355  13.171  14.513  0.2668 -0.0943 -0.0868
 4995W        W23849  13.809   2.945   2.894 -0.1144 -0.2895 -0.0582
 4996W        W23850  12.557   5.522   3.164  0.0361  0.1855  0.2044
 4997W        W23851  11.484  15.540  13.122  0.0609  0.2376 -0.2777
 4998W        W23852   8.425   7.808  14.988  0.1149 -0.1757 -0.3065
 4999W        W23853   0.326   3.506   1.751  0.1345 -0.0926 -0.3675
 5000W        W23854  13.502   6.518   1.719 -0.0349 -0.2068  0.0804
 5001W        W23855   0.300  11.775  11.488 -0.1527  0.3041 -0.0162
 5002W        W23856   1.765  14.291   3.618 -0.0491  0.0187  0.3519
 5003W        W23857   7.556   7.291   1.914 -0.1595  0.1781 -0.1404
 5004W        W23858   6.197   3.098   4.237 -0.2798 -0.3705  0.1677
 5005W        W23859   3.470   6.892   2.611 -0.0265  0.0482  0.2267
 5006W        W23860  11.657  15.608  11.209 -0.2133  0.1756  0.0727
 5007W        W23861   9.334  16.022   1.746 -0.1367  0.0866 -0.1938
 5008W        W23862  11.027   8.923  10.506 -0.0911  0.0116 -0.0630
 5009W        W23863   3.231  11.806  14.339 -0.2237 -0.1469 -0.0508
 5010W        W23864   7.309  11.806   1.725  0.1978 -0.0061 -0.0659
 5011W        W23865   0.654   8.555  15.420 -0.1706  0.1280 -0.3011
 5012W        W23866  14.748   0.851   2.393 -0.1308  0.1590  0.2318
 5013W        W23867  16.849   3.180  13.956  0.1866 -0.1672  0.1804
 5014W        W23868   1.912  16.059   1.559 -0.2978  0.0330 -0.0400
 5015W        W23869   3.840   7.868  15.331  0.3302  0.2636  0.0654
 5016W        W23870   7.575   4.184   1.416  0.0471  0.1148  0.0168
 5017W        W23871  15.404   9.405  15.004 -0.1902 -0.1750  0.0158
 5018W        W23872   0.396   3.113  13.737 -0.1856 -0.1706 -0.0898
 5019W        W23873  15.114   0.186   4.925  0.1208 -0.0669 -0.1587
 5020W        W23874  15.632  13.502   5.014  0.2249  0.0247 -0.1394
 5021W        W23875   2.909   6.682   3.318 -0.0023 -0.2082 -0.4450
 5022W        W23876   0.922   7.700   0.096 -0.1975  0.0592 -0.2317
 5023W        W23877   3.795  11.129   1.050 -0.0821 -0.1101  0.0985
 5024W        W23878  14.819  18.053   1.107  0.0229  0.1477  0.2039
 5025W        W23879  15.289  15.440   3.955  0.1877  0.0169  0.3050
 5026W        W23880   0.780  10.312   0.039 -0.3495  0.0349  0.1315
 5027W        W23881  13.900  12.051   2.694 -0.1456 -0.0557 -0.0557
 5028W        W23882  13.906  16.882   2.819 -0.2012 -0.0804  0.1040
 5029W        W23883   2.400  11.739   5.048  0.0040  0.0033  0.3459
 5030W        W23884  15.666  14.479   3.096 -0.1554  0.3338 -0.0390
 5031W        W23885   5.805  14.871  13.342 -0.2101 -0.0795  0.1299
 5032W        W23886   9.542   4.291   1.892 -0.1090 -0.1836 -0.2496
 5033W        W23887   1.202   4.332  13.652  0.0362 -0.3891 -0.2396
 5034W        W23888   3.592  18.138  14.076 -0.0668 -0.0931  0.1714
 5035W        W23889  16.159  13.845   3.961  0.0983  0.3734  0.1528
 5036W        W23890  16.112   5.291  15.259 -0.1102  0.1731 -0.0579
 5037W        W23891  11.789   8.903   1.234 -0.1354  0.0834  0.0462
 5038W        W23892  11.402  17.941  11.801 -0.1144 -0.2478 -0.1891
 5039W        W23893   9.510   0.065  12.202  0.3344 -0.0830  0.1912
 5040W        W23894  12.129  18.201   2.649  0.0262  0.3710  0.0687
 5041W        W23895   3.244   0.510   3.044 -0.1140  0.0302  0.1666
 5042W        W23896   7.935  17.131  15.395 -0.2195  0.0197 -0.5477
 5043W        W23897  14.481   3.092   2.757  0.2179 -0.1038 -0.1062
 5044W        W23898  15.203  14.040   1.181  0.0107 -0.2019 -0.0500
 5045W        W23899  13.849   1.310  13.562  0.0068  0.0027 -0.2117
 5046W        W23900  14.909  18.352  14.505  0.1233 -0.1246  0.1243
 5047W        W23901   4.195   4.746   1.756  0.3103  0.1217 -0.1679
 5048W        W23902   8.991  17.399   2.317  0.0179 -0.0819 -0.1894
 5049W        W23903   7.462  14.413  11.844 -0.2587  0.0766  0.0397
 5050W        W23904   2.303   1.694   9.859  0.5960  0.1382 -0.0523
 5051W        W23905  16.625   8.750   4.341 -0.2692  0.3318 -0.3496
 5052W        W23906  10.392   7.940   1.423 -0.0440 -0.0708  0.0904
 5053W        W23907  16.193   8.480  11.846  0.0815 -0.0153 -0.0096
 5054W        W23908   4.539   6.355   0.170  0.3107  0.0866  0.1989
 5055W        W23909   2.962  10.750  11.967  0.1846 -0.3068  0.1171
 5056W        W23910   7.738   5.017  14.182 -0.0258  0.1155 -0.1147
 5057W        W23911  17.104   4.160   5.116 -0.1093  0.1043 -0.2240
 5058W        W23912   1.177  15.817   1.541  0.1989 -0.0674  0.0811
 5059W        W23913  16.220   3.499   4.306 -0.2738  0.0609  0.1776
 5060W        W23914   8.229   6.468  12.444 -0.0030 -0.1221 -0.0136
 5061W        W23915  14.275   7.701  14.366  0.0053  0.0900  0.3060
 5062W        W23916  13.755   5.726  15.287 -0.2344 -0.1714  0.1556
 5063W        W23917   0.926  11.342  14.288 -0.0354  0.0237 -0.1887
 5064W        W23918   0.292   6.605  13.786  0.0762  0.0150 -0.1256
 5065W        W23919   5.534   0.246  11.992  0.0219 -0.0630  0.0452
 5066W        W23920   9.733   0.987   3.735 -0.0153  0.1634 -0.0185
 5067W        W23921   5.632   9.568  13.784 -0.1020 -0.1160  0.2445
 5068W        W23922  16.988   3.642  10.647  0.3429 -0.0699 -0.0263
 5069W        W23923  14.318   4.245   2.410  0.0747  0.0277 -0.1854
 5070W        W23924  17.968   3.752  12.100  0.0644 -0.3267 -0.2296
 5071W        W23925   6.280   5.926  10.156  0.2554 -0.2544  0.0652
 5072W        W23926   0.843  18.224  11.714 -0.2256 -0.1115  0.2289
 5073W        W23927  11.781   5.968   4.495  0.0080  0.0635 -0.1795
 5074W        W23928  17.000  13.816   3.448 -0.3424 -0.0370 -0.1117
 5075W        W23929  11.320  18.023   4.790  0.0372 -0.1422 -0.2222
 5076W        W23930  11.897   6.173  15.035 -0.0830 -0.0261  0.1275
 5077W        W23931   3.133   4.921  12.268  0.0359  0.6239  0.1747
 5078W        W23932   1.147   7.183   3.362 -0.0627  0.3997  0.0801
 5079W        W23933  10.262  13.918   5.368  0.0867 -0.3757 -0.2382
 5080W        W23934   2.289   4.899   1.578 -0.1189 -0.0737  0.3791
 5081W        W23935  14.722   9.195   2.832 -0.2329 -0.1306 -0.1850
 5082W        W23936  10.768   4.287   4.585 -0.0477 -0.1685 -0.0343
 5083W        W23937   7.112   4.230   5.342  0.0681 -0.0484  0.2395
 5084W        W23938   0.452  18.264   4.126 -0.3169 -0.4174 -0.2238
 5085W        W23939  16.963   9.622  15.179  0.1719 -0.1804  0.0572
 5086W        W23940   8.222  12.828   2.950  0.0336 -0.0593  0.2205
 5087W        W23941   6.796  12.602   1.168  0.0050 -0.0575 -0.1330
 5088W        W23942  10.837   0.534  15.054 -0.0816 -0.0396 -0.2246
 5089W        W23943   2.953  18.487  13.018 -0.2095 -0.1232 -0.1000
 5090W        W23944   6.806  10.089  11.285 -0.0821  0.1799  0.1603
 5091W        W23945   9.245  12.685  14.870 -0.1796 -0.0182  0.0903
 5092W        W23946   1.252  12.229  10.247  0.1208  0.0726  0.3869
 5093W        W23947   0.273   1.751   4.466 -0.1452 -0.0213  0.2405
 5094W        W23948   9.348   9.151  14.425  0.1377 -0.1362 -0.0311
 5095W        W23949   9.019   9.255   2.040  0.1617 -0.0471  0.1295
 5096W        W23950   6.652   0.252  11.908 -0.0645 -0.1436 -0.0704
 5097W        W23951   3.698  14.672  11.461 -0.0338  0.1797  0.0257
 5098W        W23952   4.512   8.751   1.214  0.1234  0.1030  0.1227
 5099W        W23953  15.891  11.475   2.783  0.1091 -0.1551  0.0718
 5100W        W23954   0.207  17.905   1.707  0.0212 -0.2287 -0.0602
 5101W        W23955   8.136  16.815  10.930  0.3654 -0.0279  0.3405
 5102W        W23956   7.486   0.954  12.803 -0.2900 -0.1833  0.2199
 5103W        W23957   7.754   1.426  11.552  0.3517  0.3568 -0.1622
 5104W        W23958  13.440   0.666   4.183 -0.0136 -0.2116 -0.2502
 5105W        W23959  18.126   9.016  11.908 -0.2149 -0.0167 -0.0607
 5106W        W23960  12.371  11.119   3.188 -0.2272  0.1008  0.0655
 5107W        W23961  12.753   0.246   1.280 -0.0110 -0.0577  0.0407
 5108W        W23962  14.824  17.828   4.574  0.0264  0.0900 -0.0050
 5109W        W23963   7.402   8.263   3.993 -0.1977  0.0408 -0.0001
 5110W        W23964   1.067  15.111  13.609 -0.2598  0.0409  0.0321
 5111W        W23965   5.316   5.707  14.471  0.4022  0.1886  0.1952
 5112W        W23966  16.503   3.179   1.151 -0.0866 -0.3694 -0.1073
 5113W        W23967   4.932   3.406   0.595 -0.1616  0.2232  0.2038
 5114W        W23968   1.520  15.458  13.960 -0.0525  0.3916 -0.1390
 5115W        W23969  13.379   4.076  11.628 -0.0666  0.3633 -0.0429
 5116W        W23970   0.974  16.823  12.940 -0.1641 -0.2209  0.0714
 5117W        W23971   9.784  10.748   4.136 -0.2287 -0.0499  0.0430
 5118W        W23972  15.024  16.888  15.214 -0.0748  0.1364  0.1320
 5119W        W23973   5.856   1.420  13.277  0.0822 -0.0629  0.0581
 5120W        W23974   1.306   7.775  11.829  0.0744 -0.1019  0.4745
 5121W        W23975  16.461   5.627  13.144  0.0819  0.5065  0.2649
 5122W        W23976  13.865   1.244   4.263  0.0094  0.1035 -0.0486
 5123W        W23977   9.946   0.644   2.066  0.2706  0.0357  0.1480
 5124W        W23978  17.662   4.315  10.403  0.4755 -0.1402  0.1924
 5125W        W23979   6.412  17.164   2.438 -0.0858  0.0945  0.0099
 5126W        W23980   8.506   3.911   2.417 -0.0779 -0.1771  0.0708
 5127W        W23981   5.497  11.758   1.388  0.0445  0.1273  0.1488
 5128W        W23982   8.579   6.358   1.539 -0.0884  0.1285  0.2557
 5129W        W23983  15.259  15.404   2.572  0.1294 -0.0026 -0.0131
 5130W        W23984   6.296  10.081  11.512  0.0713  0.0883  0.0891
 5131W        W23985   5.491   2.613  10.881  0.1645  0.0087  0.0504
 5132W        W23986  17.572  16.128  14.000 -0.0511  0.1618 -0.0461
 5133W        W23987   8.703  10.363  11.349 -0.0711 -0.2964  0.3310
 5134W        W23988  13.254  15.792  11.433  0.0087  0.0296 -0.0450
 5135W        W23989  13.997   3.688   0.905  0.0037  0.1202 -0.1808
 5136W        W23990   3.551   8.723   0.026  0.1628  0.2090  0.1265
 5137W        W23991   9.306   5.395   5.419  0.0353  0.0287  0.1531
 5138W        W23992   8.909   2.208  14.162  0.1856  0.0217 -0.1683
 5139W        W23993  10.030  18.003  10.813 -0.0479 -0.2505  0.0887
 5140W        W23994   1.301  15.942  14.745  0.4078  0.0860 -0.0642
 5141W        W23995   0.445   0.305   0.036  0.0187 -0.2240  0.3383
 5142W        W23996   4.326  17.754   3.925 -0.1614 -0.1611  0.0276
 5143W        W23997   9.304   8.832   3.268 -0.0696 -0.1232  0.0395
 5144W        W23998  10.626   6.175  10.412  0.1006  0.0082  0.0103
 5145W        W23999  15.586  13.308   2.502 -0.2436  0.1578 -0.1260
 5146W        W24000  14.868  13.826  14.767  0.1100  0.0426  0.2301
 5147W        W24001   9.749  17.107   4.177  0.0026  0.2193 -0.0855
 5148W        W24002  14.835   6.488   5.662  0.1897 -0.1466 -0.1241
 5149W        W24003  16.406   5.936  14.235 -0.2914 -0.5080  0.0751
 5150W        W24004   2.834  13.229  14.111 -0.0100  0.0295  0.0649
 5151W        W24005   5.964  14.695  10.470 -0.1516  0.0883 -0.3473
 5152W        W24006   5.038   9.610   1.849  0.1479  0.1449 -0.2389
 5153W        W24007   9.399  13.406  10.769  0.0368 -0.1905 -0.2340
 5154W        W24008  15.109   7.675   3.593  0.0154  0.0789 -0.0353
 5155W        W24009  11.019  12.469  11.800  0.0940  0.0258  0.1546
 5156W        W24010   5.872   5.724  13.718  0.1736  0.1468  0.2820
 5157W        W24011  10.934  15.902  13.638 -0.0744  0.1221 -0.3068
 5158W        W24012   7.573  13.470  15.330 -0.0483  0.0847 -0.0064
 5159W        W24013   8.558   1.921  13.822 -0.4682  0.0800  0.1560
 5160W        W24014   1.681  11.718  14.416 -0.2249  0.3613  0.3602
 5161W        W24015   4.567   5.590   2.097  0.1448  0.3572 -0.0569
 5162W        W24016   7.991  10.385  12.062 -0.0511  0.0966  0.0615
 5163W        W24017  12.917  16.568   1.735 -0.0168  0.1255 -0.1002
 5164W        W24018   6.179  17.263   1.955 -0.1595  0.0457  0.0979
 5165W        W24019  10.921   9.368   3.449  0.1779  0.1471 -0.1862
 5166W        W24020   8.840  10.039  14.797 -0.2543 -0.0860  0.1339
 5167W        W24021  15.754   0.014  15.144 -0.1208  0.1299  0.3351
 5168W        W24022   6.917  18.358  14.528  0.1920  0.0618  0.1778
 5169W        W24023   5.962   3.436  10.513  0.1337 -0.0763  0.3416
 5170W        W24024  12.806   4.466   1.973 -0.3797 -0.0862  0.0994
 5171W        W24025  17.079   6.121   1.705  0.2089  0.0605 -0.3134
 5172W        W24026  14.102   9.940   4.372 -0.0165  0.1048 -0.1290
 5173W        W24027  11.648   9.478  12.938  0.2131  0.1206  0.1068
 5174W        W24028  13.131   4.645  12.038 -0.0877 -0.0068  0.1151
 5175W        W24029   8.963   0.424  11.622 -0.4440 -0.0398  0.0610
 5176W        W24030   5.923   5.272   3.780  0.2055 -0.3055 -0.2288
 5177W        W24031  13.483   3.503  15.129  0.3039 -0.2025  0.3580
 5178W        W24032  18.366  10.706   2.109  0.1229 -0.1618 -0.2721
 5179W        W24033   8.933   0.416  13.143 -0.0657  0.4278  0.0266
 5180W        W24034  11.702  10.695  12.509  0.1749  0.4410 -0.0131
 5181W        W24035  13.235   2.199  11.529 -0.0543  0.2553 -0.0984
 5182W        W24036  17.173   6.403  12.140  0.0069  0.1966  0.0979
 5183W        W24037   5.129   7.606  12.010  0.4125 -0.1264  0.0312
 5184W        W24038  17.956   7.880  13.054 -0.0441  0.4188 -0.3202
 5185W        W24039  15.464   9.554   4.893  0.0076  0.0213  0.0246
 5186W        W24040   3.732  18.554  14.490 -0.1367 -0.2397  0.0055
 5187W        W24041  12.036   0.943  12.761  0.0525 -0.0308 -0.0491
 5188W        W24042   4.379   8.430  14.293 -0.0174 -0.0307 -0.0632
 5189W        W24043  11.131  17.267   0.059  0.0113  0.0692  0.0614
 5190W        W24044   2.484  14.773  12.968 -0.0665  0.1535 -0.0922
 5191W        W24045  18.423   0.540  14.866 -0.3403 -0.3062  0.4089
 5192W        W24046   0.405  18.040   3.200 -0.1109  0.0345 -0.1068
 5193W        W24047  12.331   2.642   3.439 -0.0195 -0.1964  0.2382
 5194W        W24048   0.259  10.861  14.398  0.0047  0.0865  0.0963
 5195W        W24049  13.861   0.437   3.223 -0.3051  0.3619  0.2390
 5196W        W24050   2.429  17.831  12.548 -0.1631  0.0547 -0.0667
 5197W        W24051   0.723   7.542  12.960 -0.1317  0.0088  0.1014
 5198W        W24052   3.725  15.843   3.263  0.1057  0.1359 -0.0980
 5199W        W24053   9.273  14.242   3.256  0.0398 -0.0874  0.1202
 5200W        W24054   0.930   9.671  10.743  0.0320 -0.2490  0.1047
 5201W        W24055   8.903  10.195   2.336  0.0068 -0.1179  0.1482
 5202W        W24056  16.306   4.536  10.781  0.0205 -0.3596 -0.0536
 5203W        W24057  17.779   2.563   4.868 -0.2317 -0.0525  0.1826
 5204W        W24058  10.576   3.597  14.558 -0.1626  0.1638 -0.1969
 5205W        W24059   3.252  17.599   0.453 -0.2295  0.3944 -0.2258
 5206W        W24060  15.153  16.410  15.335  0.2864  0.4737  0.3090
 5207W        W24061   5.813   2.169  12.940 -0.2888 -0.2162 -0.0779
 5208W        W24062  17.763  10.932  14.935 -0.0533 -0.3022  0.1614
 5209W        W24063  14.357   1.360  14.968  0.3041 -0.0619 -0.0051
 5210W        W24064   1.436   2.670  10.904 -0.0101  0.1074  0.0908
 5211W        W24065   2.111   5.528   3.385 -0.0122 -0.0382  0.1470
 5212W        W24066  12.168   5.501  11.835  0.1693  0.2154 -0.1947
 5213W        W24067  18.183   7.907   1.464 -0.1152 -0.0558  0.0600
 5214W        W24068  14.352   7.460   5.486 -0.2434 -0.1496  0.1529
 5215W        W24069  12.268   4.628  14.052 -0.0322  0.2076 -0.0878
 5216W        W24070  16.476  11.402  12.156 -0.2922 -0.3508  0.1539
 5217W        W24071  10.575   0.464  11.790 -0.3303 -0.0439  0.1069
 5218W        W24072  10.490  15.691  13.903  0.2969  0.0434  0.3044
 5219W        W24073   1.418  11.396  15.402 -0.1394 -0.1287 -0.2031
 5220W        W24074   8.432   8.117  11.290 -0.0729 -0.1370 -0.3027
 5221W        W24075   0.817   1.365   0.712 -0.2511 -0.2393 -0.2825
 5222W        W24076  12.834   7.072   2.800  0.0963 -0.2017  0.1540
 5223W        W24077  15.310  11.740  14.758 -0.1520 -0.0366 -0.0419
 5224W        W24078  12.197  13.064   4.600 -0.1594  0.0739  0.2877
 5225W        W24079   9.589   1.985  12.874 -0.0988  0.0242  0.1580
 5226W        W24080   8.599   0.513  14.553  0.0691  0.1475 -0.0003
 5227W        W24081  10.539   7.162   1.043  0.0396 -0.0419  0.0640
 5228W        W24082  10.102   3.956  12.373  0.2853 -0.0300 -0.2835
 5229W        W24083  16.404   2.377   2.553 -0.1394 -0.3028 -0.3621
 5230W        W24084   9.399  13.995   4.420 -0.0262  0.0052 -0.0636
 5231W        W24085  16.820   5.677  14.085  0.0092 -0.2753  0.0704
 5232W        W24086  15.748   8.218   1.163 -0.2089 -0.3103 -0.1009
 5233W        W24087  17.385  16.683   3.224 -0.2525  0.0536  0.0835
 5234W        W24088  16.320   0.514  11.610 -0.0719  0.1609  0.0738
 5235W        W24089   6.504  10.524  12.580 -0.1649 -0.0611  0.2162
 5236W        W24090   5.427   2.544   0.212 -0.1664  0.0792 -0.3134
 5237W        W24091   1.743   1.679   0.459 -0.2547 -0.0728  0.1558
 5238W        W24092   0.250   3.951   2.742 -0.1568  0.0238 -0.4137
 5239W        W24093  18.094  17.958  10.904 -0.3366  0.1220  0.0215
 5240W        W24094   2.519  13.083   0.086 -0.1503  0.2420  0.0419
 5241W        W24095   9.123  13.246   2.571 -0.1560  0.0182  0.0311
 5242W        W24096   2.635   9.587   4.528  0.0905  0.1439  0.1074
 5243W        W24097   1.207   5.292  14.658 -0.0102  0.0541  0.0871
 5244W        W24098   0.666  15.380   2.348 -0.1609 -0.1715  0.2047
 5245W        W24099   2.090  17.448   1.309  0.1181  0.1517 -0.4334
 5246W        W24100   7.782   7.294  12.792  0.2037 -0.2144 -0.2721
 5247W        W24101  10.927   2.991   0.297  0.2238  0.0595 -0.1391
 5248W        W24102   2.333   7.642  11.332  0.1292 -0.0162 -0.0169
 5249W        W24103   1.540   3.870   9.559  0.1472  0.0165  0.1554
 5250W        W24104   8.973   9.132   3.496  0.1152  0.2562  0.0723
 5251W        W24105   7.371   4.442   1.880  0.3183 -0.1290  0.1884
 5252W        W24106  15.886   2.824   2.092 -0.3063  0.0076 -0.2666
 5253W        W24107   4.971  11.409   0.513 -0.1469 -0.0586 -0.0313
 5254W        W24108  10.032   9.007   1.852  0.1094  0.1901 -0.1408
 5255W        W24109  17.772   3.116   0.500 -0.0468 -0.0272 -0.1267
 5256W        W24110  15.010  12.315  12.162  0.1318 -0.1534 -0.1830
 5257W        W24111   7.574   3.198  13.845  0.1265 -0.0220  0.1375
 5258W        W24112   3.085  17.918   0.138 -0.1865 -0.1522  0.4510
 5259W        W24113   8.873   8.959  10.607  0.1570  0.0178  0.0132
 5260W        W24114  15.687  14.610  14.114  0.3574 -0.0656 -0.0204
 5261W        W24115  13.358  14.150  12.983 -0.3145  0.1209 -0.4963
 5262W        W24116  13.200   4.468   1.192  0.1197 -0.1737  0.0385
 5263W        W24117  13.268   4.687   1.751  0.1026 -0.1223 -0.0929
 5264W        W24118  11.734  16.173   3.871  0.3070 -0.1292 -0.1489
 5265W        W24119   8.682  17.297   5.395  0.2156 -0.1348  0.0484
 5266W        W24120  18.147  15.785   3.169  0.1669  0.2527  0.1072
 5267W        W24121   1.112   5.052   1.325 -0.0932 -0.3015  0.2997
 5268W        W24122  13.035  17.745  14.654 -0.0011  0.0966  0.0065
 5269W        W24123   6.497   4.329   3.364  0.0955 -0.2258  0.0712
 5270W        W24124  15.473  13.986   2.014 -0.2574  0.2216 -0.1189
 5271W        W24125  13.922   5.131  12.539  0.0473 -0.0409 -0.3123
 5272W        W24126   2.894   5.212  11.835  0.0900 -0.0554 -0.1307
 5273W        W24127  15.948   4.050   1.143 -0.0449  0.1958  0.2935
 5274W        W24128   6.093   2.335   2.182 -0.2038  0.2733 -0.3019
 5275W        W24129   7.167   2.242  12.093  0.1839 -0.1220  0.0094
 5276W        W24130   1.487   3.610  15.095  0.0275 -0.1087  0.1459
 5277W        W24131   9.622  14.273  12.611 -0.1016  0.0143  0.0298
 5278W        W24132  12.350  15.531  11.981  0.2230 -0.2702 -0.1932
 5279W        W24133  16.529  11.762  14.704  0.1360 -0.1304  0.0268
 5280W        W24134   2.908   1.596  11.927  0.0255 -0.0287 -0.1853
 5281W        W24135   9.654  14.838   0.434  0.0429  0.1892 -0.1701
 5282W        W24136   1.060  12.711   4.045 -0.0245  0.2033  0.1243
 5283W        W24137  15.966   5.542  13.076  0.2294  0.1841 -0.0524
 5284W        W24138  17.254   3.622   1.472 -0.0519  0.2003  0.2330
 5285W        W24139  14.906  13.987  11.529 -0.2438 -0.3846  0.1129
 5286W        W24140   4.210   2.120   1.786 -0.0294  0.2582 -0.0854
 5287W        W24141   9.771   1.548   0.909  0.2797  0.1753 -0.3285
 5288W        W24142  12.452  14.529  13.975 -0.0927 -0.0451  0.0385
 5289W        W24143  10.431   1.645  13.467  0.0068 -0.1977 -0.0963
 5290W        W24144   9.866   7.117  11.897  0.0585 -0.2751 -0.1066
 5291W        W24145   7.820  11.426  11.737  0.0669 -0.2153  0.2546
 5292W        W24146  13.082   9.348  11.842 -0.1310  0.1134 -0.3455
 5293W        W24147   0.862  13.928   0.723  0.3512 -0.2442 -0.1074
 5294W        W24148   0.147   0.274   4.256  0.2450  0.0742  0.2192
 5295W        W24149   8.970   1.249   3.363 -0.2040 -0.3840  0.1199
 5296W        W24150  17.038  12.290   1.126  0.1160  0.1783  0.0185
 5297W        W24151  18.254  10.770  10.992 -0.2669 -0.4358 -0.1045
 5298W        W24152  18.428  14.523   0.290  0.3924  0.0543  0.0781
 5299W        W24153  18.358  18.499   3.430  0.2179 -0.1442 -0.1018
 5300W        W24154  17.776  14.664  12.340 -0.0123  0.0859  0.3619
 5301W        W24155  14.350  15.684  10.847  0.0525  0.0706 -0.1626
 5302W        W24156   8.349   7.455  13.801  0.1476 -0.1392  0.2974
 5303W        W24157   3.252   4.964   9.976  0.3044 -0.0285 -0.4611
 5304W        W24158  15.271  17.894  11.518  0.1144  0.1731  0.0431
 5305W        W24159   9.593  13.501  13.186  0.1218  0.0028 -0.1129
 5306W        W24160  16.821   8.952  14.612  0.1400 -0.0624  0.0389
 5307W        W24161  12.104   4.485   3.664 -0.0687 -0.1439 -0.0388
 5308W        W24162  12.495  16.970   2.147 -0.1017  0.2610  0.0170
 5309W        W24163  13.614  13.517   1.096 -0.0187 -0.4067  0.1085
 5310W        W24164   0.710   4.324  10.767 -0.1536 -0.0627  0.1246
 5311W        W24165   0.028   5.980   1.592  0.0118 -0.1655  0.1315
 5312W        W24166   3.874   6.212   0.479 -0.0983  0.0227 -0.1711
 5313W        W24167  15.656   5.948   1.475  0.2122 -0.1522  0.2990
 5314W        W24168  17.602   2.678  13.197 -0.1054  0.0074  0.1316
 5315W        W24169   4.524   4.858   4.092  0.1532 -0.2521 -0.1291
 5316W        W24170   7.877  16.286   2.077 -0.0156 -0.1067 -0.0834
 5317W        W24171  15.618   2.410   3.123 -0.3254 -0.0265 -0.0393
 5318W        W24172   2.099  16.725   0.722 -0.0392  0.2908  0.0982
 5319W        W24173  13.539   8.637  11.669  0.0462  0.3420  0.1075
 5320W        W24174  15.365   6.240  11.601 -0.2473  0.0813  0.0364
 5321W        W24175  17.312   7.907   4.304  0.2541 -0.0334 -0.0822
 5322W        W24176   8.224  14.777   1.029  0.0915  0.0588 -0.0221
 5323W        W24177  16.165  13.261  13.530  0.0146  0.4098 -0.0450
 5324W        W24178   3.176   5.501   0.382 -0.1721 -0.3217  0.0616
 5325W        W24179  12.060   2.428   2.669  0.0043  0.0644  0.0006
 5326W        W24180   1.438  12.924  12.848  0.2610 -0.3028 -0.2076
 5327W        W24181   3.098   7.110  14.392 -0.0151 -0.0058 -0.3021
 5328W        W24182  15.175   4.660   1.151  0.0630  0.2563  0.0359
 5329W        W24183  17.272  12.009   1.965 -0.0817  0.1704  0.0524
 5330W        W24184   3.866  11.393   1.612  0.2513 -0.0222 -0.2734
 5331W        W24185   8.694  15.920  15.247  0.1703 -0.1267 -0.0274
 5332W        W24186   1.032  13.903  12.023  0.0635 -0.0604  0.1694
 5333W        W24187  15.221  14.483   2.835 -0.0857  0.1048 -0.2116
 5334W        W24188  14.412  15.931   2.354 -0.2086  0.0529  0.0523
 5335W        W24189   9.994   5.542   2.987 -0.2181  0.0007  0.0166
 5336W        W24190   5.065  11.428  12.798  0.1409 -0.0159 -0.1890
 5337W        W24191   6.835  17.242   0.395 -0.3256 -0.1253 -0.3252
 5338W        W24192   5.394  10.479  13.736  0.3287 -0.0284 -0.2758
 5339W        W24193  10.171  18.518  15.033  0.0310  0.0560 -0.4457
 5340W        W24194   1.458  18.220   4.112 -0.0297 -0.0582 -0.1914
 5341W        W24195   7.992   7.905  12.210  0.0196  0.4602 -0.0753
 5342W        W24196   5.486  17.554  11.719  0.0631 -0.1300  0.0508
 5343W        W24197  10.847   8.870  14.604  0.0882 -0.0523  0.1740
 5344W        W24198   7.699   0.892   4.193  0.1503  0.0643 -0.0963
 5345W        W24199  10.994  14.950  14.268 -0.0504  0.1547  0.1313
 5346W        W24200   6.428   1.701  15.420 -0.1000  0.3969  0.0774
 5347W        W24201   1.503   7.386   2.474  0.2638 -0.3839  0.3373
 5348W        W24202  14.379   8.181  14.176  0.2007 -0.0428  0.0544
 5349W        W24203   5.129   7.072   4.142 -0.1682  0.2319  0.2623
 5350W        W24204   0.976   9.909   0.225 -0.1702  0.0628 -0.0501
 5351W        W24205  17.314  15.025  13.011  0.2347 -0.1937  0.3519
 5352W        W24206  13.581   2.873   3.309 -0.3673 -0.0010  0.0941
 5353W        W24207   6.594  12.212  11.553  0.2085 -0.0333  0.0076
 5354W        W24208   3.295   2.525   4.531 -0.3006  0.3288 -0.1008
 5355W        W24209   3.212   7.942   3.927 -0.0363  0.1841 -0.3344
 5356W        W24210  11.961   7.918  12.978  0.1144 -0.0153 -0.4906
 5357W        W24211  11.795  13.545   1.263 -0.2592  0.0584 -0.0477
 5358W        W24212   3.550   3.711  14.579  0.1350  0.1382  0.3806
 5359W        W24213  12.582   6.158  13.373  0.4339  0.2502  0.3306
 5360W        W24214   5.095  13.560   2.526  0.1328 -0.0467 -0.0043
 5361W        W24215   3.684  12.977  14.008  0.0375 -0.0638 -0.0112
 5362W        W24216  16.701  15.112   4.243  0.2927  0.0694  0.1618
 5363W        W24217   0.799   1.312   0.012  0.3603  0.1736  0.2973
 5364W        W24218  12.965   3.064   4.030  0.3266  0.0078 -0.1338
 5365W        W24219   5.501  17.999   1.873  0.0853  0.4496 -0.2941
 5366W        W24220  16.732  17.980   3.319 -0.4320 -0.1949  0.0975
 5367W        W24221   8.394  16.914   5.782  0.0903 -0.3072 -0.1239
 5368W        W24222   3.995   9.827  14.414  0.1999  0.4700 -0.0968
 5369W        W24223   4.017  11.257   2.998 -0.1536  0.1743  0.1041
 5370W        W24224   5.113  13.663  12.066  0.0389  0.2545 -0.1897
 5371W        W24225  13.007  14.158   4.144 -0.0769  0.1184  0.1944
 5372W        W24226  10.631  14.742   4.806 -0.1327 -0.2381  0.0066
 5373W        W24227  10.048  13.438  13.090  0.0063  0.0128 -0.0430
 5374W        W24228   5.490   5.314  10.562 -0.1126 -0.0754  0.2685
 5375W        W24229  15.916   6.722  10.906 -0.0681  0.0289  0.1077
 5376W        W24230   8.721   1.772  11.024  0.1925  0.3466  0.0432
 5377W        W24231   6.055   1.007   1.205 -0.1723 -0.4125  0.2378
 5378W        W24232   8.287  18.039  14.397 -0.0582  0.2733  0.0677
 5379W        W24233   0.870   8.765   1.679 -0.1821 -0.0231 -0.0149
 5380W        W24234   5.292   2.571  13.477  0.3005 -0.4573 -0.1787
 5381W        W24235   7.184   9.228  14.685  0.3436  0.2305  0.4774
 5382W        W24236   5.605   2.398   1.393  0.0299  0.2703  0.1553
 5383W        W24237   7.334   4.765   4.579 -0.1135 -0.1143 -0.0208
 5384W        W24238  10.488   1.521   4.982  0.1789  0.1845 -0.0625
 5385W        W24239  14.676  16.243  11.983 -0.2231 -0.0558  0.3154
 5386W        W24240   1.372   8.149  14.231  0.2156 -0.3179 -0.1315
 5387W        W24241  16.955  15.757  12.677 -0.0703  0.0473  0.0321
 5388W        W24242   8.477   3.342  12.342 -0.1550 -0.1540  0.0250
 5389W        W24243  17.546  15.266  11.553  0.1799  0.1431  0.0299
 5390W        W24244   4.978   8.197   2.518 -0.1366 -0.1049  0.0680
 5391W        W24245   1.932   2.538   1.363  0.4036 -0.1282  0.2272
 5392W        W24246   9.741  15.646   2.970  0.1590  0.1086 -0.2645
 5393W        W24247  17.268  10.927  14.921 -0.0132  0.1773  0.1666
 5394W        W24248   8.575  11.173   4.397 -0.0633 -0.0054  0.1521
 5395W        W24249   7.139   7.545   0.488 -0.0380 -0.1725 -0.0156
 5396W        W24250   1.367   5.063  12.941 -0.0271 -0.0247 -0.2749
 5397W        W24251   3.478  10.514   1.554  0.0674  0.0116  0.3586
 5398W        W24252   2.846  13.610   2.330  0.1660  0.3212  0.3665
 5399W        W24253  15.852  14.244  14.362  0.1105  0.2330 -0.0366
 5400W        W24254   7.620   5.326   1.752 -0.0584  0.0687  0.1758
 5401W        W24255   0.867   7.866  13.327 -0.0556  0.2832 -0.1713
 5402W        W24256  15.202   5.159   0.942  0.0986 -0.2324 -0.0023
 5403W        W24257  16.183  12.319  10.507 -0.3303 -0.0952 -0.2587
 5404W        W24258   8.717  12.007   3.936  0.1404 -0.0727  0.1125
 5405W        W24259  13.442   2.024  11.969  0.0873  0.0085 -0.0484
 5406W        W24260   0.018  12.673   1.005  0.4885  0.2094 -0.3072
 5407W        W24261   8.057  14.624   2.436 -0.0816  0.1370 -0.1180
 5408W        W24262   8.643  12.753   3.650  0.1247  0.2384 -0.2347
 5409W        W24263   0.761  11.953   1.598 -0.3875  0.0175  0.2433
 5410W        W24264   4.595  16.334  13.236 -0.1125  0.0463 -0.1535
 5411W        W24265   6.527  15.347   3.884  0.2857  0.1040  0.0620
 5412W        W24266   0.794  14.071   3.856  0.2315  0.2902  0.1427
 5413W        W24267  11.727   7.694   0.433 -0.1941 -0.1908 -0.0470
 5414W        W24268  14.475   7.787  12.426 -0.3069  0.0527  0.1534
 5415W        W24269  18.428   7.090  12.597 -0.0979 -0.0961  0.0648
 5416W        W24270   0.659  11.866   2.115 -0.1389  0.2163 -0.3485
 5417W        W24271  11.972   6.389  11.733 -0.0175  0.3670 -0.0050
 5418W        W24272  12.237   3.624   0.392 -0.1742  0.2016 -0.2371
 5419W        W24273   6.992   3.737  11.051  0.2641  0.0005  0.0214
 5420W        W24274   5.826  13.903  12.949 -0.0639  0.1177 -0.4045
 5421W        W24275   0.696   3.746  10.985  0.2369  0.2022  0.0495
 5422W        W24276   3.271  12.052   0.333 -0.1177  0.1224  0.0513
 5423W        W24277   7.461  12.127  15.110 -0.3322  0.1831 -0.0747
 5424W        W24278   9.373   6.421  11.530 -0.1743 -0.0830  0.1786
 5425W        W24279  14.900  14.941  15.144  0.0078  0.0030  0.0030
 5426W        W24280  16.315   3.436   0.628  0.1587 -0.2321 -0.3439
 5427W        W24281  16.122  11.610  14.386  0.1297 -0.2399  0.3823
 5428W        W24282   6.396  15.903   0.095  0.2380 -0.1099 -0.0429
 5429W        W24283  17.267   5.376  11.420 -0.2026 -0.0131  0.3119
 5430W        W24284  11.149   1.335  11.899  0.3873 -0.0696 -0.1371
 5431W        W24285   1.869  11.628   3.998  0.2499 -0.0130 -0.1832
 5432W        W24286  10.001   0.614  12.567  0.0837 -0.0439 -0.0441
 5433W        W24287  17.459   8.796  13.721 -0.0936  0.3070 -0.0061
 5434W        W24288  14.431   4.608   0.539 -0.0774  0.1783 -0.1976
 5435W        W24289   7.884  11.268   2.727  0.0238  0.2142  0.0936
 5436W        W24290   9.287  13.713   2.576 -0.2632  0.2092 -0.2219
 5437W        W24291  13.604  10.013  14.521  0.3274  0.2509  0.0073
 5438W        W24292  13.227   6.158  14.635  0.1016  0.0991 -0.2603
 5439W        W24293   5.779  13.173   0.441 -0.1730 -0.2495 -0.3261
 5440W        W24294   1.842   9.521  12.763 -0.1434 -0.2091 -0.2086
 5441W        W24295   7.111   8.590  15.216  0.0799  0.3464  0.1919
 5442W        W24296   5.462   0.698   2.228  0.1719 -0.0792  0.0313
 5443W        W24297  12.919  14.426   3.493  0.1645 -0.0105 -0.0427
 5444W        W24298  13.092  13.225   3.981  0.3447 -0.0220 -0.0944
 5445W        W24299   3.082  12.285  12.291  0.1393 -0.0312  0.0376
 5446W        W24300  11.019  12.452   0.609  0.0151 -0.0279  0.1713
 5447W        W24301   1.312   4.083  15.091 -0.1499  0.2838 -0.1651
 5448W        W24302   7.416   0.927   1.184 -0.1361  0.1564  0.1027
 5449W        W24303  17.808  13.042  10.544  0.0520 -0.0136 -0.1789
 5450W        W24304  11.809   7.103  14.981 -0.1713 -0.0130  0.1350
 5451W        W24305   0.122  13.092  12.650 -0.1122 -0.1227  0.1852
 5452W        W24306   7.038  15.353   0.094 -0.1485  0.1076  0.0179
 5453W        W24307  10.545   3.851   3.356  0.0401 -0.1045  0.0269
 5454W        W24308  15.776   3.475   1.430 -0.3280  0.0314  0.1115
 5455W        W24309   1.563   1.605   1.329 -0.2764 -0.1046 -0.2627
 5456W        W24310  11.310   1.364   5.754 -0.0092 -0.0443  0.1161
 5457W        W24311   8.862  18.334   4.019 -0.1427  0.0351 -0.0475
 5458W        W24312  16.825  16.029  11.772  0.2176  0.0896 -0.0507
 5459W        W24313   9.303   3.287  15.365 -0.1136  0.0306 -0.0747
 5460W        W24314   8.849   7.731  14.132  0.2413 -0.1691 -0.2284
 5461W        W24315   4.540   5.785   1.579 -0.0761 -0.0579 -0.1057
 5462W        W24316  14.946   5.154   0.307 -0.2974 -0.2103 -0.3683
 5463W        W24317  15.289  18.198  13.105 -0.3069  0.3524  0.1489
 5464W        W24318  10.684  12.267   3.994  0.1114 -0.0795 -0.0787
 5465W        W24319   5.098  11.652   1.000 -0.0551  0.0502 -0.1056
 5466W        W24320   3.491  16.714   3.012 -0.0767 -0.2197  0.1356
 5467W        W24321  17.912  16.597  14.011 -0.1076  0.2758 -0.0806
 5468W        W24322  16.749  16.154   0.500 -0.0775  0.1391 -0.1577
 5469W        W24323   3.539  10.186  12.435 -0.1955  0.0454  0.0890
 5470W        W24324   7.942   4.972   0.524 -0.1166 -0.1725  0.1727
 5471W        W24325   7.714   9.539  15.288 -0.2738  0.1188 -0.0559
 5472W        W24326  10.953   7.409   3.637 -0.4682 -0.3605 -0.2543
 5473W        W24327  11.884  17.810   2.789 -0.2784 -0.0920  0.0742
 5474W        W24328  11.156  17.475   1.170 -0.0978 -0.1070  0.0397
 5475W        W24329  10.130  10.496   1.854 -0.2078 -0.1893  0.0436
 5476W        W24330   3.805   5.977   3.952  0.0006 -0.3456  0.3405
 5477W        W24331   1.276   6.560  14.972  0.0142  0.2560 -0.0270
 5478W        W24332  10.427   7.466  11.681 -0.1548  0.3115  0.0753
 5479W        W24333  13.702   7.054  13.462  0.3507 -0.1820 -0.1590
 5480W        W24334  18.247   4.842   1.478  0.1830 -0.1947  0.2496
 5481W        W24335   1.248  10.584  12.021  0.0330  0.1558  0.0230
 5482W        W24336   2.507   7.442   3.229  0.1663  0.0738  0.0119
 5483W        W24337  12.993  11.463   3.779  0.1817 -0.0459 -0.1076
 5484W        W24338   3.784   9.316   1.369 -0.2654  0.2874  0.0587
 5485W        W24339   4.267  11.956  13.188 -0.2537 -0.0711  0.1800
 5486W        W24340  17.284  11.355   3.985 -0.1041  0.0799  0.2089
 5487W        W24341   2.105   7.086  14.698 -0.0673 -0.0640  0.1265
 5488W        W24342  11.214   3.511   1.629 -0.1029 -0.3568 -0.0099
 5489W        W24343   7.481  13.313   4.829 -0.4503 -0.1318  0.1115
 5490W        W24344  16.130  11.074  14.199  0.0839 -0.1066 -0.1343
 5491W        W24345   3.750   5.783  13.127  0.0679  0.1424 -0.1140
 5492W        W24346   8.139   1.008   4.247 -0.3040  0.1152 -0.2020
 5493W        W24347  15.317   4.222   0.928  0.3130  0.2950  0.1390
 5494W        W24348   4.774  18.248   2.818 -0.0305  0.1948  0.1832
 5495W        W24349   6.466   8.727  10.462  0.0637  0.0720 -0.1148
 5496W        W24350   4.199   3.777   1.019 -0.1161  0.2053  0.0294
 5497W        W24351  13.482  12.009  13.452  0.1276  0.0375  0.0998
 5498W        W24352  15.819  15.011   0.447  0.0434  0.2338  0.1260
 5499W        W24353   3.007   5.525  11.479  0.1431  0.1384  0.3095
 5500W        W24354   1.757   2.139   4.462  0.2062  0.0950  0.2761
 5501W        W24355   5.243  16.222  14.178  0.1149 -0.0200 -0.1054
 5502W        W24356   0.481   5.863  12.300  0.1575  0.3037 -0.1131
 5503W        W24357  10.416   9.387   1.865  0.0518  0.2009  0.0377
 5504W        W24358  13.345  14.488   2.029 -0.4351 -0.1668  0.0806
 5505W        W24359  13.045   1.756  11.645 -0.3155 -0.1416  0.2544
 5506W        W24360  14.032   9.329   3.210 -0.0939  0.2711 -0.0213
 5507W        W24361  14.432  10.314  12.469 -0.0046 -0.0368 -0.1231
 5508W        W24362  13.470  10.072  11.437 -0.0245 -0.1036 -0.0733
 5509W        W24363   4.788   6.924   1.203  0.2684 -0.0135 -0.1171
 5510W        W24364   9.188  11.708   1.996  0.1670  0.0276 -0.0955
 5511W        W24365   4.035  17.965   0.130  0.3312  0.1427  0.3304
 5512W        W24366   9.971   5.968   1.360  0.1078 -0.1289  0.0268
 5513W        W24367   9.822   7.959   2.965  0.1899  0.3432  0.0129
 5514W        W24368  11.469   0.764   4.030  0.1357  0.0781 -0.2447
 5515W        W24369   4.764  13.551   4.029  0.1423  0.0093 -0.0135
 5516W        W24370  14.891   2.950  15.151  0.1882 -0.0037  0.2042
 5517W        W24371  15.132  12.483   2.858  0.0865 -0.0501 -0.0078
 5518W        W24372   4.082  12.352  12.804 -0.0967 -0.1297  0.1616
 5519W        W24373   0.695  10.882  14.701  0.2892 -0.2607 -0.1164
 5520W        W24374  14.504  17.054  10.737  0.0045  0.2705  0.2192
 5521W        W24375   8.580   0.051  11.973 -0.1529 -0.1380  0.0225
 5522W        W24376   8.100  17.021  12.997 -0.1403 -0.1590 -0.0694
 5523W        W24377   3.985  16.858   2.893  0.1098  0.0212 -0.0551
 5524W        W24378   7.510   7.255   0.705 -0.1945  0.0892 -0.1718
 5525W        W24379   9.277  14.040  13.891 -0.0485 -0.0571 -0.0034
 5526W        W24380  17.808  17.089   2.227  0.1812 -0.5267  0.1073
 5527W        W24381  17.633  12.028  15.281 -0.1092 -0.1061 -0.3276
 5528W        W24382   3.151   0.427   2.027 -0.0346  0.0265  0.0365
 5529W        W24383   5.576  10.613   2.155 -0.1241 -0.0756  0.1423
 5530W        W24384   2.487  10.241  12.674 -0.1444 -0.0086  0.0247
 5531W        W24385  17.791   1.950   3.125 -0.1420 -0.0443 -0.2539
 5532W        W24386  13.372  17.445   2.191  0.3445 -0.3498 -0.0975
 5533W        W24387   4.399  10.458  14.511 -0.0759  0.1333 -0.3463
 5534W        W24388  17.533  17.956  11.161  0.0429 -0.2305 -0.1403
 5535W        W24389   8.846  18.220  11.751  0.3350 -0.0519  0.0051
 5536W        W24390   4.269   9.347  11.018 -0.3467 -0.2681 -0.3868
 5537W        W24391   2.239  10.551   0.727 -0.0538 -0.2600  0.2854
 5538W        W24392  13.932   9.986   3.274  0.1945  0.0578 -0.1785
 5539W        W24393  13.549   8.932   0.096 -0.3234  0.1408  0.1011
 5540W        W24394   5.092   6.216   2.327 -0.1504  0.1680  0.0461
 5541W        W24395  16.416   7.237   0.482  0.3149  0.0722 -0.1502
 5542W        W24396   6.190   6.892  11.602 -0.1382  0.0202 -0.1758
 5543W        W24397   2.987   4.082  14.422  0.2396  0.0795 -0.1217
 5544W        W24398   4.800  12.828  13.936  0.1381 -0.1610  0.1728
 5545W        W24399   3.904  13.117  12.249  0.2701  0.0498 -0.1262
 5546W        W24400  11.905   7.399   4.288 -0.3056 -0.1244 -0.2087
 5547W        W24401  12.225  14.517   0.832 -0.1743  0.0855  0.1528
 5548W        W24402  15.263   2.455  11.994  0.2220  0.3493  0.2652
 5549W        W24403  12.502   0.118   4.293 -0.0952  0.1759  0.0002
 5550W        W24404  16.276   8.186  13.917  0.2318 -0.2324  0.1979
 5551W        W24405  10.688   6.202   3.179 -0.0848 -0.1113 -0.0850
 5552W        W24406   8.984   3.954  14.582  0.0738  0.0217  0.0462
 5553W        W24407   1.532   3.850   1.965 -0.2145  0.3103  0.0926
 5554W        W24408   7.521  12.197  12.125  0.0284  0.0884  0.1021
 5555W        W24409  17.984  14.850   0.335 -0.1096 -0.2187 -0.1259
 5556W        W24410   5.020  15.004  10.789 -0.0312 -0.1695  0.2175
 5557W        W24411   5.355  16.395   4.000 -0.2607 -0.0196 -0.1230
 5558W        W24412  10.256   7.291   1.906  0.2775  0.0615 -0.4178
 5559W        W24413  13.962  15.280  13.356 -0.0430 -0.0065 -0.1305
 5560W        W24414  17.320  17.481   2.683  0.0561 -0.0219  0.0712
 5561W        W24415   3.569  14.891   3.305  0.0057 -0.3230  0.0732
 5562W        W24416   6.045   6.896   4.520 -0.2149  0.2176  0.0494
 5563W        W24417  13.690  17.624   1.719 -0.1334  0.0555 -0.0090
 5564W        W24418   8.241   9.481  15.422  0.1637 -0.4163  0.2410
 5565W        W24419   6.310  16.897   1.672 -0.0917  0.0074 -0.0058
 5566W        W24420   4.085   2.922  14.417  0.0696  0.1404 -0.2064
 5567W        W24421  16.096   9.700   0.609 -0.2998 -0.1519 -0.1695
 5568W        W24422   1.868   2.078   1.872  0.1221 -0.2062 -0.3198
 5569W        W24423  14.752  17.170   3.053  0.3611  0.0493 -0.1447
 5570W        W24424   6.944  16.297   1.468 -0.1000  0.0614 -0.2395
 5571W        W24425  11.422   9.165  11.770 -0.0457  0.0680  0.2371
 5572W        W24426  17.549   2.297  14.784 -0.2675 -0.2410 -0.0109
 5573W        W24427   9.503  15.928  11.504  0.0424  0.0338  0.1091
 5574W        W24428  17.750   1.081   0.716 -0.4171 -0.2710  0.2065
 5575W        W24429  13.682   4.484   1.937  0.1088  0.1481  0.0798
 5576W        W24430   3.371   5.024   0.327 -0.1821 -0.0133  0.1219
 5577W        W24431   0.486   8.228  12.363 -0.0742 -0.2848  0.2352
 5578W        W24432  15.729  14.345  12.471 -0.0784  0.1509 -0.0247
 5579W        W24433  10.393  15.222  13.804 -0.1984 -0.1044  0.1084
 5580W        W24434   5.128  17.038  12.365  0.0022 -0.1426  0.2757
 5581W        W24435  18.319  14.470  12.058  0.4039  0.3725  0.2580
 5582W        W24436   4.486  16.322   0.367 -0.0705 -0.0579 -0.1987
 5583W        W24437  13.072   8.675   0.140  0.0783  0.2937 -0.1955
 5584W        W24438  13.408   9.994  13.885 -0.0040 -0.3545 -0.2168
 5585W        W24439   0.021  15.415  12.403 -0.2336  0.2743  0.1739
 5586W        W24440   2.244   3.711   1.389  0.2822  0.0332 -0.3954
 5587W        W24441   6.881   7.040  12.838  0.0112 -0.1353 -0.0473
 5588W        W24442  13.008   1.103  13.103 -0.2582 -0.0141 -0.0024
 5589W        W24443  12.611  12.792   2.257  0.2332 -0.0595 -0.2647
 5590W        W24444   4.594  17.937  13.077 -0.0833 -0.0035  0.1888
 5591W        W24445  12.979   5.834  11.629 -0.1451  0.1773 -0.0105
 5592W        W24446  13.154  13.938   3.654 -0.0834 -0.2791  0.1248
 5593W        W24447   3.222  15.753   4.100 -0.0395  0.0621 -0.4263
 5594W        W24448  11.121   0.741   2.634 -0.3819  0.1632  0.1040
 5595W        W24449  17.308   3.992   1.741  0.1714 -0.0874 -0.1270
 5596W        W24450   1.654   4.565   0.583  0.1189  0.1922  0.0817
 5597W        W24451   8.881  17.714   0.260 -0.1282 -0.2026  0.0835
 5598W        W24452  11.049   9.807  14.460  0.1040 -0.0142 -0.0825
 5599W        W24453   7.010   8.008   2.003  0.3231  0.4075  0.2036
 5600W        W24454  12.697  10.700   3.507  0.1219  0.1331  0.0255
 5601W        W24455  13.859  10.865  12.898 -0.0395 -0.1935 -0.0152
 5602W        W24456  16.364   6.001  14.727 -0.1803 -0.0386  0.1681
 5603W        W24457  11.448   4.674  12.681  0.0219  0.2005  0.1981
 5604W        W24458  14.625  12.825  15.228 -0.2156  0.1121 -0.0634
 5605W        W24459   5.427   4.451   4.237 -0.1843 -0.1751 -0.0892
 5606W        W24460  14.227   7.597  12.840 -0.1696 -0.1225  0.4206
 5607W        W24461  15.948   5.278   0.319  0.2722 -0.2037 -0.2022
 5608W        W24462  17.930   4.718  11.478 -0.4447  0.0976 -0.1528
 5609W        W24463   3.774   8.856   3.028  0.4557  0.1151  0.2061
 5610W        W24464  12.692   1.918   2.639  0.0232  0.1470  0.3317
 5611W        W24465   6.971   6.846   3.963 -0.4016  0.4177  0.2642
 5612W        W24466   5.081  14.811  15.272  0.1239 -0.0190 -0.0880
 5613W        W24467   1.683  16.005   0.297 -0.0195  0.0031 -0.1117
 5614W        W24468  12.405  10.599  11.951  0.0501  0.0291 -0.1240
 5615W        W24469   7.493   4.144   3.872  0.0267  0.2582  0.0308
 5616W        W24470  11.499   3.607  13.535  0.1099  0.3350  0.0052
 5617W        W24471  15.754  10.930  11.458 -0.0197  0.4737 -0.0705
 5618W        W24472   6.770  15.767  12.001  0.1694  0.2090  0.2047
 5619W        W24473   9.810   5.595   4.840 -0.3288 -0.3593 -0.1557
 5620W        W24474   1.198   2.484  12.303 -0.1255 -0.3168 -0.0211
 5621W        W24475  12.140   9.255   0.206  0.1665 -0.1740 -0.1647
 5622W        W24476  13.450   7.123  11.852  0.0672  0.1790  0.0655
 5623W        W24477   9.022   7.313  11.566  0.0900  0.1775  0.2537
 5624W        W24478   6.242  18.371  11.497  0.2673  0.0262  0.5272
 5625W        W24479   7.629   8.875  13.648  0.0037  0.3675  0.2017
 5626W        W24480   7.818  12.213   3.623  0.0677  0.0632 -0.3132
 5627W        W24481   0.859  16.337  12.899  0.2668  0.3003 -0.2613
 5628W        W24482   6.086  16.443  11.031  0.0083 -0.0991  0.2252
 5629W        W24483  13.705  11.723  12.141  0.1010 -0.0652 -0.0724
 5630W        W24484   8.653   6.686  12.210 -0.1146 -0.1121 -0.0528
 5631W        W24485  17.742  13.703  11.234 -0.1580 -0.5331 -0.0412
 5632W        W24486   3.793  16.600  14.344  0.0562  0.0321 -0.2325
 5633W        W24487   3.328   7.184  13.290  0.1784  0.2238 -0.2589
 5634W        W24488  10.963  10.137  10.850 -0.2854 -0.2725 -0.1869
 5635W        W24489   4.127  12.036   2.284 -0.0950  0.0074 -0.2701
 5636W        W24490   4.123  13.165   0.299  0.0312 -0.0742  0.1601
 5637W        W24491   3.491  15.918   1.012  0.1548  0.0249 -0.2502
 5638W        W24492  10.445  11.734  11.523 -0.0544  0.0676 -0.0138
 5639W        W24493  10.334  16.282   3.916 -0.0186 -0.0478  0.1244
 5640W        W24494  18.515  11.318  11.187 -0.0279  0.0730  0.1561
 5641W        W24495   0.929   7.889  11.509  0.0589 -0.0128 -0.2233
 5642W        W24496  10.162   2.141   3.010 -0.1350  0.0468 -0.0216
 5643W        W24497  14.769   0.975  13.771  0.1248 -0.0952 -0.3336
 5644W        W24498   3.962  18.104   2.620  0.2772  0.0964  0.0650
 5645W        W24499  16.586   2.083   2.874  0.0060 -0.0316  0.3221
 5646W        W24500  16.269   8.096  10.335  0.0959  0.1098 -0.0823
 5647W        W24501  10.447  17.859  11.419  0.0378  0.5595 -0.0042
 5648W        W24502  10.321   4.433  13.831 -0.1116 -0.1102 -0.1743
 5649W        W24503  11.669  14.016  13.364  0.2430 -0.0825  0.0858
 5650W        W24504  16.920  11.197   4.331 -0.0632  0.1649  0.3294
 5651W        W24505   8.488  10.284   4.776  0.0051 -0.0429 -0.1633
 5652W        W24506   6.216  14.460  14.681 -0.0082  0.1476 -0.0230
 5653W        W24507  15.382   9.236  11.390 -0.1554 -0.0598 -0.2159
 5654W        W24508   9.608  18.239   0.123 -0.0200  0.0487  0.0848
 5655W        W24509   8.355  18.289   3.814 -0.2610  0.1671  0.1711
 5656W        W24510   5.766   1.682   4.210 -0.0867  0.3442  0.5648
 5657W        W24511  10.726  16.818   5.114 -0.1984  0.1226 -0.1116
 5658W        W24512  14.467  10.924  10.176  0.1646  0.2291  0.1198
 5659W        W24513  12.901  10.465  13.724 -0.0141  0.2328 -0.3869
 5660W        W24514   7.629   6.573   1.240 -0.0004 -0.0272 -0.1514
 5661W        W24515   8.610   5.804   2.413  0.0968  0.0196 -0.1478
 5662W        W24516   4.858  13.000   4.227  0.0996 -0.0203 -0.1968
 5663W        W24517   0.334   5.096  11.125  0.1506 -0.0478 -0.2636
 5664W        W24518  17.902  10.947  13.336 -0.1115 -0.1816  0.0911
 5665W        W24519  17.868  15.177   9.986  0.0581  0.0817  0.0757
 5666W        W24520   1.408   0.781  13.047 -0.1150 -0.0037  0.3699
 5667W        W24521  11.672  16.492  11.560  0.0720 -0.0493  0.1512
 5668W        W24522  16.711   2.754   1.850  0.0422  0.0791  0.1288
 5669W        W24523  12.715  10.390   2.674  0.0371  0.4000 -0.0473
 5670W        W24524   2.309   4.471   2.396 -0.0045 -0.1053 -0.0091
 5671W        W24525   7.566  13.819  11.653 -0.0262  0.0626  0.0901
 5672W        W24526  14.043   1.476   3.006 -0.1043 -0.2594 -0.1131
 5673W        W24527  12.491   3.834   3.771  0.1863  0.1077 -0.4081
 5674W        W24528  18.019   0.204  15.130  0.0907 -0.0430  0.2815
 5675W        W24529  12.665  13.620  14.268  0.0593 -0.3090  0.2142
 5676W        W24530  12.618  11.663   0.159 -0.0868 -0.3953  0.0282
 5677W        W24531  16.460  18.337  13.830  0.1920  0.0510 -0.3713
 5678W        W24532   2.077  16.603  12.140 -0.1711  0.0135 -0.2223
 5679W        W24533  16.261  14.303  14.761 -0.2107 -0.0105 -0.1390
 5680W        W24534  16.438  17.181  14.154  0.0538 -0.3769 -0.2975
 5681W        W24535  16.028  14.781   1.282 -0.1310 -0.0912 -0.0169
 5682W        W24536  10.742   2.610   2.522 -0.0158 -0.0064  0.0649
 5683W        W24537   9.998  16.001  13.937  0.0463 -0.1889 -0.0558
 5684W        W24538  13.088  17.583  13.472  0.1258 -0.0376  0.1950
 5685W        W24539  12.376   3.036  11.465  0.1127 -0.1192  0.0428
 5686W        W24540   0.292   4.454   0.999  0.2157  0.2452  0.0658
 5687W        W24541   6.201  17.398   3.367 -0.0263  0.0147 -0.1817
 5688W        W24542   2.894   6.100   0.498 -0.1191 -0.1165  0.3232
 5689W        W24543  17.165   0.229   2.926 -0.4093  0.1025 -0.1580
 5690W        W24544  17.831  14.030  15.195 -0.1720 -0.0960  0.1406
 5691W        W24545   7.935  13.531  12.891  0.2748 -0.2052 -0.1252
 5692W        W24546   2.333   9.185  13.310  0.3425  0.0669 -0.4010
 5693W        W24547   3.168  12.401  13.621 -0.4490  0.0367  0.0366
 5694W        W24548  16.173   4.567   3.629  0.4435 -0.3780 -0.3290
 5695W        W24549  14.782   1.999  12.589  0.0396 -0.2588  0.2224
 5696W        W24550   9.648   5.584   1.363 -0.0464  0.2307 -0.1391
 5697W        W24551   3.567   5.385  15.406 -0.0983  0.1164 -0.2562
 5698W        W24552   6.325  18.427  14.599  0.0892 -0.1438  0.0197
 5699W        W24553  12.845   3.440  15.452 -0.1973 -0.1594  0.1034
 5700W        W24554   0.505   3.459   0.944  0.1017 -0.1343 -0.1605
 5701W        W24555  14.000  15.909   1.290 -0.1848 -0.0523  0.0683
 5702W        W24556   9.392   7.738   1.430 -0.1604  0.1115  0.3197
 5703W        W24557   4.968  14.754   0.263  0.0129  0.0345 -0.1314
 5704W        W24558   5.874   1.423   3.560  0.2036 -0.0592 -0.2217
 5705W        W24559  12.701   3.455   1.766  0.0049  0.0060  0.0030
 5706W        W24560  18.512   7.679  11.521  0.2538 -0.0051 -0.0855
 5707W        W24561   0.168  14.884   1.207 -0.0062  0.0215 -0.0140
 5708W        W24562   1.172   0.603  11.274 -0.3268 -0.1282 -0.1206
 5709W        W24563  12.936  14.718  11.165 -0.0426  0.1329 -0.1616
 5710W        W24564   7.523  13.445  13.214 -0.1493 -0.1811 -0.2922
 5711W        W24565   5.481   8.273   2.857  0.0333 -0.0018 -0.0994
 5712W        W24566  11.093   8.783   4.083  0.2178 -0.0651  0.1834
 5713W        W24567   7.115   5.224  13.163  0.1065 -0.0746 -0.1174
 5714W        W24568  16.414   3.620  14.727 -0.0421 -0.3018  0.0047
 5715W        W24569   5.535   2.909  14.859  0.2833  0.4196  0.0631
 5716W        W24570  12.506  13.908  12.017  0.1274 -0.0008  0.0579
 5717W        W24571  10.246  16.492   2.893 -0.0316  0.1414 -0.2007
 5718W        W24572  13.396  12.845   0.559  0.0277 -0.1470 -0.1210
 5719W        W24573   4.193   2.703  14.989  0.1247 -0.0853  0.1060
 5720W        W24574   0.613   7.153   3.011  0.0574 -0.0897 -0.3450
 5721W        W24575   8.170  13.846   3.295 -0.2928 -0.1698  0.0058
 5722W        W24576   1.602   2.423  11.940 -0.1107 -0.2195  0.1153
 5723W        W24577  14.584   8.264   1.439 -0.2963  0.1130  0.2124
 5724W        W24578  18.417  12.610  12.710 -0.0221 -0.3518 -0.1044
 5725W        W24579   4.399   8.018   2.607 -0.0540  0.2705  0.4912
 5726W        W24580  17.507  17.807   4.707 -0.1319 -0.1751 -0.2953
 5727W        W24581   9.273   9.303   4.152 -0.0074 -0.4463  0.4499
 5728W        W24582  15.761   1.136  14.175 -0.3469 -0.0421  0.3980
 5729W        W24583   3.160   0.676  12.825  0.0078  0.2357  0.1095
 5730W        W24584  11.821  16.645  12.390  0.0104 -0.0097  0.1895
 5731W        W24585  10.654  12.359   5.061 -0.1253 -0.2138 -0.1088
 5732W        W24586   3.274  15.214   4.122  0.0422  0.1405  0.1893
 5733W        W24587   1.851   8.064  13.517 -0.4241 -0.1075  0.3020
 5734W        W24588  15.761   3.060  15.444 -0.0414 -0.3331  0.0844
 5735W        W24589   2.824  15.340  14.510  0.0117 -0.0251 -0.3898
 5736W        W24590   3.056  18.182  13.980 -0.0718 -0.2670  0.2381
 5737W        W24591   9.833   8.005   1.646  0.0396 -0.2255 -0.2483
 5738W        W24592   0.729  17.597   3.254 -0.1844  0.0587 -0.0107
 5739W        W24593  15.287   7.322  12.405 -0.1414 -0.2394 -0.0299
 5740W        W24594   4.245   0.758   3.179  0.1339 -0.1880  0.2819
 5741W        W24595  11.503   4.373   1.465  0.2360 -0.0190 -0.1118
 5742W        W24596   8.557  15.558   2.601 -0.1025  0.0559  0.2054
 5743W        W24597   6.288   4.462  15.067  0.1740 -0.1333  0.2005
 5744W        W24598   2.083  10.121  15.387  0.0268  0.3391  0.0148
 5745W        W24599   0.439   8.795   0.419  0.0082 -0.2648 -0.0695
 5746W        W24600  13.104   2.393   2.853  0.1909  0.2090 -0.1243
 5747W        W24601   9.135   2.499   4.395  0.1244  0.2057 -0.0915
 5748W        W24602  12.986   2.269   5.599 -0.0985 -0.2906 -0.1237
 5749W        W24603   3.008   6.548  14.059 -0.0395  0.2038  0.0532
 5750W        W24604  13.115  13.548   1.173  0.0576 -0.1261  0.1386
 5751W        W24605  12.686  11.880   2.877 -0.2237  0.0565 -0.0470
 5752W        W24606  12.833  12.655   1.776 -0.1136 -0.1992  0.2356
 5753W        W24607   7.246  15.348  14.070 -0.1748  0.1061 -0.1851
 5754W        W24608  17.313   8.700  14.470 -0.0455 -0.0500  0.4128
 5755W        W24609   0.365  13.068  11.304 -0.0665 -0.0728 -0.1725
 5756W        W24610   6.670   7.208   4.191  0.4754  0.2144 -0.3072
 5757W        W24611  17.720  16.799  14.426 -0.0963 -0.1746 -0.0172
 5758W        W24612   0.620   8.405   1.313 -0.2965 -0.0219  0.1219
 5759W        W24613   9.124  13.801  11.689 -0.0248 -0.1536  0.0205
 5760W        W24614  12.581  10.615  13.261 -0.1729 -0.1123  0.0782
 5761W        W24615  13.179   5.295  14.275  0.1132 -0.1117  0.1032
 5762W        W24616   1.119  12.274   1.530 -0.3598 -0.2243 -0.3723
 5763W        W24617   6.404  14.835  12.145 -0.0318 -0.5274 -0.1627
 5764W        W24618   4.640   3.103   2.236 -0.4531 -0.5073  0.1391
 5765W        W24619   6.024  13.753  11.617 -0.1158 -0.0505  0.0940
 5766W        W24620  17.058  18.157  12.432 -0.1802 -0.0555 -0.0766
 5767W        W24621  10.640   9.376   0.470 -0.0660  0.1732 -0.1255
 5768W        W24622   9.095   4.400   5.617  0.1613 -0.0064  0.4134
 5769W        W24623   6.419  11.731   0.422  0.0773  0.1044  0.3068
 5770W        W24624   5.957  10.853   4.604  0.1328  0.2450  0.0014
 5771W        W24625   8.402   1.361  10.984  0.4454  0.2688 -0.3415
 5772W        W24626  15.610  16.101   2.188  0.1223  0.2982  0.0085
 5773W        W24627  15.300  13.442   3.816 -0.0918  0.3233 -0.0045
 5774W        W24628   3.132  13.068   0.167  0.2081 -0.0232  0.0053
 5775W        W24629  14.401   2.654  12.663 -0.0350  0.0462 -0.1193
 5776W        W24630   0.246   1.869   1.323 -0.2363 -0.0414 -0.2599
 5777W        W24631   7.922   5.340   3.512  0.0038 -0.0310  0.0974
 5778W        W24632   5.407  18.128   4.076 -0.0533  0.3432  0.0985
 5779W        W24633  14.346  11.468   1.496 -0.1055  0.1047  0.0014
 5780W        W24634   7.193   3.563  14.057 -0.0610 -0.1663 -0.2655
 5781W        W24635   0.018  15.085   4.016 -0.0696  0.0822  0.0793
 5782W        W24636  10.038  15.486   3.363 -0.1587 -0.2919  0.1068
 5783W        W24637  15.709   2.754  11.979 -0.0267  0.1389 -0.0686
 5784W        W24638  15.003   7.759   4.468  0.1013  0.0169 -0.2357
 5785W        W24639  15.431   0.027  13.872 -0.0644  0.3189 -0.0465
 5786W        W24640  10.726  10.073  11.843 -0.2482 -0.0378 -0.0998
 5787W        W24641  11.154  10.790   4.323 -0.0426 -0.0577 -0.1507
 5788W        W24642  13.296  18.003  12.199  0.1621  0.2329  0.1492
 5789W        W24643  17.626  12.860  11.426 -0.1350 -0.2316  0.2775
 5790W        W24644  11.368   3.277  14.384 -0.0379  0.2058  0.2023
 5791W        W24645  10.336  17.407   3.454 -0.1394  0.4457 -0.0751
 5792W        W24646   1.381  13.679  13.669  0.1115 -0.3016  0.4153
 5793W        W24647   8.724  13.238  13.001  0.1702 -0.1262  0.0027
 5794W        W24648   4.346  13.327   2.092  0.1723 -0.2331  0.0413
 5795W        W24649  15.311   6.458   0.207 -0.1201  0.1065 -0.1265
 5796W        W24650   7.877  13.175  13.881  0.0602 -0.2052 -0.0812
 5797W        W24651  12.750   3.247  13.414  0.0341  0.0196  0.0713
 5798W        W24652   3.362  14.591  12.261 -0.1607  0.2863 -0.3824
 5799W        W24653   2.671   1.841  15.250 -0.1870  0.2725  0.2209
 5800W        W24654  14.391  12.108   2.540 -0.1372  0.0346  0.0349
 5801W        W24655   4.770   3.235   0.099  0.1883 -0.1524 -0.2047
 5802W        W24656  11.062   0.422   3.976  0.4733 -0.0960  0.0880
 5803W        W24657   5.140  18.520   1.544  0.3198 -0.1000 -0.0199
 5804W        W24658   2.402   7.770  12.778 -0.3098 -0.1091  0.1038
 5805W        W24659  18.446  17.273  12.411  0.0741  0.0573  0.0448
 5806W        W24660   6.130   6.003  12.985  0.0150 -0.1868  0.2824
 5807W        W24661  14.591   7.150   3.092  0.1765 -0.0178  0.0713
 5808W        W24662   3.899   9.249  12.167 -0.3486  0.1735 -0.3720
 5809W        W24663   4.213  17.975   2.095  0.0686 -0.1378  0.1170
 5810W        W24664   8.947   9.097  12.449 -0.1217  0.1312  0.0996
 5811W        W24665   4.705   1.276   1.623 -0.0965  0.0265 -0.1670
 5812W        W24666  17.936   2.075   4.325 -0.4636  0.1370  0.1915
 5813W        W24667  15.392   1.984  11.790  0.0509  0.3619 -0.0532
 5814W        W24668  11.965   0.104   0.635 -0.0938 -0.1794  0.0199
 5815W        W24669   0.161   8.234   1.305 -0.2546 -0.0269 -0.1358
 5816W        W24670   0.862  12.517  10.084 -0.2749  0.0690 -0.1068
 5817W        W24671   7.711   5.602   2.148 -0.0346 -0.1565  0.0225
 5818W        W24672  14.368   2.470   3.518 -0.2221 -0.3125 -0.0854
 5819W        W24673   2.045   2.548   0.784  0.2375  0.2308 -0.0737
 5820W        W24674  14.295  13.377   2.530  0.1671 -0.0052  0.0687
 5821W        W24675  16.710  10.751  11.611  0.4444 -0.1000 -0.0877
 5822W        W24676   2.970  15.405   0.667  0.0775 -0.0548  0.1357
 5823W        W24677   4.621   9.173   3.468 -0.2281  0.3618 -0.1333
 5824W        W24678  13.862   2.256   5.622 -0.2903  0.1262 -0.0741
 5825W        W24679   2.859   0.572  14.511  0.0706  0.0493  0.1735
 5826W        W24680  14.204   9.664   3.576 -0.1588  0.4184 -0.0870
 5827W        W24681  14.812  13.582   1.246  0.0746 -0.0087 -0.0383
 5828W        W24682  15.578  15.461   1.757  0.0874 -0.0533  0.0803
 5829W        W24683  17.449   4.158   3.737 -0.1833  0.0841  0.0527
 5830W        W24684   1.002   2.325  11.695  0.0795  0.0167  0.0490
 5831W        W24685  11.422   4.154   3.809  0.0464  0.0682  0.1327
 5832W        W24686   0.003  13.011   1.495  0.0065 -0.4056  0.0266
 5833W        W24687   0.846  16.340  15.086  0.1225 -0.1705  0.0139
 5834W        W24688  10.138  11.285  15.017  0.1757 -0.1165  0.0168
 5835W        W24689  11.754   9.744  13.392 -0.0047 -0.2660 -0.0883
 5836W        W24690  10.530   1.550  12.553  0.0107 -0.1007 -0.1140
 5837W        W24691  17.460   3.843   2.225 -0.1088 -0.1658 -0.2216
 5838W        W24692   6.879   2.191   3.427  0.0843 -0.0245 -0.2444
 5839W        W24693  13.587   7.951  12.052  0.0058 -0.0553  0.0657
 5840W        W24694   3.012  12.674   1.557  0.0039  0.0089 -0.0924
 5841W        W24695   9.100  17.297   2.796  0.3308 -0.0823  0.2210
 5842W        W24696   6.670  17.990  14.785  0.2268  0.1951 -0.0216
 5843W        W24697   5.961   7.254  13.003  0.0777 -0.1737 -0.0231
 5844W        W24698  17.853  17.880  14.747  0.2850 -0.0045 -0.1031
 5845W        W24699  16.464   6.628   3.798  0.0298  0.1287  0.0638
 5846W        W24700   7.708   3.241   3.302  0.1347  0.2994 -0.1922
 5847W        W24701   3.882  10.169   0.879  0.3028 -0.3079 -0.0093
 5848W        W24702  12.792   2.030  12.463 -0.0111  0.0461  0.4604
 5849W        W24703   4.607   7.641   4.686 -0.4376  0.0216 -0.0387
 5850W        W24704   8.488   6.247  14.267  0.2040 -0.1379  0.0114
 5851W        W24705   0.637  17.677   4.746 -0.2155  0.2059  0.0944
 5852W        W24706  14.649  10.354  12.935  0.4818 -0.2225  0.1691
 5853W        W24707  17.785  13.364   3.078  0.1246  0.1325  0.0663
 5854W        W24708   0.770   9.531  14.528 -0.3103 -0.0081  0.0413
 5855W        W24709  10.642   4.889   4.630 -0.4539 -0.1367 -0.0273
 5856W        W24710   7.823  16.913  14.875 -0.0058 -0.1386 -0.1301
 5857W        W24711   6.012   0.482   3.497 -0.2295 -0.0958 -0.1773
 5858W        W24712   9.419   5.391  13.144  0.2389  0.0203  0.0205
 5859W        W24713  11.703  14.895   1.111 -0.2451 -0.1687  0.1853
 5860W        W24714  12.827   0.585  13.977 -0.2811 -0.1786  0.2863
 5861W        W24715  18.350   0.042  11.054 -0.0781  0.0181 -0.0978
 5862W        W24716  13.500  12.470  11.586 -0.0403 -0.1132  0.1566
 5863W        W24717  16.334   4.057  13.822 -0.2424 -0.0020 -0.0028
 5864W        W24718   1.561  14.338   1.393 -0.0609  0.0151 -0.1432
 5865W        W24719  14.562   2.476  13.689  0.2018 -0.2199 -0.2119
 5866W        W24720  13.737  12.623   2.833 -0.2018  0.0453  0.1428
 5867W        W24721  16.705  10.560   4.062  0.0497  0.2478  0.0574
 5868W        W24722   4.194   0.778  13.798  0.0911  0.2202  0.0569
 5869W        W24723   7.564  11.445  13.170 -0.0523  0.2141  0.2431
 5870W        W24724   5.630  13.862  11.891  0.0992  0.1155 -0.1404
 5871W        W24725   0.825  17.894  15.321 -0.1540  0.2399  0.1100
 5872W        W24726  13.304  17.936   3.551 -0.3040 -0.3289  0.1233
 5873W        W24727   8.582  10.540   1.299 -0.1075 -0.1782 -0.1718
 5874W        W24728   6.176   0.192  13.299  0.3468  0.0958 -0.0719
 5875W        W24729   0.420   1.192  14.051 -0.1599 -0.2397 -0.0103
 5876W        W24730  10.296  10.704   3.325  0.0209 -0.1392  0.0246
 5877W        W24731  15.900  15.176   2.091  0.3003  0.0759  0.2717
 5878W        W24732   6.334   0.873   0.758  0.1294 -0.0166  0.0144
 5879W        W24733   5.820  13.831  10.960  0.2692 -0.3595 -0.0286
 5880W        W24734   4.878   8.366   0.148  0.0254  0.0779 -0.1484
 5881W        W24735   4.469  12.697   0.783  0.2066  0.1783  0.1296
 5882W        W24736  12.419   8.573  13.590 -0.0460 -0.0898  0.0050
 5883W        W24737  15.936  14.933  13.213 -0.0085  0.0979  0.1755
 5884W        W24738   7.489  18.053   1.435  0.1175  0.3577 -0.1863
 5885W        W24739   5.439  17.365  12.647  0.0116 -0.0225  0.0000
 5886W        W24740  11.897   6.699  13.703  0.1944  0.0929 -0.0082
 5887W        W24741   3.855   0.572  14.542  0.0784 -0.1773 -0.0740
 5888W        W24742   1.416   7.933   1.794  0.0769  0.3794  0.1155
 5889W        W24743  11.919   6.648   0.959  0.1958 -0.1391 -0.0528
 5890W        W24744   7.149  14.017  12.600 -0.2870  0.0137 -0.0772
 5891W        W24745   8.346  11.924   2.344 -0.3117  0.1216  0.0873
 5892W        W24746   7.863  15.021   4.060 -0.1166 -0.2827 -0.1405
 5893W        W24747  14.633   0.126  15.277 -0.0288  0.1915  0.3156
 5894W        W24748   4.717   0.088   3.980 -0.1555  0.1146  0.2443
 5895W        W24749   0.583   1.185  14.513  0.1975 -0.2525  0.0830
 5896W        W24750   7.095  13.595  12.972  0.2619 -0.0694 -0.5480
 5897W        W24751  13.667   9.174  15.044  0.1528 -0.1325  0.2688
 5898W        W24752   6.076   8.646  11.672 -0.0143  0.1432 -0.1460
 5899W        W24753  14.459  15.215   3.980 -0.0693  0.1222 -0.0574
 5900W        W24754   1.395  16.447   2.158  0.1752 -0.1788  0.1785
 5901W        W24755  13.277   9.281   1.358  0.2142  0.1937  0.0276
 5902W        W24756  16.274   1.030  11.784  0.2028 -0.2065 -0.1945
 5903W        W24757   6.065  12.824  14.532  0.1488 -0.1780 -0.2226
 5904W        W24758   5.867   2.247  11.094 -0.2470  0.0228  0.1831
 5905W        W24759   6.457   0.770  13.683  0.2527 -0.0517  0.0256
 5906W        W24760  13.667  11.062   0.709  0.1487  0.2831  0.2490
 5907W        W24761  12.751  11.543  12.105 -0.1008 -0.0517 -0.0628
 5908W        W24762   1.919   1.387  12.734 -0.0637  0.2480 -0.3677
 5909W        W24763   8.043  14.742  14.153 -0.0121  0.0708  0.0905
 5910W        W24764  18.542   6.547   2.677  0.3766  0.2698  0.0432
 5911W        W24765  11.709  13.600   3.014 -0.0224  0.2095  0.1339
 5912W        W24766  11.410  17.078   1.404 -0.0774  0.0329 -0.3890
 5913W        W24767  12.500  15.328   3.646  0.1610  0.0155 -0.2851
 5914W        W24768   9.755  11.192  11.408 -0.0487 -0.0573  0.2815
 5915W        W24769   7.325  14.652   0.764 -0.1362 -0.1308 -0.3860
 5916W        W24770   5.587   6.145   3.386 -0.2949  0.1967 -0.0302
 5917W        W24771   6.600   1.776   2.846  0.1109  0.0513  0.0194
 5918W        W24772  17.733   1.903   2.242 -0.1156  0.1397 -0.0544
 5919W        W24773  13.635  17.788  13.061 -0.0015  0.0708 -0.0241
 5920W        W24774  14.554  18.491   1.179  0.2571 -0.0393 -0.1868
 5921W        W24775  16.368   3.614  15.241 -0.2209 -0.1978  0.0357
 5922W        W24776   8.545   2.294   0.092  0.0211 -0.3482 -0.2180
 5923W        W24777   0.151   7.450  13.879 -0.1991  0.1482  0.2283
 5924W        W24778   9.797   1.815   1.342  0.5081 -0.0068 -0.0368
 5925W        W24779   1.964  17.921  13.849  0.1067 -0.1189  0.0934
 5926W        W24780  11.645  14.259   2.764  0.1046  0.3108 -0.0895
 5927W        W24781  10.766  10.147   0.922 -0.0958 -0.1651  0.2029
 5928W        W24782  10.647  14.602   2.093 -0.1636 -0.0885  0.1897
 5929W        W24783  16.878   9.893  12.257 -0.3358 -0.1237  0.0693
 5930W        W24784   7.511  13.501  13.727  0.0607 -0.2630  0.2083
 5931W        W24785   2.016  12.549   1.995  0.0370  0.1893 -0.0878
 5932W        W24786   5.390  13.255  14.832  0.4530 -0.1423  0.2614
 5933W        W24787   6.777   6.743  14.143  0.0398 -0.0195 -0.0142
 5934W        W24788  18.261   8.353   1.141  0.3035  0.1990 -0.2316
 5935W        W24789   9.015   3.197  12.754  0.0708 -0.1144 -0.5402
 5936W        W24790   5.520   0.329  12.463 -0.0200 -0.0996 -0.0219
 5937W        W24791   3.656   7.721   0.682 -0.0970 -0.0160  0.1059
 5938W        W24792  15.229  14.716   3.363 -0.2923 -0.1085  0.0914
 5939W        W24793   5.882  18.144  14.100  0.1318  0.3066  0.0544
 5940W        W24794   9.567  12.990   1.424 -0.2327 -0.0746 -0.0914
 5941W        W24795   8.745   9.341   4.654  0.0746 -0.1654 -0.3072
 5942W        W24796   5.111  12.636   3.534 -0.0054 -0.1301 -0.1253
 5943W        W24797  10.676  10.064  14.265  0.0473  0.1344 -0.1506
 5944W        W24798  14.002  13.298   0.053 -0.1165 -0.2265  0.2166
 5945W        W24799   6.625   6.589  14.989  0.1635 -0.1566 -0.2156
 5946W        W24800   5.252   6.211  14.501 -0.0148 -0.0195 -0.0202
 5947W        W24801   3.347   0.853  13.222  0.2882 -0.0334 -0.1327
 5948W        W24802   6.474  17.130  11.674 -0.1852 -0.0987 -0.1748
 5949W        W24803   5.234  12.189  12.826  0.1211  0.3309  0.3271
 5950W        W24804  10.183  13.313  11.251 -0.1650 -0.0932 -0.0119
 5951W        W24805  13.371  17.162  13.629 -0.0848  0.0585 -0.0287
 5952W        W24806   2.475  11.284  12.297  0.0426 -0.2661 -0.1925
 5953W        W24807   2.323  15.618   0.829  0.2630 -0.1014  0.2076
 5954W        W24808   7.173  16.667  10.863  0.1653 -0.1110  0.0857
 5955W        W24809   6.229   2.835   2.139  0.1547 -0.2307  0.1008
 5956W        W24810   2.292  17.087  13.227 -0.3616 -0.0520  0.1297
 5957W        W24811   1.055  15.483   2.063  0.0651  0.0283 -0.1428
 5958W        W24812   5.749  10.706  14.068  0.1279 -0.1005  0.3289
 5959W        W24813  15.881  14.986  12.730 -0.2026 -0.1837  0.2000
 5960W        W24814  12.534  12.915   1.463  0.0881  0.3737  0.1591
 5961W        W24815  13.339  12.703   4.814  0.1170 -0.2570 -0.1742
 5962W        W24816  15.969  15.589   1.272 -0.4471 -0.0276  0.3632
 5963W        W24817  17.292   2.547  13.552  0.2673 -0.2431 -0.1805
 5964W        W24818  14.128   9.431  14.487 -0.1825  0.2694 -0.3149
 5965W        W24819  15.000   4.378   0.432  0.0247  0.0674  0.2720
 5966W        W24820   2.517  14.957   2.711  0.2847 -0.3987 -0.1343
 5967W        W24821  18.191  13.032   3.862  0.0790 -0.0531 -0.4985
 5968W        W24822  11.464  15.555   2.254 -0.0239 -0.2166  0.1750
 5969W        W24823  12.365  11.347  12.481 -0.0422 -0.0585  0.0666
 5970W        W24824  11.639  11.883  13.121  0.4354 -0.3560  0.5580
 5971W        W24825   5.379  17.827  15.302  0.2054  0.1040  0.2521
 5972W        W24826   2.966   6.055   2.684 -0.0787  0.0625 -0.0396
 5973W        W24827   2.983   2.681   0.230  0.0001 -0.1748 -0.0787
 5974W        W24828  17.769   3.876  13.944 -0.2261  0.1655  0.1691
 5975W        W24829   6.707  13.127  10.814  0.1769 -0.1676  0.1820
 5976W        W24830   9.955   6.502   1.181 -0.0698  0.1401 -0.0226
 5977W        W24831  17.469   4.535  14.796  0.2270  0.0001 -0.2107
 5978W        W24832  15.815  16.613  12.102 -0.0497  0.2271 -0.3735
 5979W        W24833   8.848   2.136   3.400 -0.1203  0.0951 -0.3434
 5980W        W24834  11.715   8.664   2.617  0.2195 -0.2230 -0.0301
 5981W        W24835  14.453  18.501  11.944  0.2308  0.1910  0.1384
 5982W        W24836   3.730   5.367  14.841 -0.2026 -0.0401  0.3112
 5983W        W24837  15.471   0.196  11.020  0.3607 -0.0969 -0.0018
 5984W        W24838   6.717  11.740  15.432  0.1892 -0.0743  0.1297
 5985W        W24839   1.679   8.288   2.085 -0.1446  0.0079 -0.0027
 5986W        W24840  18.201   6.845  13.632  0.3415 -0.0160 -0.0927
 5987W        W24841   6.688   0.263  15.391  0.0156 -0.0047  0.0224
 5988W        W24842  17.262   3.206  15.050  0.1946 -0.0637  0.1766
 5989W        W24843  11.779   3.883   0.371 -0.0290  0.0561 -0.1362
 5990W        W24844   1.112   2.312   0.802 -0.0163 -0.0508 -0.1764
 5991W        W24845   8.270  16.902  11.446 -0.0381  0.1715 -0.1656
 5992W        W24846  18.112   2.066   4.914 -0.0046 -0.2302 -0.0395
 5993W        W24847   8.498   8.179  10.222 -0.0917  0.1065 -0.1999
 5994W        W24848  15.048  10.983  15.367 -0.2318  0.2270  0.1508
 5995W        W24849  15.557  12.120   3.440 -0.1759  0.2433 -0.0908
 5996W        W24850   9.822  15.336  15.069 -0.0426 -0.0074  0.1837
 5997W        W24851  17.671   3.444  14.374 -0.1485  0.2291 -0.2407
 5998W        W24852   3.899   9.349   2.915 -0.0045 -0.0217  0.4438
 5999W        W24853   5.440  12.752   0.533 -0.0769 -0.2860  0.1128
 6000W        W24854   0.435  14.618   2.954  0.1554  0.0755 -0.2746
 6001W        W24855  11.972  14.747  14.144 -0.1248 -0.0088  0.0536
 6002W        W24856  18.510  12.412   2.390  0.1739  0.1847 -0.1836
 6003W        W24857  11.133  15.493   1.328  0.2091 -0.1744  0.2348
 6004W        W24858   2.812   5.603   0.743  0.3058 -0.0409 -0.0270
 6005W        W24859   5.952  12.143  15.041 -0.0658  0.0443 -0.2133
 6006W        W24860  11.393  13.449  15.137  0.0449  0.1960  0.0390
 6007W        W24861   2.917  15.000  14.173 -0.2924 -0.0109  0.1248
 6008W        W24862  13.617  15.409  15.371  0.0484 -0.0639 -0.2586
 6009W        W24863  12.984   2.152  12.025 -0.0552  0.2266  0.2635
 6010W        W24864   2.594  15.894   2.333  0.0208  0.0704  0.0997
 6011W        W24865  14.884  18.246   3.177 -0.0625  0.2626  0.2598
 6012W        W24866   8.061   3.353  14.784 -0.1258  0.0671 -0.0519
 6013W        W24867  14.250   1.092   0.429 -0.2916 -0.0010 -0.0411
 6014W        W24868  14.511  14.755   1.976  0.0648  0.1828  0.0528
 6015W        W24869  11.629   7.241  12.592 -0.0833 -0.1001  0.1039
 6016W        W24870  16.419   6.254  13.316 -0.0888  0.0389 -0.0838
 6017W        W24871  10.046  17.333   2.031 -0.0960 -0.0941 -0.1019
 6018W        W24872  11.354   4.014   0.733  0.1638  0.2908  0.1079
 6019W        W24873   6.767   0.312   2.990  0.1607  0.1908  0.1547
 6020W        W24874   2.008  13.507  14.436 -0.0279  0.0659 -0.0093
 6021W        W24875   9.334  10.278   2.080  0.2660 -0.2666 -0.0521
 6022W        W24876   6.832   5.546   3.742 -0.1428 -0.0809  0.0894
 6023W        W24877  16.875   4.901  13.648 -0.1558 -0.0441  0.3161
 6024W        W24878   2.586  14.498   2.456 -0.0283 -0.0229  0.0051
 6025W        W24879   2.156  16.242  11.425  0.2500  0.2379  0.0448
 6026W        W24880   4.521   8.441  11.709  0.3013 -0.1682  0.1261
 6027W        W24881   2.028  14.975  11.444 -0.1335 -0.1302 -0.2393
 6028W        W24882   2.493  14.721   0.511  0.0549 -0.0255  0.1643
 6029W        W24883  15.934   3.034   1.301  0.1125 -0.0597  0.1548
 6030W        W24884  12.480  10.051   4.848  0.0232 -0.1895  0.2518
 6031W        W24885   8.373   4.511   2.094  0.0683  0.0983  0.0732
 6032W        W24886  16.128  10.598  14.066 -0.1545 -0.0483  0.0350
 6033W        W24887  17.788   3.808   0.890  0.0978  0.1255  0.1115
 6034W        W24888   2.554   7.398   1.348  0.1895 -0.0201 -0.1099
 6035W        W24889   1.635   7.410  12.879 -0.0234  0.0549 -0.1684
 6036W        W24890  16.075   7.107   3.069 -0.3426  0.1566  0.0469
 6037W        W24891  11.759  12.549   2.111  0.3362 -0.1895  0.0290
 6038W        W24892  16.821   6.225  12.404  0.0148  0.2071  0.1944
 6039W        W24893   9.338   6.346   4.473 -0.0648  0.2760  0.0926
 6040W        W24894  15.501  16.200   3.770 -0.1276  0.0988  0.0216
 6041W        W24895  18.515   6.780   5.517 -0.1510  0.4275  0.2146
 6042W        W24896   2.424   3.224   1.346 -0.1413 -0.1159  0.0126
 6043W        W24897   1.417   0.690   3.612 -0.0787  0.2091 -0.3083
 6044W        W24898   8.823   8.572  11.098 -0.0190 -0.4340 -0.2456
 6045W        W24899  16.332   4.542  13.967 -0.1274  0.1993 -0.0657
 6046W        W24900  12.275  11.544   1.379  0.2709 -0.1883 -0.0225
 6047W        W24901   3.302  13.732   1.252  0.2848 -0.0673  0.0689
 6048W        W24902  10.877   2.124   0.577  0.1920  0.2174 -0.0688
 6049W        W24903  14.500   6.451   4.543 -0.0007  0.1670  0.1338
 6050W        W24904   8.141   2.522  11.758  0.2833  0.0615 -0.0340
 6051W        W24905   7.691   2.526   0.844  0.2468 -0.2573 -0.2007
 6052W        W24906   6.053   2.734  14.062 -0.1469 -0.0791 -0.1518
 6053W        W24907   8.527   6.840   1.270  0.1025 -0.1548  0.0999
 6054W        W24908  14.249   7.626   2.073 -0.0310  0.1838 -0.2320
 6055W        W24909   0.862  12.025   9.891 -0.0094  0.1031 -0.5165
 6056W        W24910   4.837  15.939   3.144  0.0235 -0.0334  0.1827
 6057W        W24911   6.645   8.767   2.972  0.3361 -0.0166  0.1464
 6058W        W24912  16.403   4.512  10.252 -0.1207  0.1441  0.4029
 6059W        W24913   0.057   6.361   1.205  0.1164  0.1907  0.1273
 6060W        W24914   5.674  12.975   2.951  0.0272  0.3491  0.1506
 6061W        W24915   0.705  15.206   0.404 -0.3476  0.2378  0.2251
 6062W        W24916   0.948   9.545   4.150 -0.0297  0.0750  0.3163
 6063W        W24917  12.452  17.683   0.861 -0.1748 -0.2352 -0.0484
 6064W        W24918   7.399   6.862   1.698  0.1794 -0.1691  0.3406
 6065W        W24919  11.779   7.963   4.501 -0.0201 -0.1864  0.2068
 6066W        W24920   5.364   5.718   1.735 -0.0314  0.0835 -0.2148
 6067W        W24921   6.089   9.958   4.305  0.2401  0.0083  0.1566
 6068W        W24922   4.841  13.216  15.423  0.1256  0.0824  0.2247
 6069W        W24923   1.827  17.656  12.373  0.0421 -0.0774  0.1359
 6070W        W24924  17.227  17.425  12.386  0.3065  0.0197  0.0777
 6071W        W24925  16.541   8.357   2.240  0.3156  0.1736  0.1517
 6072W        W24926   7.315   5.275   4.832 -0.2706  0.0589 -0.0635
 6073W        W24927  18.202   6.348   3.789  0.0571 -0.2943 -0.0119
 6074W        W24928  14.655   2.998  13.440 -0.1134  0.0733 -0.1148
 6075W        W24929   9.367   3.206  11.451  0.2901 -0.0554  0.0713
 6076W        W24930   0.906   3.621   0.622 -0.1423  0.0049  0.0781
 6077W        W24931   1.320   2.705  10.394 -0.3580  0.1182 -0.0685
 6078W        W24932  11.532  16.185  15.242  0.0062  0.0927  0.1480
 6079W        W24933  15.163   0.780   3.234 -0.0182 -0.0926 -0.2572
 6080W        W24934   2.219   6.616   3.435  0.0489  0.1472 -0.1046
 6081W        W24935   7.394  14.561   0.133 -0.1800 -0.1862  0.1336
 6082W        W24936   1.122   1.071  12.291  0.2628 -0.1538  0.1764
 6083W        W24937  12.590  17.632  13.882  0.3663 -0.0739  0.4569
 6084W        W24938  11.755  12.996   4.342  0.1989  0.1660  0.1013
 6085W        W24939   5.591   1.826   3.772 -0.0780 -0.1758  0.0279
 6086W        W24940  11.020   3.548  13.595 -0.1445  0.1283 -0.1545
 6087W        W24941   2.396  14.777  11.957 -0.1052 -0.1002 -0.0641
 6088W        W24942  15.938   4.555   9.479 -0.0372 -0.1862  0.0682
 6089W        W24943   7.976  17.880  14.813  0.1265 -0.1658 -0.2426
 6090W        W24944  18.433  10.890   3.706  0.3465  0.2408  0.3474
 6091W        W24945   8.455   7.276   4.400 -0.0526  0.1837 -0.3412
 6092W        W24946   6.261  14.405   4.231 -0.2536  0.2678  0.1113
 6093W        W24947  11.668   8.108  13.422  0.3088 -0.3043  0.0953
 6094W        W24948  10.493  10.717   2.850  0.0153 -0.1078  0.0512
 6095W        W24949   2.444   7.002   2.616  0.2104  0.1079  0.4652
 6096W        W24950   8.619   5.869   2.952  0.0659  0.0129  0.0023
 6097W        W24951  17.402   1.353   1.451 -0.0644 -0.0634  0.0043
 6098W        W24952   8.084   0.216  14.288  0.0921  0.1777 -0.0655
 6099W        W24953  16.015  12.608   0.389  0.1625  0.3662 -0.1654
 6100W        W24954  13.893  11.909  13.042  0.1713 -0.1268 -0.2232
 6101W        W24955  13.713   7.837   1.352  0.0225  0.3616  0.0988
 6102W        W24956   0.979  17.092   1.793 -0.2467  0.1101 -0.2556
 6103W        W24957   6.859   5.959   2.735  0.1630  0.0617 -0.1907
 6104W        W24958  17.172   0.694  11.815 -0.0308 -0.0865  0.0293
 6105W        W24959   9.813   8.391  13.474  0.4719 -0.4285 -0.0048
 6106W        W24960   3.495   8.355   2.787 -0.0087  0.1279 -0.0059
 6107W        W24961   4.799  17.262   1.818 -0.2709  0.2442  0.1625
 6108W        W24962  14.739  14.964  13.845 -0.0941  0.1096 -0.0601
 6109W        W24963   6.232   3.710  13.996 -0.1153  0.3181  0.0209
 6110W        W24964  11.452   5.692  13.108 -0.2758 -0.0731 -0.2060
 6111W        W24965  16.440   1.385   0.352 -0.0575  0.0458 -0.2141
 6112W        W24966  12.377   1.770   4.428 -0.0528  0.0761  0.0986
 6113W        W24967  15.384  15.836  11.498  0.1358 -0.0640 -0.4062
 6114W        W24968  18.132   8.533  15.113 -0.0669  0.1191  0.1552
 6115W        W24969   2.909   0.955  11.939 -0.0660 -0.1087  0.3315
 6116W        W24970   3.324  13.554  10.893 -0.1210  0.0043 -0.0602
 6117W        W24971   5.996   6.508  10.911 -0.1957  0.2046 -0.1406
 6118W        W24972  14.782  14.541   3.639 -0.1262 -0.1319 -0.0364
 6119W        W24973   4.856  11.792  14.786  0.0729  0.1235  0.1859
 6120W        W24974  14.896  18.335  15.029  0.0648 -0.2696  0.1544
 6121W        W24975   5.145  15.891   1.343 -0.2506  0.0583 -0.2380
 6122W        W24976   7.682  17.340  12.062  0.2379 -0.1474 -0.0367
 6123W        W24977   1.505   9.511   4.280  0.0660  0.1640 -0.1919
 6124W        W24978  17.923  17.518  12.237  0.2899 -0.0549 -0.0348
 6125W        W24979   4.738   6.930  13.565 -0.1694 -0.1302 -0.4002
 6126W        W24980  17.339   2.854   1.173  0.4615  0.0953 -0.0931
 6127W        W24981   4.031   7.277  12.626 -0.1517 -0.6023 -0.1058
 6128W        W24982  15.213   3.291   2.448  0.1959  0.2409 -0.2565
 6129W        W24983   7.570  13.892   2.159  0.0038  0.1668  0.2142
 6130W        W24984  12.591  12.373  12.718  0.2880  0.5424  0.0759
 6131W        W24985   8.362  13.275   3.636 -0.3034  0.1432  0.0359
 6132W        W24986  10.158   9.472   0.472  0.1611 -0.4088  0.0040
 6133W        W24987   6.758   7.613  12.170  0.1866  0.1192  0.1089
 6134W        W24988  15.534   8.153  13.355 -0.0626  0.1761  0.1143
 6135W        W24989  17.447  17.450   0.721 -0.0678  0.2659  0.1525
 6136W        W24990  13.266  16.712  12.268 -0.1105  0.3898  0.0530
 6137W        W24991   4.432   9.717   0.093 -0.0856  0.1419  0.2414
 6138W        W24992   9.657   9.047   2.582 -0.1064  0.0952  0.0367
 6139W        W24993   2.868  13.537   0.161  0.2308  0.1261 -0.0442
 6140W        W24994  14.797   2.209  15.383 -0.0925 -0.0657 -0.4571
 6141W        W24995  13.880   1.249  14.060 -0.0572 -0.2503 -0.1661
 6142W        W24996  14.887  15.317   4.760 -0.0902 -0.0812  0.2426
 6143W        W24997   7.042   4.928   1.034  0.0488 -0.1817 -0.2096
 6144W        W24998   2.901   4.929   3.047  0.2086 -0.0045 -0.3593
 6145W        W24999   6.958   5.990   1.715 -0.0768  0.1079 -0.0901
 6146W        W25000   5.795   8.212   0.194  0.1598 -0.0868 -0.1514
 6147W        W25001   5.347   0.153  12.866 -0.1536 -0.1058  0.0294
 6148W        W25002   6.084   3.234  13.823  0.0481 -0.2943  0.0680
 6149W        W25003  18.288   3.476   4.685  0.2446 -0.0536 -0.0080
 6150W        W25004   5.109  16.813   3.160  0.1146  0.1856 -0.1856
 6151W        W25005  12.518   1.366   1.969 -0.1302  0.1293 -0.3164
 6152W        W25006  15.912   5.209   3.034 -0.2520 -0.1422 -0.0085
 6153W        W25007   4.250   2.522   2.917 -0.1023  0.1987  0.0119
 6154W        W25008   2.804   6.103  13.047 -0.0350 -0.3409  0.3489
 6155W        W25009  11.190   6.363  13.791  0.3844 -0.0077  0.3230
 6156W        W25010   5.990   9.017  11.116 -0.1824 -0.0900  0.1896
 6157W        W25011  17.744   6.860  13.859  0.1356  0.1131 -0.2610
 6158W        W25012   4.928  15.894   2.319 -0.2995  0.0381 -0.0740
 6159W        W25013   5.250  16.873   1.560  0.0108  0.5769  0.1094
 6160W        W25014   3.631   2.121  12.877  0.0304  0.0681  0.0046
 6161W        W25015   7.779   5.730   4.036 -0.1415  0.0663 -0.2026
 6162W        W25016   5.648   3.150  11.222  0.0961  0.1707 -0.0759
 6163W        W25017   3.087   0.252   0.017 -0.0474  0.0467  0.0688
 6164W        W25018  18.259   8.717  14.003 -0.0020  0.0158  0.1915
 6165W        W25019  16.773  14.123   2.083 -0.1315 -0.0823 -0.0712
 6166W        W25020  14.446   6.600  12.906 -0.3221  0.0371 -0.1730
 6167W        W25021  14.981   0.628  14.502 -0.1053  0.1476 -0.0099
 6168W        W25022   0.429  11.983  12.200  0.3547  0.1388 -0.2764
 6169W        W25023  10.363   5.084   4.156  0.3900 -0.2662 -0.2139
 6170W        W25024   1.977   7.284   2.908 -0.0609 -0.2620  0.2607
 6171W        W25025  12.331  16.230  14.032  0.4067 -0.0468  0.1058
 6172W        W25026   5.784   0.642   2.591 -0.2447  0.2969 -0.0625
 6173W        W25027  15.667  14.078  13.334 -0.1854  0.0064  0.1495
 6174W        W25028   4.765  16.424   2.441 -0.0993 -0.0631 -0.1779
 6175W        W25029   3.731  18.380   3.032  0.0905 -0.2212 -0.0178
 6176W        W25030  15.796   3.221   4.344 -0.1750  0.0177  0.1378
 6177W        W25031  15.050  16.147  13.674  0.0284 -0.0813  0.0564
 6178W        W25032  14.745   2.408  12.332 -0.0491 -0.3289 -0.1127
 6179W        W25033   8.408   6.147   3.736 -0.1046 -0.2927  0.3882
 6180W        W25034  15.926  11.087   4.353 -0.0051 -0.3330  0.3306
 6181W        W25035  10.652  15.067  11.198 -0.0306  0.2526 -0.0465
 6182W        W25036   8.343  14.736   2.906  0.1399  0.2751  0.1444
 6183W        W25037   4.331   9.795   4.314 -0.0841  0.1486  0.2327
 6184W        W25038  17.456   0.149  15.268  0.0927  0.0731 -0.2114
 6185W        W25039  11.993  14.260   0.452 -0.0179 -0.2270 -0.2256
 6186W        W25040   4.537   2.311  12.366 -0.2316  0.1443 -0.3307
 6187W        W25041   6.893   6.234  15.216 -0.0644 -0.0202  0.0368
 6188W        W25042   2.213   0.551   3.593  0.0962  0.1532 -0.3423
 6189W        W25043   4.067   5.547  13.941  0.0253  0.4220 -0.3509
 6190W        W25044  16.390  17.379  11.911 -0.0709 -0.1665  0.2062
 6191W        W25045   6.340  18.330   2.271 -0.0160  0.2523  0.2187
 6192W        W25046   7.118   7.805   3.821 -0.2725  0.2418  0.2059
 6193W        W25047   4.981  10.931   2.674  0.0043 -0.2680  0.0609
 6194W        W25048   3.757  12.661   3.240 -0.4451 -0.1834 -0.0231
 6195W        W25049   7.303  11.348  10.927  0.2859 -0.0130  0.1036
 6196W        W25050   6.225   6.390  11.437 -0.1378 -0.1963  0.2794
 6197W        W25051  14.662  17.206  13.783  0.1568  0.5558 -0.2743
 6198W        W25052   8.770   9.805  13.438  0.2870 -0.0204  0.3498
 6199W        W25053  12.435  16.547   4.896  0.2318  0.0519  0.1989
 6200W        W25054   0.280   7.851  14.946  0.0552  0.0196  0.1682
 6201W        W25055   6.516  13.335  11.301  0.1488  0.2801 -0.0065
 6202W        W25056   3.500   5.713  14.519  0.0935 -0.0903 -0.0415
 6203W        W25057   8.088   4.310  13.052 -0.1065  0.1495 -0.1270
 6204W        W25058   5.610   7.548   2.684  0.0992  0.0906  0.2297
 6205W        W25059  10.687   3.564   1.449 -0.0901  0.1501  0.1467
 6206W        W25060   3.789   4.428  14.783 -0.0816  0.3514 -0.0453
 6207W        W25061   1.256   0.004   3.769  0.0802 -0.0519  0.1705
 6208W        W25062  15.719   2.552   0.056 -0.0129 -0.2779  0.0163
 6209W        W25063   3.591  16.357   3.481  0.0605 -0.1726  0.0131
 6210W        W25064  13.447   6.586   0.140  0.1515 -0.0882 -0.3666
 6211W        W25065  18.480  15.893  14.125  0.3454 -0.0364  0.4253
 6212W        W25066  15.603   7.833   3.393 -0.0370 -0.1824  0.0158
 6213W        W25067  13.987  12.137  13.472 -0.0078 -0.4107 -0.0671
 6214W        W25068   5.167   9.626  13.065 -0.2942 -0.1173  0.3416
 6215W        W25069  18.379  14.641   5.217  0.1002 -0.2573  0.5372
 6216W        W25070   4.023   3.412   3.618  0.0275 -0.2373 -0.0275
 6217W        W25071   4.980  14.900  13.777  0.3566 -0.1020 -0.0190
 6218W        W25072   9.091   2.083   3.935  0.1408 -0.1231  0.2765
 6219W        W25073   5.600  16.074  13.228  0.0131  0.0168 -0.2246
 6220W        W25074   9.395  16.167  10.435  0.1201  0.1379 -0.0733
 6221W        W25075   4.546  12.490  14.210  0.2224 -0.0094 -0.0749
 6222W        W25076   9.168  14.722  10.807 -0.0032  0.0757 -0.0105
 6223W        W25077   1.358  15.728   3.926 -0.0514 -0.4183  0.2575
 6224W        W25078  10.726   3.673  12.371  0.0773  0.0431 -0.1399
 6225W        W25079  10.264  10.225   2.393  0.0209  0.1241 -0.1744
 6226W        W25080   7.141   4.923   2.088 -0.0277  0.3714 -0.0067
 6227W        W25081   0.907  12.908  13.701  0.0386 -0.2475 -0.2972
 6228W        W25082  16.736   1.958   3.302  0.2681  0.1310 -0.0428
 6229W        W25083   1.069   4.262   3.864  0.2450 -0.3365 -0.2513
 6230W        W25084   0.530   5.446   4.634 -0.0115 -0.0754 -0.0891
 6231W        W25085  15.206  13.646   1.585 -0.1541  0.2656 -0.2964
 6232W        W25086   4.854  12.166  14.470  0.0783 -0.0270  0.1180
 6233W        W25087   3.630   2.627  12.571 -0.3190 -0.1270 -0.0414
 6234W        W25088   7.898   2.776   4.181 -0.2714 -0.0787  0.1021
 6235W        W25089   0.960  11.471  12.293 -0.1705 -0.3021 -0.1064
 6236W        W25090   0.848  12.983   3.669  0.1567 -0.0110  0.4045
 6237W        W25091   9.856   2.494   1.993 -0.0481 -0.2181  0.1570
 6238W        W25092   6.953  12.900  13.557 -0.0993  0.2003  0.0812
 6239W        W25093   7.181  13.217  13.938 -0.1973  0.1646  0.0224
 6240W        W25094   8.387   2.184  14.406  0.1593 -0.0588 -0.1115
 6241W        W25095  15.506  11.116   3.076  0.0579  0.1782  0.3083
 6242W        W25096   4.086  16.301  11.353  0.0369 -0.2143 -0.0416
 6243W        W25097  18.298   8.332  13.613  0.0239 -0.0006 -0.0424
 6244W        W25098   7.856  16.984   2.702 -0.1880 -0.4679 -0.0922
 6245W        W25099   8.699   9.386  11.873 -0.0878 -0.3915 -0.1260
 6246W        W25100   2.754   2.918   1.045  0.3612  0.1642 -0.0599
 6247W        W25101  10.997   9.943   2.265 -0.2789 -0.2674  0.2298
 6248W        W25102  15.409   6.416  13.736 -0.0065  0.4312 -0.0850
 6249W        W25103  18.101   2.480   3.227 -0.0923  0.1055  0.2068
 6250W        W25104  11.583  14.764   4.407  0.3972  0.2447 -0.1009
 6251W        W25105  14.152  13.563   3.008 -0.1184  0.1473 -0.1210
 6252W        W25106   9.226   5.171   0.497 -0.0081 -0.1019  0.0848
 6253W        W25107  11.928   0.235  14.276 -0.2247 -0.0368  0.1199
 6254W        W25108   3.768  12.866  14.830 -0.2184 -0.2657  0.1141
 6255W        W25109  18.038  18.005  11.421 -0.0682 -0.1312  0.1706
 6256W        W25110   9.547  15.736   1.309 -0.1544  0.0846  0.1401
 6257W        W25111   4.165  13.762  12.272 -0.0477 -0.2750 -0.1173
 6258W        W25112   2.705  10.259   3.562  0.1278 -0.0599 -0.0059
 6259W        W25113  10.339  16.708  13.751  0.2159 -0.3017 -0.0883
 6260W        W25114  11.134  10.593   3.494  0.5768 -0.0016 -0.0618
 6261W        W25115  15.834   4.023  13.434  0.2205  0.0628  0.1037
 6262W        W25116  10.495  16.115  14.995 -0.0402  0.1810  0.1280
 6263W        W25117   3.884   4.380  13.269  0.5723 -0.0238 -0.1538
 6264W        W25118   9.544  16.607   2.077  0.0378 -0.0480  0.1292
 6265W        W25119   9.735   8.452   4.738  0.1078 -0.1948 -0.0375
 6266W        W25120  14.906   1.104  14.270  0.1049 -0.0749 -0.0115
 6267W        W25121   0.626  10.025  13.719 -0.1106 -0.0960  0.1286
 6268W        W25122  17.580   5.493  14.506 -0.2548 -0.1723  0.0550
 6269W        W25123  16.105   9.095  15.295 -0.1042 -0.0675  0.2079
 6270W        W25124   5.294   4.514   2.522  0.0058  0.3212 -0.1720
 6271W        W25125  13.192   5.215  11.409 -0.3151  0.0375 -0.2435
 6272W        W25126   0.831  15.381   1.318 -0.1387 -0.2294  0.3087
 6273W        W25127  10.278  15.655   5.659  0.2553 -0.3418  0.2201
 6274W        W25128   7.613  16.336  12.078 -0.0165  0.3535  0.0861
 6275W        W25129   4.326  11.240  13.253 -0.0119 -0.0509  0.0918
 6276W        W25130   9.080   7.466   3.773  0.1574 -0.0529  0.1150
 6277W        W25131   7.027  11.571   4.576  0.1943  0.0156  0.1239
 6278W        W25132   0.897  15.441  12.414 -0.4451 -0.1422 -0.0125
 6279W        W25133   6.061   3.209  11.513  0.1696 -0.0235  0.0112
 6280W        W25134  11.084  16.363  13.254  0.1988 -0.0802  0.1359
 6281W        W25135  11.927   1.634  11.505  0.2585  0.0431  0.3804
 6282W        W25136  14.067   2.440  13.713  0.0759  0.0835 -0.1688
 6283W        W25137  12.059   1.168  14.326  0.2243  0.0287  0.1990
 6284W        W25138   7.350   4.721  13.936 -0.0026  0.2967 -0.2119
 6285W        W25139  10.387   5.171  14.767  0.0007  0.0761  0.0809
 6286W        W25140  13.292  13.287   2.116 -0.3144  0.0904 -0.2515
 6287W        W25141   2.816  15.909   0.958  0.1850  0.1568 -0.0015
 6288W        W25142   9.862   5.786  10.932 -0.2062  0.0456  0.0867
 6289W        W25143  13.960   5.418   0.219  0.1607  0.0330 -0.0058
 6290W        W25144  10.136  12.621  13.192  0.0966  0.1044 -0.2355
 6291W        W25145  16.580   5.964   5.595  0.1083  0.0724  0.0455
 6292W        W25146   4.467  15.979  11.171 -0.2422  0.2091 -0.2283
 6293W        W25147  14.968  11.633   1.789 -0.2251 -0.1798 -0.1134
 6294W        W25148   1.621  11.174   2.311  0.0081 -0.0750 -0.3050
 6295W        W25149   9.387   6.705   2.993 -0.1754  0.0730  0.2018
 6296W        W25150  16.709   2.038  13.068  0.0501 -0.1743 -0.0167
 6297W        W25151   7.123  13.344  14.740 -0.0375 -0.0993 -0.0006
 6298W        W25152   7.674  17.420  13.189  0.1329  0.0289 -0.0663
 6299W        W25153   4.549  16.882  14.967 -0.1789  0.1468 -0.0985
 6300W        W25154  10.893   9.143  11.789  0.3061 -0.1743 -0.0958
 6301W        W25155  13.170  12.250  14.042  0.0056 -0.0327 -0.1140
 6302W        W25156   9.351   7.591  15.220 -0.0094  0.0718  0.1136
 6303W        W25157  11.933   1.466   0.861  0.1750 -0.2090 -0.0561
 6304W        W25158   6.756  11.316  15.097  0.1478 -0.1035 -0.3751
 6305W        W25159  15.218  13.475   4.271 -0.0229  0.0772  0.0084
 6306W        W25160  13.478   2.960   1.018 -0.1607 -0.0774  0.0444
 6307W        W25161   5.541   2.148   4.150 -0.0797  0.4018 -0.1861
 6308W        W25162   5.768   5.910   2.946  0.0162 -0.0450  0.0747
 6309W        W25163   4.980   4.031  11.336  0.0642 -0.1288  0.0295
 6310W        W25164  16.726   7.728  11.575 -0.0660  0.2585  0.1598
 6311W        W25165  14.407   1.119  14.462  0.1909  0.0368 -0.1343
 6312W        W25166   4.199   6.476  13.681 -0.0061  0.0882  0.0229
 6313W        W25167   5.238   6.807  13.597  0.3693  0.1503 -0.0842
 6314W        W25168   1.993   3.342   2.699  0.1808 -0.0360 -0.0484
 6315W        W25169  16.420  14.593   0.897 -0.2093  0.0456 -0.1674
 6316W        W25170   5.282   9.142   1.039  0.1478  0.4290 -0.2332
 6317W        W25171  11.831   5.666   0.977 -0.0079 -0.0369  0.2717
 6318W        W25172  12.197  11.697  12.127 -0.1777 -0.0910 -0.0980
 6319W        W25173  12.452   4.885   3.681 -0.0299 -0.2507  0.0401
 6320W        W25174  11.561  16.880  12.954  0.1427  0.0322 -0.3140
 6321W        W25175   9.369   4.510   2.335 -0.1989  0.2275 -0.0068
 6322W        W25176  11.357  16.264  10.707  0.0361 -0.1210 -0.1581
 6323W        W25177  14.344   3.414   1.370  0.2108  0.1085 -0.0193
 6324W        W25178   4.758  12.359   3.281 -0.2130  0.3533 -0.0405
 6325W        W25179  17.686  10.870   0.373  0.3248  0.0532 -0.0297
 6326W        W25180  12.413   1.632   2.936  0.1532 -0.0863  0.0713
 6327W        W25181  14.069   7.238   4.340 -0.4468 -0.0013 -0.1177
 6328W        W25182   1.581   0.312  11.244  0.1966 -0.2425 -0.0320
 6329W        W25183   8.858  17.151  10.568 -0.1404 -0.2251  0.3013
 6330W        W25184  12.278   5.334  11.305  0.0610  0.1116  0.0248
 6331W        W25185  16.658  13.186   4.046  0.4718 -0.3019 -0.1537
 6332W        W25186   9.131   0.810  15.282 -0.2613  0.1603  0.0459
 6333W        W25187   4.912   2.566   4.721  0.2902  0.0697 -0.2282
 6334W        W25188   9.786   4.639  15.361 -0.1241  0.0451 -0.1096
 6335W        W25189  14.852  16.756   4.000 -0.1475 -0.0875  0.0639
 6336W        W25190  13.294  10.437   2.533 -0.0898 -0.1749 -0.2738
 6337W        W25191  13.123   3.722   4.461  0.1276  0.2083 -0.2810
 6338W        W25192   6.923   0.733  13.012 -0.0892  0.2101  0.0797
 6339W        W25193   7.564  15.220  11.106  0.4463 -0.2158  0.3054
 6340W        W25194   1.935   6.279   3.785 -0.1589 -0.1802  0.1388
 6341W        W25195  18.374   7.035   0.664 -0.0473 -0.0524 -0.1029
 6342W        W25196  10.954   6.166   3.582  0.1032  0.1725 -0.2015
 6343W        W25197   7.551   8.524   2.485 -0.0170  0.2503 -0.0085
 6344W        W25198   0.916  12.321   2.915 -0.1454  0.3853 -0.2545
 6345W        W25199  12.992   7.231  11.981 -0.1721  0.0362 -0.0207
 6346W        W25200  10.514  16.610  15.114 -0.2954 -0.4139  0.1552
 6347W        W25201  10.734   1.159  12.800  0.0009  0.0866  0.1479
 6348W        W25202   4.997  10.893  12.680 -0.0033 -0.2574  0.1634
 6349W        W25203  14.239   3.432   0.102  0.2081  0.1168 -0.3231
 6350W        W25204  11.269  11.985  13.449 -0.2317  0.0365  0.1087
 6351W        W25205  12.227   1.794   3.836  0.0791  0.0953 -0.1163
 6352W        W25206  16.007  17.582   2.234  0.2097 -0.1238 -0.0276
 6353W        W25207   7.420   6.847   5.401  0.2955  0.1846  0.0678
 6354W        W25208   6.704  11.978  13.602  0.0435 -0.1939  0.1737
 6355W        W25209  16.682  12.815  12.184 -0.1742 -0.1966 -0.0486
 6356W        W25210   4.652  15.351  12.519  0.0475 -0.2983  0.2178
 6357W        W25211  14.629   8.764   0.573  0.1099 -0.0117 -0.0881
 6358W        W25212   5.184   0.920  13.258  0.0858  0.0680  0.2341
 6359W        W25213   2.400  12.045  14.803  0.0934 -0.0385  0.0995
 6360W        W25214  16.370   9.168  12.775 -0.1077  0.1100 -0.0807
 6361W        W25215   1.432   4.710   1.378  0.0828 -0.1361  0.0092
 6362W        W25216   6.360  16.153   2.202  0.0690  0.0245 -0.0928
 6363W        W25217   4.904   4.872   0.243 -0.1650  0.2693 -0.2022
 6364W        W25218   3.262  14.733  10.964  0.1261 -0.2769  0.0762
 6365W        W25219  11.146   8.764  15.007 -0.0199 -0.0989 -0.1779
 6366W        W25220   3.811   8.232   0.586  0.0846 -0.1276  0.3002
 6367W        W25221   9.571  16.215  14.137 -0.0240 -0.0890  0.1127
 6368W        W25222   6.864   9.091  12.502 -0.0529 -0.0642  0.0663
 6369W        W25223  13.784  13.442   2.355 -0.1195 -0.0909  0.0605
 6370W        W25224  13.138  15.456  12.396  0.3837 -0.2286 -0.4084
 6371W        W25225  10.154   7.433  12.792  0.2493 -0.1943  0.1057
 6372W        W25226   6.656   3.670  13.283 -0.4813 -0.3322  0.1400
 6373W        W25227   7.881  10.764  12.396  0.1865 -0.0001 -0.1382
 6374W        W25228   9.038   0.623   3.878  0.1748  0.0061  0.0697
 6375W        W25229  17.156   4.605   2.449  0.2152  0.2857 -0.0198
 6376W        W25230  12.008   3.380  11.782 -0.0301  0.0438  0.0576
 6377W        W25231  16.380   5.000  13.782  0.2669  0.1457 -0.0517
 6378W        W25232   9.579  15.419   2.534 -0.0951 -0.0658  0.0192
 6379W        W25233  14.717   5.746  13.255 -0.0656 -0.1916 -0.2660
 6380W        W25234  14.026   6.854   1.333 -0.2137  0.4432 -0.0650
 6381W        W25235  10.107   8.936  11.693 -0.2466 -0.2880  0.1445
 6382W        W25236   1.747  13.763   3.695 -0.0149 -0.0076 -0.2220
 6383W        W25237  15.105  17.249   1.958 -0.1853 -0.1202  0.3455
 6384W        W25238  12.133   2.056   0.418 -0.0863 -0.1246  0.0003
 6385W        W25239   9.916   0.624   0.729 -0.0911 -0.0826 -0.2378
 6386W        W25240  11.226   2.398   0.796  0.2109  0.1499 -0.2735
 6387W        W25241   5.451   6.157   0.100 -0.0999 -0.1216  0.1815
 6388W        W25242   6.465  11.681   3.305 -0.0146  0.1766 -0.1286
 6389W        W25243  13.911  10.614   0.617 -0.1620  0.0553 -0.4586
 6390W        W25244  11.017  16.713   1.600  0.1797  0.1095  0.1978
 6391W        W25245   2.687  10.766  13.271  0.2561  0.0066 -0.0224
 6392W        W25246  14.765   2.363  14.179 -0.2238 -0.4961  0.1207
 6393W        W25247  16.934   5.532   3.761  0.0300 -0.2369 -0.0557
 6394W        W25248  18.005   2.388  11.393 -0.0955  0.1379  0.0968
 6395W        W25249   5.628  17.665   4.167  0.1420 -0.0996 -0.0275
 6396W        W25250  17.782   8.057   1.821  0.0200 -0.1609 -0.0204
 6397W        W25251   1.494  15.670  11.873 -0.2531 -0.1768  0.2376
 6398W        W25252   4.806   1.714   0.337  0.0267 -0.1981 -0.1817
 6399W        W25253   1.823   5.219  12.711 -0.1187 -0.1591 -0.0262
 6400W        W25254  10.644  16.086   2.750  0.2973  0.1334  0.1591
 6401W        W25255  17.973   0.097   1.671 -0.1410  0.3432 -0.2033
 6402W        W25256  12.057  17.278  10.936 -0.0703  0.6019  0.0281
 6403W        W25257   9.270  18.551   1.459 -0.2189 -0.0257  0.1247
 6404W        W25258  12.956   9.070   0.429  0.1739 -0.0253 -0.0339
 6405W        W25259  17.141   9.732  14.295 -0.3468 -0.0265  0.1667
 6406W        W25260  10.463   7.110  15.443  0.3291  0.0550  0.1638
 6407W        W25261   2.016   8.840  13.982 -0.0870 -0.0189  0.0800
 6408W        W25262  10.734   4.284   3.167  0.0297 -0.0954  0.0492
 6409W        W25263   2.724   7.962  14.054 -0.2227  0.1448 -0.0913
 6410W        W25264   6.714  12.327  14.786  0.0936  0.1112  0.1918
 6411W        W25265  15.091   2.971  13.687  0.0059  0.0293  0.4480
 6412W        W25266   5.615  12.562   3.427  0.0947  0.0856 -0.0673
 6413W        W25267   3.003   9.259   0.866 -0.0130  0.1286 -0.1535
 6414W        W25268  14.352  14.511   3.855 -0.0119  0.0369  0.0502
 6415W        W25269   4.338   9.061   4.153  0.3660 -0.0244  0.0943
 6416W        W25270   8.916   7.640  14.673 -0.0970  0.2857  0.1492
 6417W        W25271   5.404  11.569   1.888 -0.0205  0.2655  0.2076
 6418W        W25272  18.328   7.100  13.125 -0.3612  0.0657 -0.1446
 6419W        W25273   1.409  13.590  11.970  0.2631  0.1510  0.1175
 6420W        W25274   7.429   7.660   2.713 -0.1893  0.2426  0.0982
 6421W        W25275  13.369  12.091   3.389  0.1397  0.2974  0.1581
 6422W        W25276  16.805  16.343  14.469 -0.1821  0.3481 -0.2509
 6423W        W25277  11.776  13.210   3.322 -0.0764  0.3258  0.0770
 6424W        W25278  16.042  14.436  13.422 -0.1817 -0.3899  0.3342
 6425W        W25279   6.391   9.753   3.124 -0.4243  0.2942  0.1361
 6426W        W25280   8.851  11.928  15.201  0.2778  0.0665 -0.4440
 6427W        W25281   9.539  12.073  15.397 -0.0220 -0.1113 -0.1390
 6428W        W25282   4.627   5.558   0.699  0.1102 -0.1716  0.0204
 6429W        W25283  12.186  10.410   2.466 -0.0285 -0.0604  0.0280
 6430W        W25284   9.874  17.034  13.968  0.1909 -0.1391 -0.0170
 6431W        W25285  12.184   6.688  14.925  0.3740 -0.1375 -0.1090
 6432W        W25286  15.758  17.784   1.539 -0.4580 -0.1474 -0.1011
 6433W        W25287  10.401   7.624   5.807  0.1210  0.4097  0.1464
 6434W        W25288  12.516   6.372   1.698 -0.2724  0.0952 -0.0520
 6435W        W25289   0.533  11.215   0.205 -0.2624  0.1516 -0.2585
 6436W        W25290  16.298   7.630   0.182 -0.1070 -0.0279 -0.0396
 6437W        W25291  16.109  12.877  14.035 -0.0706  0.0259 -0.0114
 6438W        W25292   1.785   0.376   1.785 -0.1510 -0.0179 -0.0522
 6439W        W25293   2.208   3.096   0.633 -0.2001  0.1042  0.1742
 6440W        W25294   3.868  15.542   0.313  0.1651 -0.2431  0.2162
 6441W        W25295   6.979   0.041  12.665  0.0255  0.3113 -0.1823
 6442W        W25296   6.406  10.868  12.923  0.1572  0.2845 -0.0365
 6443W        W25297  13.157  16.169   2.280 -0.0616  0.0053  0.0070
 6444W        W25298   6.249  10.760   3.832 -0.1436  0.2670 -0.3973
 6445W        W25299  17.508   6.133  13.699 -0.0086  0.1130 -0.0944
 6446W        W25300   3.228  11.143   2.983  0.1181  0.3539  0.2879
 6447W        W25301   2.939  11.363  14.568  0.0479  0.1659  0.4822
 6448W        W25302   4.196   9.322  11.525  0.2198 -0.0170 -0.1867
 6449W        W25303   6.650  12.630  10.690  0.1732 -0.1151  0.0474
 6450W        W25304  12.823  12.809   3.016 -0.1972  0.1956  0.0090
 6451W        W25305   4.352  12.819   1.674  0.0845 -0.2834 -0.0793
 6452W        W25306   5.919   2.044   5.086 -0.1767 -0.1382 -0.1570
 6453W        W25307  13.407   2.889   1.549  0.2301  0.1710 -0.0792
 6454W        W25308   7.890   2.358  14.774  0.0615 -0.0925 -0.0002
 6455W        W25309   1.753   5.395   4.469 -0.0717 -0.0477 -0.0953
 6456W        W25310   7.013   0.330   2.116  0.0167  0.0360 -0.2467
 6457W        W25311  15.312  12.657  12.297  0.0428 -0.2096 -0.1841
 6458W        W25312   7.587   1.307  12.032 -0.0038 -0.0242 -0.2592
 6459W        W25313   4.736  12.673  12.043  0.0990  0.0423 -0.2878
 6460W        W25314  10.739  16.840  14.760  0.0189 -0.0086 -0.1072
 6461W        W25315  13.315   2.916  14.004 -0.0930 -0.1245 -0.3001
 6462W        W25316  10.751   4.737   0.037  0.2540 -0.3520 -0.0118
 6463W        W25317  15.969   2.507   1.553 -0.1648  0.0413  0.0464
 6464W        W25318   4.631   5.859   4.537  0.0001  0.0038  0.0611
 6465W        W25319   1.446  15.112   2.025  0.2694 -0.1500  0.5423
 6466W        W25320   4.377   2.360   2.241 -0.1858 -0.0304  0.0896
 6467W        W25321   8.421   8.562   1.609 -0.0934 -0.1204  0.3067
 6468W        W25322   6.057   0.258  11.771 -0.1947  0.1843  0.0296
 6469W        W25323   7.088  13.875  15.193 -0.2776  0.1103  0.0001
 6470W        W25324  15.822   7.047  13.976  0.1391  0.1014  0.0383
 6471W        W25325   0.211  12.346  13.375  0.3773  0.0477 -0.2521
 6472W        W25326  18.080  10.277  14.751  0.2648  0.0159 -0.0450
 6473W        W25327   9.380   6.288   3.905  0.0751  0.1785 -0.3811
 6474W        W25328  10.746   8.938   2.639  0.0118 -0.0021 -0.0029
 6475W        W25329   3.385   8.186   1.457 -0.1592  0.2174 -0.2175
 6476W        W25330  16.165  16.172   4.594 -0.1216 -0.2123 -0.0710
 6477W        W25331  13.545   6.907   3.919  0.1056  0.0191  0.1572
 6478W        W25332  11.830   1.862  13.276  0.1061 -0.0112 -0.2632
 6479W        W25333   0.322  17.059  14.544  0.2982 -0.0819  0.1308
 6480W        W25334  14.400  17.165  12.213 -0.2696  0.0210  0.0447
 6481W        W25335   5.254  14.746   4.487 -0.0113 -0.2565  0.1568
 6482W        W25336  12.892   1.124   0.969 -0.3802 -0.0217 -0.1602
 6483W        W25337  17.203  12.289  13.670 -0.1246 -0.1518  0.1301
 6484W        W25338   7.960   5.580   3.051  0.2024  0.1392 -0.2811
 6485W        W25339  10.386   9.683  14.203 -0.0189 -0.0739 -0.2305
 6486W        W25340   9.160   4.815  14.651 -0.0709  0.0779  0.1018
 6487W        W25341   5.216  18.149   3.021 -0.1911 -0.0132 -0.1227
 6488W        W25342   7.638   0.070  11.640  0.0704 -0.0558 -0.1672
 6489W        W25343  16.320  17.639  12.303 -0.0946 -0.0180 -0.2889
 6490W        W25344   5.206   8.834   4.483  0.3449 -0.1556  0.0446
 6491W        W25345  11.154  13.213   1.727 -0.0599 -0.2335  0.2694
 6492W        W25346   8.187   3.685   0.197 -0.1330  0.1209 -0.2451
 6493W        W25347   3.709   5.752   2.324 -0.4441 -0.0447  0.4190
 6494W        W25348   7.887   0.100   2.413 -0.1579 -0.0355 -0.3104
 6495W        W25349  12.717  14.151  14.299  0.1527  0.1042 -0.0285
 6496W        W25350   9.507  15.979   2.623 -0.0270 -0.2177 -0.0522
 6497W        W25351   5.280  15.308   2.882 -0.1018  0.2633 -0.1956
 6498W        W25352  10.601   5.615  13.234  0.2355 -0.1832  0.0084
 6499W        W25353  17.886  14.751  10.699  0.2025  0.0943  0.2516
 6500W        W25354   4.274   4.146   2.877  0.1037 -0.1635  0.1733
 6501W        W25355  17.572   9.647  11.656 -0.2172  0.2224 -0.0716
 6502W        W25356   2.273  17.181   3.651  0.1326  0.2162  0.1818
 6503W        W25357   0.834   5.464   2.346 -0.1617 -0.1595 -0.0491
 6504W        W25358   2.287   5.968   1.300 -0.3181  0.1152 -0.1420
 6505W        W25359   6.171   2.920  15.341 -0.0223  0.1589  0.2897
 6506W        W25360   3.047  15.753  14.326  0.0779 -0.2434  0.0196
 6507W        W25361  10.929   7.607   4.627  0.0221 -0.0098  0.0892
 6508W        W25362   4.695   7.147   3.135  0.0588  0.0778 -0.0821
 6509W        W25363  11.158  16.484   1.104  0.0761 -0.2660 -0.0625
 6510W        W25364  11.498   5.672   3.087 -0.0011  0.1305  0.1134
 6511W        W25365   7.815   8.412   4.773  0.0221 -0.2323  0.3293
 6512W        W25366   5.036  16.704  13.187 -0.1383  0.1073 -0.1219
 6513W        W25367   4.383   9.467  14.537 -0.2674  0.2023  0.1262
 6514W        W25368  16.160   2.551  11.983  0.1979 -0.1282 -0.1893
 6515W        W25369   2.185   2.375  14.291  0.1653 -0.2511  0.3278
 6516W        W25370  16.494  15.576  12.343  0.2873 -0.2933  0.5173
 6517W        W25371   3.197   0.540  13.628 -0.1625  0.1183 -0.0164
 6518W        W25372  10.710   1.515   2.557  0.0116  0.3747 -0.0692
 6519W        W25373  14.788   5.467   2.800  0.0699  0.3613  0.1058
 6520W        W25374   5.220   3.959   0.395 -0.1102  0.0571 -0.0380
 6521W        W25375   3.118   4.058   0.277 -0.1310 -0.0280  0.0154
 6522W        W25376   2.053   1.200   1.942 -0.2176  0.0508 -0.2166
 6523W        W25377  12.601   7.170  13.903  0.0135  0.0692 -0.1402
 6524W        W25378   2.262  14.390   3.470 -0.1916 -0.1291  0.0227
 6525W        W25379   9.883  10.959   3.502  0.0548  0.0375 -0.1419
 6526W        W25380   1.996   3.641   2.122 -0.2011 -0.0743  0.0441
 6527W        W25381   4.734   7.392  15.190 -0.2972 -0.1674 -0.0852
 6528W        W25382   3.325  15.775  13.472 -0.1032  0.2677  0.0938
 6529W        W25383  11.783   4.386  11.060 -0.0104 -0.0574 -0.0046
 6530W        W25384  13.455  12.466   3.860  0.2398 -0.0377  0.0481
 6531W        W25385   8.172  14.265   5.279 -0.3536  0.2714  0.1334
 6532W        W25386  14.144  13.266  12.020 -0.2196  0.0000 -0.1321
 6533W        W25387   4.179   8.288  12.526  0.0161  0.0328  0.1881
 6534W        W25388   6.500  17.093   4.269  0.1527  0.2466  0.0507
 6535W        W25389   6.194   0.787   3.912 -0.0064  0.3567  0.0895
 6536W        W25390   7.864  15.238  12.724  0.1270 -0.1933 -0.2634
 6537W        W25391  12.639   7.575   4.626  0.0460  0.1765 -0.4124
 6538W        W25392  10.043  17.863   3.863  0.0911 -0.0487  0.2800
 6539W        W25393  15.280  10.855  14.553 -0.0425  0.1477  0.4050
 6540W        W25394   5.662   5.523  14.196 -0.0451  0.3116  0.0913
 6541W        W25395   4.405  14.327  14.878 -0.0705 -0.3148 -0.0253
 6542W        W25396   6.233   1.448   0.822 -0.0475 -0.0367  0.0638
 6543W        W25397  13.914   7.175  11.551 -0.1390 -0.1271 -0.1564
 6544W        W25398   7.195  12.576   3.742 -0.1240 -0.1482 -0.2905
 6545W        W25399  13.175   5.999   3.937  0.1002  0.0299  0.0606
 6546W        W25400   1.624  11.874   0.041 -0.1778 -0.0887  0.0759
 6547W        W25401   5.460  14.686   1.761 -0.1480 -0.0299 -0.1329
 6548W        W25402  15.743   8.767   4.027 -0.0753 -0.3550 -0.2359
 6549W        W25403  15.103  12.995  13.473 -0.0136  0.2058 -0.0448
 6550W        W25404   1.599  12.082   0.550  0.0434 -0.0954 -0.3443
 6551W        W25405   7.170  12.053   4.980  0.1265  0.2822  0.2116
 6552W        W25406   1.034   4.191  11.940  0.1508 -0.1322 -0.0955
 6553W        W25407   9.698  10.509   0.315 -0.0887 -0.3504  0.0604
 6554W        W25408   4.770   8.198  13.182  0.0670 -0.0916 -0.0878
 6555W        W25409   9.683   4.610   5.334  0.1475  0.2997  0.0897
 6556W        W25410  11.071   9.093   3.041  0.3720 -0.3082  0.0256
 6557W        W25411   8.036   2.361  13.728 -0.0933 -0.1126  0.0289
 6558W        W25412  11.230   2.445   2.440 -0.2212 -0.0288 -0.0672
 6559W        W25413   3.228  16.353  14.614 -0.1677 -0.0801 -0.0496
 6560W        W25414   6.616  17.540   5.674  0.1314  0.0287 -0.2097
 6561W        W25415   7.426   3.365   1.928  0.0545 -0.0697 -0.0093
 6562W        W25416  13.816  14.865  11.523  0.4862  0.3759  0.0391
 6563W        W25417  17.005   8.633  15.206 -0.0943 -0.0965 -0.0703
 6564W        W25418   6.536   2.563   2.944  0.0705 -0.1078  0.4620
 6565W        W25419  16.375  11.902  12.223 -0.0783  0.2233  0.1376
 6566W        W25420  10.105   0.548  11.043  0.2237  0.3009 -0.0060
 6567W        W25421  13.360  11.555  11.673 -0.2954 -0.1976 -0.0043
 6568W        W25422   4.723  12.131   1.477  0.1046  0.3081  0.1113
 6569W        W25423   9.337  10.117  14.908 -0.1589  0.3255  0.0980
 6570W        W25424  17.689   9.136   2.178 -0.1451  0.0102 -0.1470
 6571W        W25425  16.331  11.352  15.461 -0.0166  0.0040  0.1064
 6572W        W25426   4.730   3.306   4.345  0.0256 -0.0874 -0.2495
 6573W        W25427  13.418   1.223  14.356 -0.0466  0.0015  0.1561
 6574W        W25428  17.478   2.768   0.722  0.3361  0.1078 -0.0341
 6575W        W25429  14.377   8.390   0.078  0.0344  0.0442 -0.0382
 6576W        W25430  16.704  13.615  11.662  0.1722  0.1215  0.0997
 6577W        W25431   9.957  14.149  11.635  0.2041  0.0440  0.0127
 6578W        W25432  10.281   5.170  13.403  0.0581  0.2152 -0.0869
 6579W        W25433   0.718  12.357   1.989 -0.2135 -0.0118 -0.2512
 6580W        W25434  18.262  17.466  13.944 -0.4539 -0.1098  0.1227
 6581W        W25435   8.396   0.347  15.446  0.1649 -0.1199  0.1092
 6582W        W25436  16.654  16.422   0.920  0.0864 -0.1117  0.1491
 6583W        W25437  13.033   4.634  14.284 -0.2359  0.2187 -0.2062
 6584W        W25438  13.423   6.515  11.796 -0.1694  0.0628 -0.1072
 6585W        W25439  11.285   4.409  11.030  0.1177 -0.1746 -0.1668
 6586W        W25440  11.550  10.061   5.491 -0.0657 -0.1938  0.2632
 6587W        W25441   4.618   8.282   3.904  0.3302 -0.1106  0.1555
 6588W        W25442  10.793   6.582  12.607  0.0371  0.3598 -0.0564
 6589W        W25443   3.629   4.079   0.392 -0.0840 -0.2335  0.2461
 6590W        W25444   3.270   4.019  11.339  0.0651 -0.4123  0.2008
 6591W        W25445  18.222  13.469   2.820  0.2592 -0.1085  0.1875
 6592W        W25446   2.425   1.795  13.502 -0.4677 -0.0478  0.0695
 6593W        W25447   7.459  17.889  11.522 -0.0593 -0.0814  0.0842
 6594W        W25448   4.592   8.280  14.667 -0.2824  0.0063 -0.1456
 6595W        W25449  15.982  16.404   3.681 -0.3126 -0.1531  0.2673
 6596W        W25450   9.714   9.669   2.671  0.0890  0.0092 -0.1044
 6597W        W25451   8.120  14.607   3.975 -0.1748  0.0687 -0.1590
 6598W        W25452  14.048   3.807   2.611  0.0078  0.0327  0.0627
 6599W        W25453   3.414  18.503   3.611 -0.3877  0.2962  0.2997
 6600W        W25454   5.669   7.735  11.739 -0.2121  0.0198  0.1870
 6601W        W25455   3.073  16.155   3.665 -0.1794 -0.0932  0.0643
 6602W        W25456   4.203  15.618  13.715 -0.1357  0.1237 -0.1683
 6603W        W25457  12.927   8.372  15.247  0.2207  0.1041 -0.2494
 6604W        W25458  11.160  10.782  12.375 -0.1701  0.0923  0.0278
 6605W        W25459   4.888   9.945   2.239  0.0953 -0.2171 -0.1489
 6606W        W25460  17.919   9.886   2.265  0.1565 -0.0916 -0.0678
 6607W        W25461   1.524  15.333  13.443  0.1492  0.3941 -0.1135
 6608W        W25462  12.037  14.751   3.818  0.4930  0.0857  0.0985
 6609W        W25463  11.312   7.292  14.910 -0.0553  0.2137  0.2777
 6610W        W25464   8.075   1.984   2.312  0.1098 -0.2023  0.1238
 6611W        W25465  17.039   2.435  11.394 -0.1921 -0.0974  0.0336
 6612W        W25466   2.415   7.612  11.845  0.0757 -0.1768 -0.5002
 6613W        W25467  13.503  14.245   3.932  0.1603 -0.0026 -0.1925
 6614W        W25468  15.534  16.300  11.845  0.1633  0.0080  0.1845
 6615W        W25469   3.544  14.744   0.170  0.1027  0.1539  0.0642
 6616W        W25470  13.991  11.574  11.550  0.2671 -0.1951 -0.3472
 6617W        W25471   4.692   7.817  14.358  0.2159  0.1092 -0.1218
 6618W        W25472   5.729   2.464  13.334  0.2397 -0.2350  0.4784
 6619W        W25473  10.678   3.405   3.649  0.0309  0.2038 -0.1280
 6620W        W25474  15.696   3.883  14.266  0.0639  0.1517 -0.1713
 6621W        W25475   4.049   5.208  15.160  0.3694  0.1321 -0.2466
 6622W        W25476  10.706   9.069   3.994  0.0417 -0.0145  0.1370
 6623W        W25477   7.565   3.678  11.383 -0.2926  0.3417 -0.0216
 6624W        W25478   9.781   6.035   4.107  0.2066 -0.0009  0.2200
 6625W        W25479   0.478   1.058   2.082 -0.0051 -0.3380  0.0359
 6626W        W25480  13.937  14.945  12.456  0.0495  0.0043 -0.0435
 6627W        W25481  11.573   4.486  11.509  0.1415 -0.1012  0.1195
 6628W        W25482  13.446   9.124  11.463  0.0075  0.2233  0.0818
 6629W        W25483   3.937   1.062   3.485  0.1141 -0.4157 -0.2273
 6630W        W25484  15.408   9.463  14.287  0.0893  0.3608  0.0351
 6631W        W25485   5.523  15.717  14.565  0.2803  0.3089  0.2844
 6632W        W25486   1.829   9.033  11.404  0.0733 -0.1837  0.1416
 6633W        W25487  11.998  18.104  15.281 -0.1478 -0.0286  0.1498
 6634W        W25488   5.963  16.178  11.522 -0.1581 -0.1011 -0.2360
 6635W        W25489   6.077   9.547   2.574 -0.0059  0.1719 -0.0998
 6636W        W25490  17.334  12.979   2.767 -0.1790  0.0141  0.1063
 6637W        W25491   8.042  12.419   3.239 -0.0091 -0.1853 -0.1529
 6638W        W25492   4.055  12.483  11.446  0.1310  0.0646 -0.1456
 6639W        W25493  13.133   6.568   2.962 -0.0447 -0.1586  0.0574
 6640W        W25494  15.348  11.394  11.741 -0.0908 -0.1826  0.3816
 6641W        W25495   3.290  13.909  14.736  0.0107 -0.0797 -0.0976
 6642W        W25496   6.336  10.192   1.318  0.1651 -0.0915 -0.0426
 6643W        W25497   0.147   9.367  12.196  0.1669  0.0437  0.2084
 6644W        W25498  16.818  18.456   2.978 -0.0725  0.1636 -0.0181
 6645W        W25499  11.124   7.767  14.785  0.2732  0.3021 -0.0681
 6646W        W25500  10.336   7.952  10.465  0.4037 -0.0535 -0.0068
 6647W        W25501  14.439  10.997  14.665 -0.1386  0.0042 -0.1475
 6648W        W25502  12.748   5.714  13.602 -0.2010  0.3726 -0.1126
 6649W        W25503   2.885   0.001   1.792 -0.3111 -0.0052 -0.1662
 6650W        W25504  16.045   8.531   3.110 -0.2249 -0.2726 -0.0895
 6651W        W25505  13.635   2.150   3.633  0.2716 -0.1299 -0.1352
 6652W        W25506   1.125   3.625  10.626 -0.1725 -0.2845  0.0468
 6653W        W25507  14.233   2.503   4.019  0.0599 -0.0374  0.1406
 6654W        W25508   4.896  12.195  11.955  0.0399 -0.3138  0.2346
 6655W        W25509   3.026  16.101   1.593 -0.1194 -0.0045  0.3678
 6656W        W25510  11.907   1.859   1.465 -0.1030 -0.2178  0.1761
 6657W        W25511  10.509  13.934  11.953  0.1197 -0.3550 -0.2251
 6658W        W25512   6.799  15.763  14.078 -0.2621  0.2145 -0.0008
 6659W        W25513  11.419   5.241  12.718 -0.0472 -0.1619  0.2561
 6660W        W25514  15.464  12.551   0.370  0.1769  0.1753 -0.1621
 6661W        W25515   2.828  17.337  13.712 -0.0228 -0.0548  0.0190
 6662W        W25516   9.519   6.644   3.501  0.2681 -0.1088 -0.0877
 6663W        W25517  10.746   7.971   2.397  0.1029  0.1784 -0.0243
 6664W        W25518  13.274  17.733  15.093  0.0779  0.1083 -0.1798
 6665W        W25519   5.141  13.471   1.866 -0.0264 -0.1375  0.2793
 6666W        W25520   5.296   0.967  14.329  0.2517 -0.1238 -0.2562
 6667W        W25521   3.641  11.294  13.637  0.0754  0.3464 -0.0735
 6668W        W25522   2.168   2.810   2.682 -0.1646 -0.1402 -0.1942
 6669W        W25523  10.058  17.170   1.019  0.1965  0.0021  0.1928
 6670W        W25524  10.419  16.395   0.588  0.1902  0.1552  0.2954
 6671W        W25525  14.237  14.884   4.330  0.0786  0.1253 -0.1878
 6672W        W25526  10.886  12.020  14.254 -0.4251  0.0120 -0.2657
 6673W        W25527   3.167   7.590   3.059 -0.0222 -0.0510  0.1059
 6674W        W25528  13.774  10.340   4.327 -0.1395  0.1038 -0.1222
 6675W        W25529   0.604  13.088  14.098  0.2142 -0.1368  0.1064
 6676W        W25530   2.429  16.152  12.995  0.4439 -0.0910  0.0042
 6677W        W25531   8.281  14.477  11.370  0.1663 -0.3747 -0.0002
 6678W        W25532   2.514  13.179   3.755  0.1724 -0.1358 -0.1748
 6679W        W25533  10.632   0.290   1.532 -0.0662  0.1830 -0.0610
 6680W        W25534  16.373  13.039   2.384  0.0493 -0.1851 -0.0555
 6681W        W25535   0.569  16.246  12.421 -0.1232  0.0870  0.2958
 6682W        W25536   8.052   3.832  11.673  0.0837  0.0068 -0.0492
 6683W        W25537   3.155  18.005   2.825  0.0470  0.1994 -0.0762
 6684W        W25538   6.325  13.898   1.427  0.1156 -0.0760  0.1146
 6685W        W25539   0.351   8.083   1.822  0.0214 -0.0435  0.1290
 6686W        W25540  11.973   9.861  11.757  0.1469 -0.3931 -0.0379
 6687W        W25541   5.527   3.667  12.742  0.1912 -0.0940 -0.1427
 6688W        W25542   3.852  16.596  12.744 -0.0093 -0.4665  0.3117
 6689W        W25543  17.918  15.913  13.022  0.1876  0.1675 -0.2798
 6690W        W25544  10.707  18.085  12.718  0.1146  0.2506  0.1641
 6691W        W25545   0.322   0.195  11.228 -0.3603 -0.1470  0.3754
 6692W        W25546  17.390   0.794  14.933  0.0333  0.0065  0.0099
 6693W        W25547   8.810  15.714  12.195  0.0347 -0.0304 -0.0498
 6694W        W25548   7.221   0.951   2.021  0.1882  0.1994 -0.0518
 6695W        W25549  10.393   2.750  13.375 -0.2152 -0.0906  0.2856
 6696W        W25550   0.848   3.828   3.763  0.1363 -0.1036  0.0569
 6697W        W25551   7.485   7.809   1.366  0.1500  0.1724 -0.0758
 6698W        W25552  15.639  11.033  12.424 -0.0102 -0.1516  0.2336
 6699W        W25553  13.963   9.334  10.862 -0.0275  0.1103  0.1254
 6700W        W25554   9.248  12.481  15.336  0.0982 -0.1115  0.0314
 6701W        W25555  11.824   7.791   3.355 -0.0664  0.2968 -0.0808
 6702W        W25556  14.608  17.152  15.210 -0.0101 -0.0469 -0.1970
 6703W        W25557  13.690   4.404  14.971  0.2535 -0.0027  0.2597
 6704W        W25558   3.586   8.684  11.267  0.1205  0.1835  0.2452
 6705W        W25559  13.864  17.919  12.182 -0.0874  0.1170 -0.1787
 6706W        W25560  11.953   1.908  12.828  0.0694  0.0249  0.1332
 6707W        W25561   6.801   2.296  14.462 -0.4178 -0.1399  0.1624
 6708W        W25562   4.539  13.072   2.804 -0.2516  0.2522 -0.1179
 6709W        W25563  14.147  13.681   1.102 -0.1146  0.1871 -0.0253
 6710W        W25564  10.282  18.194   5.652 -0.1572 -0.0528  0.4489
 6711W        W25565   4.228  13.790  14.928 -0.2735 -0.2295  0.1059
 6712W        W25566  13.821  17.170  13.839  0.0901  0.1292 -0.0398
 6713W        W25567   3.057   1.690   3.800 -0.0785 -0.1151 -0.0063
 6714W        W25568   2.870   2.919  10.143  0.0829  0.0394 -0.2265
 6715W        W25569   5.677  11.333   3.872 -0.1633  0.1329  0.2031
 6716W        W25570   2.586  14.497   0.063 -0.5092 -0.0224 -0.2637
 6717W        W25571   7.582  18.129   0.483  0.3093 -0.0687 -0.0339
 6718W        W25572  11.142   7.043   0.387  0.2371 -0.3563  0.1674
 6719W        W25573   3.259  10.047   1.578  0.1921 -0.2809 -0.2671
 6720W        W25574   7.435  17.817   2.979  0.2055  0.3884 -0.0673
 6721W        W25575  17.212   8.092   4.713 -0.0182 -0.0929  0.0639
 6722W        W25576  17.331   1.363  12.846  0.0137  0.0548 -0.1226
 6723W        W25577   2.414  11.412   2.973 -0.0996  0.0154 -0.1449
 6724W        W25578  16.114   9.899   3.752  0.0111 -0.0016  0.0912
 6725W        W25579  12.535   1.722  13.982  0.0019  0.2153  0.2957
 6726W        W25580   1.123   8.758  10.845 -0.0919 -0.2708  0.0490
 6727W        W25581   1.739   0.851   1.919  0.1086 -0.2320 -0.1179
 6728W        W25582  10.296   8.598   3.177  0.0353  0.2954 -0.0170
 6729W        W25583   9.910  16.707   3.930 -0.1856  0.0264 -0.0207
 6730W        W25584   6.876   5.249   2.370 -0.2832 -0.4298  0.1728
 6731W        W25585   0.468  14.660  10.940 -0.0230  0.1101  0.0290
 6732W        W25586   1.122   4.109  10.964 -0.0509  0.0745 -0.1209
 6733W        W25587   9.972   5.039  15.045  0.2677  0.2487  0.0410
 6734W        W25588   4.949   3.511   3.891 -0.1398  0.2065  0.0285
 6735W        W25589  17.127  14.541   2.896 -0.1183 -0.0215  0.0077
 6736W        W25590  14.517   4.874  11.095  0.0387  0.0637 -0.1267
 6737W        W25591  16.643   5.317   0.968  0.0779 -0.3224 -0.1996
 6738W        W25592   1.292   6.716   4.225  0.0985  0.1092  0.3195
 6739W        W25593  18.005  17.065  12.467 -0.0614  0.1332  0.2722
 6740W        W25594   1.706  10.354  15.223 -0.1260 -0.1736 -0.1243
 6741W        W25595   8.968  18.226   0.263  0.1288  0.3805 -0.1310
 6742W        W25596  11.558  14.830  11.955 -0.0751 -0.3292  0.0735
 6743W        W25597   5.467  10.843  15.038  0.1710  0.2350 -0.1169
 6744W        W25598  12.340  16.734   0.671  0.0310  0.0021  0.0105
 6745W        W25599   0.178  18.200   1.229  0.0030 -0.2143  0.2523
 6746W        W25600  14.206   8.794  13.747 -0.1353 -0.1174 -0.0738
 6747W        W25601  18.082  13.663  13.795  0.1467  0.1968 -0.5323
 6748W        W25602   5.425  15.541  11.641  0.1408  0.0640 -0.1002
 6749W        W25603  15.842   9.512  11.444 -0.0882  0.1202 -0.0409
 6750W        W25604   5.100  13.947  12.452  0.2748  0.0758 -0.0668
 6751W        W25605   0.431   5.196  15.395 -0.0303 -0.0809 -0.1800
 6752W        W25606  16.312   0.590   1.691  0.2154  0.0573  0.0039
 6753W        W25607   5.586  11.801  14.263  0.1852  0.1286  0.4126
 6754W        W25608  17.411  14.856  14.235  0.2424 -0.3366 -0.0232
 6755W        W25609   5.065  13.755  12.900  0.2325  0.1926  0.1427
 6756W        W25610  13.903  10.125   3.780 -0.2433  0.0526  0.2717
 6757W        W25611   8.933   0.451  14.198 -0.2729 -0.3743 -0.0200
 6758W        W25612  12.285   5.510  14.514 -0.1462  0.1719 -0.0026
 6759W        W25613  16.309   1.900  14.419  0.2866  0.2837  0.1928
 6760W        W25614   2.282   2.598  13.572  0.3123  0.1123  0.1186
 6761W        W25615  16.014  12.983  12.629 -0.1998  0.3589  0.4387
 6762W        W25616  16.647   8.566   3.807 -0.5224 -0.2606  0.0648
 6763W        W25617   9.447  12.131  12.381 -0.0111  0.2170 -0.1972
 6764W        W25618   4.803   0.501   2.790  0.1134 -0.1897  0.1441
 6765W        W25619   8.307   9.402   4.333 -0.0444  0.0671  0.0909
 6766W        W25620   0.054   2.778   1.748 -0.2214  0.0332 -0.1185
 6767W        W25621  14.716  14.016  15.220 -0.0523 -0.1018 -0.0198
 6768W        W25622  12.761   5.105  11.162  0.0706  0.1651 -0.2469
 6769W        W25623   8.628  14.078   3.102  0.2799  0.0455  0.0701
 6770W        W25624   5.870   6.902  15.141  0.3132 -0.0638  0.0071
 6771W        W25625   5.294   7.492  14.178  0.1041 -0.0061  0.1952
 6772W        W25626  16.309  17.210  14.624 -0.1427 -0.2272 -0.0108
 6773W        W25627  11.943  10.449  12.013 -0.3282 -0.0507  0.1681
 6774W        W25628  16.673   6.793   0.388  0.1186  0.0598 -0.2731
 6775W        W25629   0.192   3.903  14.137 -0.1389 -0.1539  0.1117
 6776W        W25630  18.344   2.038   3.929 -0.0075 -0.0062 -0.1411
 6777W        W25631   3.261   7.163   1.362 -0.3546  0.0897 -0.4156
 6778W        W25632  16.928   0.516  14.502 -0.0735 -0.1533 -0.2525
 6779W        W25633   3.016   5.927  14.647 -0.2206 -0.1665 -0.2610
 6780W        W25634   7.651   3.748  14.181 -0.2367 -0.1769 -0.0963
 6781W        W25635  14.854  17.841  11.824 -0.1484 -0.3557  0.0010
 6782W        W25636   9.629   6.925  13.344  0.2384  0.2498  0.3442
 6783W        W25637   6.256  17.470  13.577  0.1409  0.1266  0.0109
 6784W        W25638  10.773   9.747  12.249  0.2651  0.1232  0.5130
 6785W        W25639  17.370   4.458  12.293  0.1351 -0.0623  0.0697
 6786W        W25640   5.522   5.268  12.069 -0.2324  0.0884  0.2399
 6787W        W25641  15.210   5.642   1.031 -0.0924 -0.2886  0.2127
 6788W        W25642   8.871   8.372  15.330 -0.0767  0.0910 -0.1315
 6789W        W25643   8.439   4.413  15.056 -0.5106 -0.3674 -0.0726
 6790W        W25644   2.283   4.984   3.631  0.2688 -0.0484  0.4314
 6791W        W25645   5.590   3.054   4.452  0.0614 -0.2949 -0.3401
 6792W        W25646  13.034   7.062  14.316 -0.4508 -0.0517 -0.1493
 6793W        W25647  17.305  16.627  13.788  0.3492  0.1853  0.2452
 6794W        W25648  18.322  12.253   3.545  0.0249 -0.0492 -0.2788
 6795W        W25649  16.798  15.292   0.131  0.1028 -0.3434  0.2739
 6796W        W25650   8.502  16.654   3.134 -0.1918  0.1023 -0.1411
 6797W        W25651   9.663   9.482   0.459 -0.0598  0.0022  0.0219
 6798W        W25652   7.529   2.024   0.620  0.0108  0.0316  0.0753
 6799W        W25653  17.000  13.732   4.422  0.0111  0.1806  0.0657
 6800W        W25654   8.067   2.621   0.150 -0.0721 -0.0197 -0.1541
 6801W        W25655   7.812  14.384  12.216 -0.1269  0.0457  0.2232
 6802W        W25656  13.006   5.254  12.744 -0.0619 -0.0139 -0.0229
 6803W        W25657  13.327   4.930   3.305  0.3239 -0.0118  0.0634
 6804W        W25658  15.144  17.945  14.971 -0.0626  0.0358  0.0031
 6805W        W25659   1.876  16.771  13.046  0.0980 -0.1255  0.1176
 6806W        W25660   2.848  10.239  13.197 -0.1930  0.2826 -0.1367
 6807W        W25661  11.484   9.995   2.182 -0.0701  0.0050 -0.1087
 6808W        W25662   0.864   7.045  14.174 -0.3669 -0.1933 -0.0481
 6809W        W25663  17.002   8.053  14.503  0.1825  0.0675 -0.0469
 6810W        W25664  13.165  11.068  11.527  0.0048 -0.2444 -0.2607
 6811W        W25665  16.205  17.169   2.905  0.0453 -0.0100  0.1234
 6812W        W25666  15.236   0.858  13.996  0.0062  0.2087  0.1412
 6813W        W25667   6.563   8.629   1.091 -0.0858 -0.0806 -0.2070
 6814W        W25668   0.252   6.444   1.775  0.2094 -0.2226  0.1800
 6815W        W25669   8.919  12.940   0.542  0.1413  0.1231  0.1257
 6816W        W25670   8.999   1.209   1.281  0.0194 -0.0721  0.0855
 6817W        W25671   1.588   0.732  11.562 -0.2183 -0.1168  0.1937
 6818W        W25672   3.619  12.198  10.120  0.0639 -0.2734  0.0326
 6819W        W25673  17.054   8.763  13.131 -0.2981  0.1720  0.0984
 6820W        W25674   4.259   7.018  13.598 -0.0809  0.1379  0.1450
 6821W        W25675  10.485  15.464   1.957 -0.2702 -0.0067  0.0794
 6822W        W25676   7.890  17.066   3.231  0.1798  0.0096 -0.0505
 6823W        W25677   5.799  12.691  11.471  0.0537 -0.0149 -0.0471
 6824W        W25678  17.916  15.644   0.337 -0.0810  0.5563 -0.0118
 6825W        W25679   5.950  16.806  14.325 -0.1652  0.3052 -0.0144
 6826W        W25680   3.077   5.407  14.785  0.2923 -0.0965  0.4172
 6827W        W25681  11.817  15.422   5.224  0.0592 -0.1155  0.0582
 6828W        W25682   8.735  17.252  11.916  0.0978 -0.2392 -0.0014
 6829W        W25683  11.325   8.660   1.979  0.0196 -0.2127 -0.0592
 6830W        W25684   5.349   5.044   0.169 -0.2651 -0.3468  0.0547
 6831W        W25685  11.388   2.090  11.490 -0.0745 -0.1123  0.2537
 6832W        W25686  12.374  13.154  11.736 -0.2200 -0.2137 -0.2244
 6833W        W25687   9.264   3.239   0.412 -0.0237  0.2077  0.2325
 6834W        W25688  15.895   5.436   4.696  0.1461  0.0432 -0.1909
 6835W        W25689   2.186  13.195  12.904  0.1380 -0.2114 -0.0303
 6836W        W25690   4.088   9.668   1.540  0.0138  0.2733  0.3322
 6837W        W25691   4.299   3.450   0.378  0.0325 -0.1062  0.1385
 6838W        W25692   4.146  16.363   4.423 -0.4292 -0.1117 -0.1698
 6839W        W25693   0.246   3.903  15.245 -0.0782  0.2147 -0.1740
 6840W        W25694  15.410  14.454  12.039  0.0285  0.2250 -0.2274
 6841W        W25695  11.070   3.831   4.683  0.0241 -0.0044 -0.1221
 6842W        W25696  14.113  13.132  10.881 -0.1142 -0.2170 -0.1439
 6843W        W25697   8.680  17.006   2.367 -0.0133 -0.0970 -0.1872
 6844W        W25698  12.781   1.749   1.556  0.1411 -0.3047 -0.2166
 6845W        W25699  15.410   2.329   0.770 -0.3932  0.1639 -0.1368
 6846W        W25700   3.704   8.482  14.143  0.0471  0.0201  0.0772
 6847W        W25701  16.115  15.234   1.608 -0.0630 -0.1201  0.0431
 6848W        W25702  17.361   8.318  13.444 -0.0649  0.3101 -0.1172
 6849W        W25703   1.843   5.570  13.506 -0.2078 -0.0027  0.0342
 6850W        W25704   9.151  17.694  11.409  0.2371 -0.2032 -0.1728
 6851W        W25705   9.870   7.301  12.390 -0.1938  0.2525  0.1808
 6852W        W25706   5.493   1.182  12.983 -0.1429  0.1983  0.1302
 6853W        W25707   7.008   5.880  14.349  0.0034 -0.1769 -0.0285
 6854W        W25708   8.011  11.857   3.320  0.2191  0.0176 -0.0702
 6855W        W25709  12.095   0.076  13.819 -0.2759  0.1630 -0.1038
 6856W        W25710   3.304  11.021  13.955 -0.1157 -0.0275 -0.2433
 6857W        W25711  11.241   7.938   2.645  0.0099 -0.1032 -0.2788
 6858W        W25712   0.726  12.159  13.843  0.2284  0.0077 -0.3041
 6859W        W25713  13.839   1.828   1.394  0.1419 -0.0253 -0.0759
 6860W        W25714   0.640   9.217  13.272 -0.2140  0.2390  0.2336
 6861W        W25715   1.573   0.057   0.710 -0.1089 -0.2145  0.1032
 6862W        W25716  10.279   1.751   1.304 -0.1363 -0.0878 -0.2390
 6863W        W25717  16.550  10.311   4.493 -0.2148 -0.0847  0.1114
 6864W        W25718  10.527  14.974  14.549  0.2889 -0.0680  0.3862
 6865W        W25719  16.718  14.536  13.938 -0.1935 -0.1426 -0.1286
 6866W        W25720   7.065  17.726  12.471  0.1467 -0.1440 -0.1477
 6867W        W25721   2.873  18.032   1.871 -0.1425 -0.1797  0.0399
 6868W        W25722   2.379  11.045  14.992  0.0660 -0.1242 -0.0056
 6869W        W25723   5.902  13.450  12.063 -0.1271  0.3515 -0.2447
 6870W        W25724   1.909   3.340  14.134 -0.0210 -0.4273  0.1734
 6871W        W25725   5.089  13.593   0.865 -0.0643 -0.0354 -0.0370
 6872W        W25726  18.312  11.662  13.627 -0.2070  0.0042  0.2839
 6873W        W25727  13.312  10.330  13.365 -0.1029  0.2117 -0.1834
 6874W        W25728   0.268  18.008   2.723 -0.2010 -0.0629  0.0659
 6875W        W25729  18.082  14.161  13.792  0.1507 -0.1445 -0.1832
 6876W        W25730  15.005  13.231   3.380 -0.3289  0.1839  0.2283
 6877W        W25731   4.499   2.392  11.010  0.0945  0.2803 -0.1942
 6878W        W25732  14.228  17.707   3.187  0.1713 -0.0562  0.2342
 6879W        W25733  16.677   5.652   9.728  0.0039 -0.3593 -0.0519
 6880W        W25734  10.010  12.567  11.736 -0.1339  0.2303 -0.0283
 6881W        W25735   8.831  16.724   0.041  0.0163  0.1757 -0.1128
 6882W        W25736  10.058  14.508   4.743  0.0389 -0.0833 -0.2267
 6883W        W25737  14.198   2.024   4.727 -0.0834 -0.1417  0.1021
 6884W        W25738  10.705   8.425  14.713  0.2260  0.1905 -0.3977
 6885W        W25739   3.843   6.423   1.835  0.2684  0.0706 -0.1669
 6886W        W25740   1.876   7.428  11.118  0.1625  0.0649  0.0758
 6887W        W25741   5.474   3.605   3.858  0.0627  0.3838 -0.2604
 6888W        W25742   1.304   9.781   3.791  0.1511 -0.1040  0.1354
 6889W        W25743   2.328   9.511   0.161 -0.0486 -0.0705  0.2276
 6890W        W25744  12.944   0.188   2.406 -0.0464 -0.0012  0.1321
 6891W        W25745   9.713  17.729   1.856  0.1011 -0.0158 -0.1179
 6892W        W25746  14.380   1.162   2.126 -0.0887 -0.0382  0.0467
 6893W        W25747   7.058  10.320   3.439 -0.0266 -0.0645 -0.0977
 6894W        W25748   9.325   4.292  11.443  0.0308  0.0868 -0.0578
 6895W        W25749   6.524   7.209  14.366 -0.1973 -0.2428  0.2286
 6896W        W25750  17.132   7.499  13.827  0.1871 -0.1189  0.0581
 6897W        W25751   0.385  12.963  11.957  0.2131  0.4719  0.0128
 6898W        W25752  17.165  13.760  11.479 -0.0272 -0.0139 -0.1364
 6899W        W25753  16.656   4.912   0.676 -0.2091 -0.0392 -0.2159
 6900W        W25754  10.441   3.243  13.285 -0.1087 -0.0907 -0.1397
 6901W        W25755   6.346  16.636   0.729 -0.3322 -0.1152 -0.0720
 6902W        W25756   3.377  18.129  15.257 -0.2181  0.1370 -0.2198
 6903W        W25757   1.182   0.514   1.302  0.1977  0.2356 -0.2900
 6904W        W25758  12.754   3.602  13.807 -0.3510 -0.0366 -0.0765
 6905W        W25759   0.745  17.268  15.405 -0.1355 -0.0255  0.1690
 6906W        W25760   8.467   0.733  14.039 -0.1593 -0.1101 -0.3960
 6907W        W25761   6.631   3.996  12.106  0.0915 -0.0914 -0.0292
 6908W        W25762  15.231  17.982   2.381  0.0519 -0.4235  0.2111
 6909W        W25763  11.115  14.466  13.774  0.1232 -0.0272 -0.0583
 6910W        W25764   8.500   5.039  13.459  0.1094 -0.0063  0.1422
 6911W        W25765  16.758  12.739   2.480 -0.2221  0.1662 -0.0869
 6912W        W25766  13.214  17.771   1.087 -0.1285  0.1453  0.0830
 6913W        W25767   9.259   0.178   2.557  0.2257  0.0236 -0.0455
 6914W        W25768   7.036   2.233  13.690 -0.0580 -0.0433  0.0992
 6915W        W25769   6.380   2.494   3.790  0.0639 -0.2729  0.0771
 6916W        W25770   2.660  15.578   1.303  0.1825  0.0866  0.1914
 6917W        W25771   8.900  16.767   2.823 -0.0024 -0.3324  0.0436
 6918W        W25772  11.709   3.642  14.496  0.2058 -0.1519  0.0940
 6919W        W25773  17.166   9.553  13.794 -0.2469  0.0774 -0.1531
 6920W        W25774  17.476  13.757  12.656 -0.3965 -0.2925 -0.0080
 6921W        W25775   0.656   4.684   1.333  0.0728  0.1946 -0.2102
 6922W        W25776  16.509   9.561   3.965  0.0516 -0.0588  0.2541
 6923W        W25777   7.859  10.828   3.099 -0.0894 -0.2929 -0.0119
 6924W        W25778  12.788   7.765  13.137 -0.4133 -0.3313 -0.2525
 6925W        W25779  18.351   3.207  15.196  0.0888 -0.0712  0.0449
 6926W        W25780   0.004   6.020   0.255 -0.1533 -0.1626 -0.1558
 6927W        W25781   2.711  18.234  14.309  0.0755 -0.1218  0.2087
 6928W        W25782   9.608  13.917   3.507 -0.0442  0.0601  0.1080
 6929W        W25783  13.325   0.215   2.090  0.1098  0.0977  0.0648
 6930W        W25784   5.065  16.686  10.243 -0.1617 -0.4353  0.1564
 6931W        W25785   9.588   4.150   3.956  0.0785  0.1110 -0.2607
 6932W        W25786   3.587  13.153  13.519  0.0561  0.1179  0.0839
 6933W        W25787  11.501   2.676   5.402 -0.1280  0.3174  0.0296
 6934W        W25788  11.932  12.027  12.410 -0.1420 -0.0132 -0.1779
 6935W        W25789  13.028   9.486  12.971  0.1766 -0.1249  0.1905
 6936W        W25790  16.085  12.599  14.654 -0.1789 -0.0635  0.2562
 6937W        W25791   6.948   6.422   4.186 -0.1219 -0.0536  0.3403
 6938W        W25792  16.721   5.171  14.206  0.1799 -0.0005  0.4690
 6939W        W25793   1.731   7.688  15.095  0.1419  0.1580 -0.2243
 6940W        W25794   7.157  12.529   4.287 -0.0750 -0.1102  0.3358
 6941W        W25795  13.773   8.487   0.310  0.0143  0.2090  0.3599
 6942W        W25796  13.980  18.529  13.981  0.4367  0.1636 -0.2434
 6943W        W25797   2.161   2.357   3.952 -0.2114 -0.3350 -0.1177
 6944W        W25798  10.682   4.719   3.879 -0.1293  0.2551  0.0305
 6945W        W25799   9.111  16.969  12.202 -0.1398  0.2231 -0.1615
 6946W        W25800   0.618  15.995   4.541  0.1943  0.2772 -0.0639
 6947W        W25801  12.983  18.018  15.408  0.1351  0.0546 -0.6721
 6948W        W25802   3.241  15.312  12.916 -0.2142 -0.2001  0.0644
 6949W        W25803   9.853   5.749   1.797  0.1778 -0.0376 -0.1450
 6950W        W25804   0.508   7.644  10.167 -0.3328 -0.2924 -0.1692
 6951W        W25805   9.870   5.399   2.478  0.1149 -0.1453 -0.0961
 6952W        W25806  16.398  13.938   2.743  0.1171 -0.1255 -0.3668
 6953W        W25807  18.292  13.511   3.821 -0.2642 -0.0665 -0.0043
 6954W        W25808   3.015   3.558  11.141  0.2331  0.1474 -0.0879
 6955W        W25809  16.513   2.380   4.174  0.1102  0.1601  0.0973
 6956W        W25810  13.334   5.818  15.014  0.2949  0.0037  0.2687
 6957W        W25811  12.725   8.775   4.990  0.1100 -0.0759 -0.0897
 6958W        W25812   0.632   5.818  14.315  0.2334  0.0664 -0.1780
 6959W        W25813  14.214  13.570  10.979 -0.2004  0.3199 -0.4126
 6960W        W25814   6.044   7.950  12.057  0.0108  0.0014  0.3884
 6961W        W25815  17.995   1.262   4.125 -0.0784 -0.1785  0.1221
 6962W        W25816  13.613  13.005   2.511  0.2825 -0.0466 -0.1488
 6963W        W25817   7.304   0.991  14.550  0.0159  0.0959 -0.0179
 6964W        W25818   3.043   3.706  11.631 -0.1443  0.0750  0.2421
 6965W        W25819  14.097  11.723   2.308  0.2292 -0.0500  0.1292
 6966W        W25820   5.100   7.003  15.051 -0.0045  0.1981  0.1858
 6967W        W25821   2.190   1.714   1.252 -0.1415  0.1632 -0.1320
 6968W        W25822   6.238   9.355   0.669 -0.2986  0.2719  0.1480
 6969W        W25823  13.400   8.022  10.936  0.3323  0.0609  0.2109
 6970W        W25824   5.824   4.465  11.416  0.3676 -0.0743  0.2995
 6971W        W25825  13.690  17.695  14.754 -0.1168 -0.2344 -0.0656
 6972W        W25826   4.373   0.153   1.780 -0.0842  0.1238 -0.3056
 6973W        W25827   2.556  11.242  13.152 -0.3649 -0.1964 -0.0787
 6974W        W25828  13.331   4.941  10.373  0.1041  0.0189  0.2414
 6975W        W25829  13.683   0.578  14.785  0.0680 -0.3073  0.0085
 6976W        W25830  15.270  15.452   0.785 -0.2513 -0.0956 -0.3660
 6977W        W25831   4.611  15.505   4.376  0.1053  0.1657  0.0640
 6978W        W25832   7.782  14.322  15.452  0.1039 -0.1647 -0.0526
 6979W        W25833  17.957   0.711  14.912  0.2145  0.1104 -0.2370
 6980W        W25834   8.902   2.654  12.203 -0.4154  0.0917 -0.0534
 6981W        W25835  15.913   7.415   3.463 -0.2119  0.2120 -0.0899
 6982W        W25836   4.347  15.138   1.982  0.2389 -0.0740  0.2343
 6983W        W25837   3.678  10.774  14.912 -0.1706  0.2513  0.0998
 6984W        W25838  16.046   0.239  10.528  0.2020  0.0232 -0.1225
 6985W        W25839  10.923  16.168   2.311  0.0006 -0.0813  0.1523
 6986W        W25840  18.174   1.848  14.897 -0.2832  0.3084 -0.2109
 6987W        W25841  13.968  16.857  14.340  0.2927  0.1289 -0.2246
 6988W        W25842  13.232   5.790  12.842 -0.1380  0.3437  0.2734
 6989W        W25843   4.099  14.385  13.521  0.0957  0.1482  0.0285
 6990W        W25844  10.838  14.306   3.083 -0.1430  0.1606 -0.0714
 6991W        W25845  11.053   6.534  13.081  0.1529  0.0593 -0.0795
 6992W        W25846   5.668  16.531   1.568 -0.2295 -0.0270  0.0646
 6993W        W25847  18.197  16.469  13.596  0.0361 -0.1775 -0.3332
 6994W        W25848  17.876  16.482   3.742  0.0669 -0.1785  0.1751
 6995W        W25849  13.162   5.078   1.467 -0.1593 -0.1614  0.0160
 6996W        W25850   3.173  12.543  11.880  0.0463 -0.4198 -0.1104
 6997W        W25851  11.149  11.293   2.880 -0.0271  0.2505  0.2266
 6998W        W25852  12.791  13.063  14.215 -0.3103 -0.0107  0.1928
 6999W        W25853   9.529   0.505   3.809 -0.0768  0.0281 -0.2293
 7000W        W25854  13.101   1.664  14.362 -0.0652 -0.0505  0.3632
 7001W        W25855  12.878   4.018   2.478  0.0365  0.4645  0.1500
 7002W        W25856   6.999   9.488   3.623 -0.1627  0.1326  0.1227
 7003W        W25857  17.768  12.533  11.860 -0.1396  0.1338 -0.0367
 7004W        W25858  13.951  17.864   3.655 -0.0489 -0.0377 -0.0251
 7005W        W25859  11.761   4.648  15.380  0.0189  0.2027  0.0076
 7006W        W25860   5.395  17.891  12.455 -0.0587 -0.2334 -0.0142
 7007W        W25861  13.125  17.771  13.023 -0.0330  0.2477 -0.1449
 7008W        W25862   9.766   4.413  10.753  0.0922  0.0563 -0.0808
 7009W        W25863   9.672   9.380  15.040 -0.2229  0.2606 -0.0950
 7010W        W25864  12.497  10.093  11.740 -0.0299 -0.0666  0.1040
 7011W        W25865  17.264   6.624  12.593  0.1455  0.2376  0.0389
 7012W        W25866  12.917   5.375   2.845  0.1426 -0.1034 -0.1046
 7013W        W25867   0.012   2.811   0.004  0.3660 -0.0231  0.1513
 7014W        W25868   6.179  11.120   0.991  0.0278 -0.4747 -0.2544
 7015W        W25869  11.560   2.726  12.737 -0.0029 -0.1502  0.1215
 7016W        W25870   1.448   8.870  13.444  0.2502 -0.0014 -0.1843
 7017W        W25871  12.624  12.812  15.414  0.0459  0.1944 -0.3618
 7018W        W25872  17.058  17.129  11.057 -0.1831 -0.0128 -0.1815
 7019W        W25873   2.881  10.011   0.202  0.0642 -0.1667 -0.0962
 7020W        W25874   6.941  18.460  12.151  0.2185 -0.3109  0.1765
 7021W        W25875  11.666   2.195  14.901  0.1446  0.1576 -0.0379
 7022W        W25876  16.329  14.767   0.010 -0.2557 -0.1469 -0.2788
 7023W        W25877  11.701  18.337  11.608 -0.2614 -0.1195 -0.3131
 7024W        W25878  15.161  14.723   4.384 -0.3305 -0.1423  0.0569
 7025W        W25879   5.085  13.811   3.327  0.3826  0.2964  0.1709
 7026W        W25880   7.195   2.699   1.947  0.0686  0.0958 -0.3142
 7027W        W25881  13.372   2.557   3.699  0.0177  0.3053 -0.0457
 7028W        W25882  11.213  17.100  11.963 -0.1805  0.1400 -0.2209
 7029W        W25883  12.310  18.564  15.304  0.2809  0.0397  0.0177
 7030W        W25884  11.355   1.821  15.122  0.1424  0.2837 -0.0772
 7031W        W25885   0.753  17.143  14.875 -0.1785  0.1151 -0.3725
 7032W        W25886  13.130   9.971   3.716 -0.1497  0.1345 -0.1868
 7033W        W25887   7.254  11.848   3.101  0.2242 -0.0604  0.0916
 7034W        W25888   6.123   3.777  10.806  0.1557 -0.0939 -0.2074
 7035W        W25889   5.125   4.996   1.874 -0.2473 -0.0059 -0.3337
 7036W        W25890   9.059   3.124   1.868  0.1864  0.0194  0.3280
 7037W        W25891  11.390   3.834   4.263  0.2281  0.0013  0.1579
 7038W        W25892   9.974   5.713  11.772 -0.0690 -0.0413  0.1647
 7039W        W25893  16.900  11.904   0.906  0.2245 -0.1181 -0.1714
 7040W        W25894   9.888   5.102   3.518  0.3988 -0.2557 -0.1535
 7041W        W25895   9.039   5.630  12.867 -0.2876 -0.0095 -0.0369
 7042W        W25896  12.672  11.146  13.380 -0.0237 -0.0201 -0.1856
 7043W        W25897   5.505  18.435  13.964  0.0342  0.1505 -0.0325
 7044W        W25898  18.244   1.038   0.914 -0.0463  0.0860 -0.0591
 7045W        W25899  10.778   5.364  11.741  0.0426  0.2311 -0.1328
 7046W        W25900  15.963   2.743  10.554  0.2317 -0.2256 -0.0549
 7047W        W25901   0.339  13.399  11.752  0.2618  0.1266 -0.0609
 7048W        W25902   0.141  10.596   1.041  0.2401  0.0274  0.0380
 7049W        W25903  14.544   2.769   4.759 -0.0753 -0.1886 -0.0439
 7050W        W25904   9.632  16.438   0.525  0.0172  0.5797 -0.0108
 7051W        W25905   2.406   1.359   1.612  0.1158 -0.3832  0.0009
 7052W        W25906   7.528   9.337   0.807  0.1742 -0.0101  0.2617
 7053W        W25907  12.560  16.881   4.527 -0.1401  0.3000  0.1981
 7054W        W25908  11.824  15.137  15.014 -0.2574  0.1613 -0.1109
 7055W        W25909  16.371  18.138   3.694  0.0677 -0.0711 -0.1678
 7056W        W25910   3.012   4.639   0.939  0.0833 -0.2184 -0.1099
 7057W        W25911   2.906   7.529  14.306 -0.1694  0.0422  0.0100
 7058W        W25912   4.627  14.213   3.361  0.0192 -0.2283  0.3432
 7059W        W25913  16.030  14.601   2.181 -0.0047  0.3821 -0.3902
 7060W        W25914  15.720  12.072   0.978 -0.1229  0.0688 -0.1717
 7061W        W25915   3.019  10.143  12.427 -0.0408 -0.1961  0.0848
 7062W        W25916   2.749   5.388  11.037  0.0753  0.0413  0.0670
 7063W        W25917   2.300  16.349   3.205 -0.0458 -0.1206  0.1644
 7064W        W25918   9.912   1.283  13.446  0.1764  0.4500 -0.1361
 7065W        W25919   8.848  13.007  14.320  0.1389 -0.2821 -0.2030
 7066W        W25920  14.539   9.826  11.740 -0.0713 -0.0308  0.2146
 7067W        W25921  14.428  15.404  11.645 -0.0015 -0.0406 -0.0413
 7068W        W25922   9.390  14.305   6.017 -0.0565  0.0660 -0.4371
 7069W        W25923   6.186   6.553  15.231  0.1305  0.2853  0.1457
 7070W        W25924   6.033   7.229   2.662  0.2901  0.1063  0.0989
 7071W        W25925   3.315  11.867   2.181 -0.1973  0.2593 -0.0268
 7072W        W25926   5.151   1.675   3.552 -0.3626 -0.0688  0.2969
 7073W        W25927  16.504  17.622   3.651 -0.5961 -0.0855  0.0488
 7074W        W25928   6.029  16.661  12.405  0.2635  0.0199 -0.2015
 7075W        W25929  14.781  10.381   4.694  0.2439 -0.2642 -0.2459
 7076W        W25930   4.496   2.021   0.716 -0.2206  0.2641 -0.1714
 7077W        W25931  17.046   6.518  14.459  0.2212  0.0521  0.2112
 7078W        W25932   0.043   3.538  14.939 -0.0357 -0.2066  0.0763
 7079W        W25933   8.946   7.501  12.592  0.0913 -0.3746  0.2154
 7080W        W25934   8.159   3.093  15.454  0.1542 -0.3672 -0.0722
 7081W        W25935   0.915   7.919  10.489 -0.0225  0.2047  0.1930
 7082W        W25936   6.263  12.906   0.734  0.0351  0.1559 -0.2086
 7083W        W25937   3.455   3.554   2.931  0.0264 -0.1856  0.0819
 7084W        W25938   1.446  16.750   3.188  0.1299 -0.2559 -0.0820
 7085W        W25939  13.855  11.594   4.369  0.1366  0.2072  0.2355
 7086W        W25940  11.262   2.196   2.836  0.2209  0.0622  0.3697
 7087W        W25941  11.961  16.847  11.179  0.2305 -0.3098 -0.3476
 7088W        W25942   2.348   6.568   1.476  0.1989  0.0396 -0.0919
 7089W        W25943   8.396  15.311   1.233 -0.0140  0.1239  0.1436
 7090W        W25944  14.460  10.724  14.101 -0.1253 -0.0519 -0.0964
 7091W        W25945  18.350  12.606  13.196 -0.1634 -0.1573 -0.1341
 7092W        W25946  10.917  12.326  13.304  0.2935 -0.1416  0.3150
 7093W        W25947   6.995   5.282  14.953  0.0291 -0.3905 -0.1470
 7094W        W25948  17.390  18.417   3.558 -0.0061 -0.1260 -0.1379
 7095W        W25949  12.147  13.576  11.714 -0.0227 -0.1073 -0.1122
 7096W        W25950   3.985   1.342   0.128  0.3996  0.1548  0.0246
 7097W        W25951   2.205   8.592  12.655  0.2936  0.0723 -0.3881
 7098W        W25952  10.948  15.527   2.139 -0.0974 -0.1997 -0.0388
 7099W        W25953  17.707  16.499   2.287  0.2234 -0.4865  0.1697
 7100W        W25954  15.436  10.886   4.413  0.0866  0.1032 -0.0622
 7101W        W25955  16.156   4.663   0.805 -0.0625  0.0967 -0.2269
 7102W        W25956   6.422   6.992   1.427 -0.3106  0.0627 -0.0109
 7103W        W25957  13.175  11.356  13.530 -0.2359 -0.0685  0.2310
 7104W        W25958  16.330  15.439   1.991  0.0063 -0.1434  0.1457
 7105W        W25959  15.097   5.195   3.780  0.0630  0.2134  0.0498
 7106W        W25960  17.391  12.199  14.841 -0.0693 -0.0579  0.0467
 7107W        W25961   3.728  18.142  12.725 -0.0344 -0.2850 -0.2072
 7108W        W25962   9.850   7.971  14.533  0.0519 -0.2647 -0.0642
 7109W        W25963   3.316  13.539   2.814  0.2498 -0.2627  0.2092
 7110W        W25964   2.348   7.703  10.813  0.2243  0.3687 -0.0262
 7111W        W25965   2.002  11.229   4.340 -0.0077 -0.1355 -0.3525
 7112W        W25966   4.968  18.004  12.090  0.0233  0.1899  0.2293
 7113W        W25967  15.427   4.892   1.531  0.0648  0.0685 -0.0144
 7114W        W25968  17.791  14.059   1.938 -0.0922  0.1338 -0.1092
 7115W        W25969  13.889  11.489   0.628  0.1857  0.2761 -0.1324
 7116W        W25970  12.103   9.558   2.866 -0.1309  0.1005 -0.0374
 7117W        W25971  13.543  16.894  15.366  0.1570 -0.0497 -0.1087
 7118W        W25972   5.012   4.310   5.090  0.0037 -0.1593  0.4031
 7119W        W25973   8.934   5.192   0.889 -0.2951 -0.0705  0.0227
 7120W        W25974  14.535   9.443   5.165  0.0032  0.0776  0.1268
 7121W        W25975  13.634   8.639   3.398  0.1595 -0.0763  0.0140
 7122W        W25976   7.121  13.983  11.677 -0.1132 -0.1781  0.0424
 7123W        W25977   0.449   3.914   0.754 -0.1095  0.1093  0.0081
 7124W        W25978   3.805  11.141  10.192  0.2181  0.0029 -0.1495
 7125W        W25979   8.493  13.086  11.301  0.2184 -0.2658 -0.1271
 7126W        W25980  10.684   9.843  15.236  0.2278 -0.1652 -0.0777
 7127W        W25981  16.609  13.842  13.230  0.0421 -0.2110 -0.0073
 7128W        W25982   5.866  17.435   0.539  0.3552 -0.0796  0.0950
 7129W        W25983  14.777  13.632   2.622 -0.1565  0.0869  0.3393
 7130W        W25984  18.353  17.731   4.738  0.1141 -0.0298  0.1155
 7131W        W25985  14.034   2.922   2.479  0.1350  0.1524 -0.0031
 7132W        W25986  15.791  12.164   0.489 -0.1194 -0.2924 -0.2565
 7133W        W25987   7.107  12.358   2.098  0.3083  0.1651 -0.2475
 7134W        W25988   2.184  10.050  11.197 -0.1368  0.0315  0.1480
 7135W        W25989  11.747   6.542   3.126  0.2897 -0.0598  0.1471
 7136W        W25990   4.954  16.611  12.570 -0.0781 -0.0002 -0.2570
 7137W        W25991   9.934  10.053  12.422 -0.1820  0.2106  0.0799
 7138W        W25992   0.192  16.026  13.744 -0.0423 -0.2107 -0.2171
 7139W        W25993  10.063   7.898  12.953 -0.4369  0.1912  0.1723
 7140W        W25994  12.886  17.187   2.421 -0.0327 -0.0989 -0.0828
 7141W        W25995   6.690   3.876   5.256  0.0954  0.2796 -0.1177
 7142W        W25996  16.650   8.583   1.770 -0.1628 -0.1163  0.0162
 7143W        W25997  10.710   3.051  15.337  0.1161 -0.1423  0.2693
 7144W        W25998  13.699  11.860  10.718  0.1564 -0.0144  0.1243
 7145W        W25999  16.902   3.118  12.098 -0.2640 -0.0781  0.2912
 7146W        W26000   6.272   9.945  11.027 -0.1436  0.1695  0.3657
 7147W        W26001   6.090  12.032   1.102  0.0886  0.0190  0.2792
 7148W        W26002   7.851  18.471   1.395  0.0541 -0.1170  0.1421
 7149W        W26003  12.023  11.255  14.669 -0.0412  0.2081 -0.0023
 7150W        W26004   7.515   2.510  13.243  0.1119 -0.0671  0.0785
 7151W        W26005   4.189  10.118   3.387 -0.4242  0.4091 -0.0771
 7152W        W26006  15.611  13.600  13.210 -0.0505 -0.0722 -0.0335
 7153W        W26007   8.492   7.035  14.124 -0.0785 -0.2278  0.2944
 7154W        W26008   9.452   8.335  14.656 -0.2017 -0.1148  0.2272
 7155W        W26009  15.219  14.308  11.325 -0.0754 -0.0828  0.2017
 7156W        W26010  18.002   0.491   2.214  0.0654 -0.0812 -0.2536
 7157W        W26011  11.297   1.599   2.493 -0.2053  0.2680  0.0583
 7158W        W26012  17.113   2.873  13.145  0.0723 -0.2532 -0.0358
 7159W        W26013  10.062  13.951  14.474 -0.0678  0.2058 -0.2581
 7160W        W26014  13.735  15.422   1.047  0.2779 -0.1916  0.1904
 7161W        W26015  17.871  13.440  12.001 -0.4885 -0.2455 -0.1824
 7162W        W26016  13.375  17.978  13.447  0.0188  0.4556 -0.0772
 7163W        W26017  10.097   7.236   3.518 -0.1472 -0.1560  0.0907
 7164W        W26018  11.897   7.834  12.038 -0.3194 -0.2424 -0.0868
 7165W        W26019   0.204   2.166  12.117  0.3827 -0.0208 -0.0154
 7166W        W26020  13.677   3.649   0.045  0.1617 -0.1635  0.1680
 7167W        W26021  13.284   0.419   0.503 -0.1840 -0.1707  0.0170
 7168W        W26022  12.856  10.209  14.738 -0.0088  0.0433 -0.0361
 7169W        W26023   5.826  15.156  11.557  0.0685 -0.0298  0.0917
 7170W        W26024   3.798   2.690  15.438  0.0801  0.1750  0.2341
 7171W        W26025  17.897   4.207   2.798  0.1163 -0.1247  0.1175
 7172W        W26026   3.717   2.006  11.663  0.1079 -0.3618 -0.0143
 7173W        W26027   5.560   9.429  11.145  0.2367  0.1935 -0.0472
 7174W        W26028   9.153  15.661   0.808 -0.2395 -0.1199  0.0810
 7175W        W26029  16.628   1.515  14.428  0.0756 -0.0998 -0.3401
 7176W        W26030  17.486   0.372   3.620 -0.0187  0.0552  0.1678
 7177W        W26031  11.684  12.059  14.694 -0.0360 -0.0909  0.0818
 7178W        W26032  15.911  13.504   1.158 -0.1776 -0.0370  0.1563
 7179W        W26033   2.504   9.780   1.666 -0.1894 -0.0960 -0.1028
 7180W        W26034  12.533  13.221   2.747 -0.2031 -0.2213  0.0060
 7181W        W26035  17.636   1.948   4.737  0.0501  0.2442 -0.0084
 7182W        W26036  12.706  14.993  13.933  0.4875 -0.2688 -0.2158
 7183W        W26037   9.702  14.393  13.884 -0.0818  0.2041 -0.0620
 7184W        W26038  13.440  14.059   2.889 -0.0361  0.0742  0.0953
 7185W        W26039  13.286   9.666  14.268  0.1473 -0.0823  0.0340
 7186W        W26040   2.550  11.366  11.765 -0.3155  0.0010  0.0339
 7187W        W26041   3.124   2.778   1.443 -0.0198  0.2241  0.1752
 7188W        W26042   5.231  11.641   3.246  0.2920  0.2406 -0.0790
 7189W        W26043  10.731   4.892   2.781  0.0492  0.0706 -0.0293
 7190W        W26044   4.069  12.639   0.094 -0.1595 -0.3126  0.3351
 7191W        W26045   8.814   5.637   1.606  0.1587 -0.0742  0.1423
 7192W        W26046   0.914  15.031   3.693 -0.2342  0.3435  0.1247
 7193W        W26047  15.587  13.292   0.151 -0.1578  0.0068  0.1423
 7194W        W26048   5.011  11.726  14.271  0.1467 -0.0164  0.2162
 7195W        W26049  16.480  16.096  12.232  0.5801  0.1544  0.3261
 7196W        W26050  15.947  12.303  10.993 -0.2410  0.0266 -0.0586
 7197W        W26051  13.639  11.072  14.212  0.1254  0.3435 -0.1686
 7198W        W26052   9.634  15.955   3.412 -0.0790  0.0852 -0.1464
 7199W        W26053   2.459  18.252   3.573  0.0894  0.1970  0.1772
 7200W        W26054  11.038  11.256   1.671  0.2021 -0.1392 -0.0755
 7201W        W26055  10.141  15.986   4.265 -0.1990  0.2303  0.1471
 7202W        W26056   9.871   4.008   1.542  0.1740 -0.0829 -0.0263
 7203W        W26057   1.873  17.182   2.491 -0.0960  0.2679 -0.1091
 7204W        W26058  10.099  14.554   3.489  0.1361 -0.1453  0.0225
 7205W        W26059   9.501   9.578  13.650  0.0058 -0.0658  0.1995
 7206W        W26060  14.884  18.315   0.561  0.0535 -0.0655  0.2120
 7207W        W26061   8.468   0.521  13.497  0.0321  0.3006 -0.2362
 7208W        W26062  11.459  15.753   1.599  0.0013 -0.2782 -0.0682
 7209W        W26063  11.874   4.831  13.535 -0.2589 -0.0280  0.3466
 7210W        W26064  14.336   6.453  15.432  0.1776 -0.2066 -0.1306
 7211W        W26065  17.821   4.103   1.674  0.0844  0.2281 -0.2433
 7212W        W26066   1.204  13.052   1.982  0.1351  0.0838  0.1707
 7213W        W26067   7.533  17.115   1.244 -0.0403  0.0717  0.0550
 7214W        W26068  15.453   5.514   3.441  0.0206  0.2528 -0.1428
 7215W        W26069  13.420   2.662  13.161 -0.1809  0.1050 -0.0286
 7216W        W26070  10.241  12.530  14.444 -0.0963  0.4173  0.2148
 7217W        W26071  14.747   6.322   0.818  0.2128 -0.3434 -0.1306
 7218W        W26072  13.432  10.107   2.899  0.2381  0.3975  0.0324
 7219W        W26073  17.629  17.559   1.258 -0.0666  0.1191  0.1279
 7220W        W26074  15.568   7.188   2.818 -0.2747  0.4386  0.1136
 7221W        W26075   4.807   2.149   2.992  0.1587  0.2066 -0.1184
 7222W        W26076   9.629  15.787  14.920  0.0120  0.1314  0.0034
 7223W        W26077  12.654  17.486   1.709  0.1427 -0.0599 -0.2208
 7224W        W26078  14.224  13.759  12.201  0.0629  0.0215 -0.0440
 7225W        W26079  15.588   9.469  12.375  0.0580 -0.0939 -0.2461
 7226W        W26080  16.643   4.470   1.008 -0.2027 -0.5462 -0.1557
 7227W        W26081   5.118   9.549  11.315 -0.0797 -0.0743  0.0109
 7228W        W26082  16.071   6.952  13.497  0.0789 -0.1718  0.4030
 7229W        W26083   2.919  14.925   0.730  0.1199 -0.0197  0.2556
 7230W        W26084   0.968   0.487  12.947 -0.1349 -0.0072  0.1501
 7231W        W26085   8.785  10.468  13.081  0.1016  0.1224  0.1767
 7232W        W26086   0.859   6.382  11.258  0.0342  0.4224 -0.0300
 7233W        W26087  10.795   5.708  12.136 -0.1381  0.0145 -0.2466
 7234W        W26088   0.641  11.082  15.185  0.0442 -0.0261 -0.0515
 7235W        W26089  16.369   8.012   9.874 -0.0912  0.0577 -0.1856
 7236W        W26090   1.254   1.314  11.568  0.0174  0.2838  0.2041
 7237W        W26091   6.237  18.251   3.037  0.2665  0.1776 -0.1826
 7238W        W26092   8.800   9.001  14.661 -0.0711  0.0296  0.0793
 7239W        W26093   4.650  16.481  15.339 -0.1315  0.1152  0.0619
 7240W        W26094   8.182   5.464  13.194 -0.0984 -0.2392 -0.4403
 7241W        W26095   3.483  10.188   2.879 -0.1986  0.0496  0.2073
 7242W        W26096   0.476  11.468  12.468 -0.0367  0.0374 -0.3935
 7243W        W26097   8.475   5.609  14.111 -0.1013  0.1169 -0.1521
 7244W        W26098  15.725   2.051   0.488 -0.3361  0.3022  0.1317
 7245W        W26099   1.170   2.319  15.291 -0.1566  0.0989 -0.0744
 7246W        W26100  10.385  15.938   2.203  0.1555 -0.0118  0.1309
 7247W        W26101   9.550  13.201   3.825  0.2476 -0.1084  0.0994
 7248W        W26102   7.942   8.392  11.375  0.0669  0.0023 -0.0070
 7249W        W26103  12.850  14.557   4.569  0.1568 -0.3565 -0.0139
 7250W        W26104  17.306  14.079  13.353 -0.1118 -0.1019 -0.1547
 7251W        W26105   7.213  17.186   0.703  0.1197  0.3693 -0.0089
 7252W        W26106   4.127   6.607  11.885  0.1299 -0.0464  0.0952
 7253W        W26107  16.943  18.427  13.690 -0.1265 -0.3550 -0.2638
 7254W        W26108   8.669   0.254   3.939 -0.1263 -0.0648 -0.1252
 7255W        W26109  10.748  16.783   5.689  0.0134 -0.1967 -0.0151
 7256W        W26110   8.745   5.323  11.892  0.1179 -0.2134  0.2790
 7257W        W26111   0.974   9.824  12.373 -0.0491  0.0063  0.0702
 7258W        W26112  14.848   1.198   0.632 -0.1738  0.1039  0.1893
 7259W        W26113  10.514   6.827   1.559 -0.3533  0.0676 -0.0818
 7260W        W26114  10.914   4.520  10.224  0.0000  0.0125 -0.2887
 7261W        W26115  11.761   5.510   2.335 -0.1888 -0.0284 -0.0805
 7262W        W26116  10.723   6.615   3.431 -0.0685 -0.1872 -0.1603
 7263W        W26117   5.144  17.286   2.920 -0.4902 -0.1618  0.2721
 7264W        W26118  15.082  10.518   2.549 -0.5406 -0.1377 -0.2434
 7265W        W26119   4.345   5.180   3.217 -0.0126  0.0469 -0.2026
 7266W        W26120  10.649   0.722  13.242  0.1472 -0.2759  0.1883
 7267W        W26121  16.034  11.764  14.960 -0.1346 -0.1945 -0.0217
 7268W        W26122  11.075   9.353  14.652 -0.2630 -0.0883  0.0185
 7269W        W26123  12.997  15.205  13.598  0.0716  0.3757 -0.1681
 7270W        W26124   0.334   9.848   1.327  0.1571 -0.1981 -0.2130
 7271W        W26125   9.631   8.227   0.466  0.1652 -0.1784  0.0891
 7272W        W26126   6.589  11.991   0.922 -0.3576 -0.1409 -0.0703
 7273W        W26127  13.606   5.351   3.565 -0.1732  0.0010  0.0557
 7274W        W26128  16.260  14.804  12.348  0.2009 -0.2482  0.0045
 7275W        W26129  15.392  11.266   3.543 -0.0996 -0.4381 -0.0238
 7276W        W26130   0.578  15.112   0.923  0.1041 -0.0327 -0.1071
 7277W        W26131   2.448  13.180   3.206 -0.2748 -0.2418 -0.2217
 7278W        W26132   3.995   5.207   0.762 -0.0366  0.0423 -0.0934
 7279W        W26133   9.959   3.057   1.903  0.0906 -0.0829  0.1305
 7280W        W26134   5.259  12.167  14.115 -0.1925 -0.1049 -0.1403
 7281W        W26135   6.491   4.433  13.594 -0.0759 -0.1018 -0.2517
 7282W        W26136  11.558  10.548  14.899  0.1520 -0.3534  0.2512
 7283W        W26137  17.930   8.856  14.561  0.1659 -0.3133 -0.1311
 7284W        W26138  12.921   0.747   1.329  0.3584  0.0158 -0.2836
 7285W        W26139   6.938  16.105  14.438 -0.2402  0.2925  0.0164
 7286W        W26140  16.021   3.261  15.092 -0.1336 -0.0086  0.1003
 7287W        W26141  16.186  14.672  13.971  0.2954  0.2226 -0.0947
 7288W        W26142   1.108  14.727  14.182  0.3568  0.4567  0.1198
 7289W        W26143  16.871  14.933  14.229 -0.1375 -0.1085 -0.0907
 7290W        W26144   8.918   4.310  14.899  0.2482 -0.0571 -0.1567
 7291W        W26145   3.758  12.053   1.307  0.2077 -0.2464 -0.0594
 7292W        W26146   2.214   2.770   3.603 -0.2171  0.0263 -0.1515
 7293W        W26147  16.190  15.064  11.679 -0.0164 -0.1499 -0.0606
 7294W        W26148  12.874   0.849   4.590 -0.1716 -0.0567 -0.1900
 7295W        W26149   4.868   7.180  11.780  0.1110  0.1015 -0.0993
 7296W        W26150  15.008  14.181  12.066  0.1308  0.3431 -0.1610
 7297W        W26151   2.303   0.318   4.368  0.2503  0.0423  0.3954
 7298W        W26152   4.127  16.685   0.108  0.0993  0.0479 -0.2584
 7299W        W26153  18.075  13.996  11.957  0.1309 -0.0646  0.0785
 7300W        W26154   0.099  14.961   3.032 -0.2464  0.0589  0.0651
 7301W        W26155   9.530  12.421  11.846 -0.0561  0.2938 -0.1926
 7302W        W26156  16.276   5.350  12.384  0.2063  0.0519 -0.0994
 7303W        W26157  11.749  11.111  13.728  0.2028  0.2324  0.0303
 7304W        W26158  16.150  11.498  13.284  0.3284 -0.1343 -0.0294
 7305W        W26159   2.328  17.596  13.004 -0.0365 -0.0986 -0.1491
 7306W        W26160  11.732   6.517   4.221 -0.1896  0.0077 -0.0269
 7307W        W26161   7.875  10.583   1.782 -0.0439  0.1685 -0.0364
 7308W        W26162  16.188   1.879   1.765  0.0424  0.0111 -0.1559
 7309W        W26163  14.888   6.291  12.287 -0.3058 -0.0213 -0.1232
 7310W        W26164  10.145  10.832  15.145  0.1636 -0.0216  0.0528
 7311W        W26165   2.521   3.993   2.510 -0.1819  0.0572  0.1315
 7312W        W26166  13.666   1.864   1.864 -0.0339  0.3243 -0.1392
 7313W        W26167   2.827   9.482   0.135  0.1392  0.3922 -0.1279
 7314W        W26168   3.088   6.626  15.143  0.1599  0.1391 -0.1792
 7315W        W26169   6.485  17.401  11.272  0.1262  0.1334  0.1168
 7316W        W26170  11.021  10.662   1.610  0.1422  0.0881  0.2035
 7317W        W26171   9.039   3.884   2.990 -0.2657  0.0827  0.1401
 7318W        W26172   9.103  12.787  11.900  0.4311 -0.0355 -0.1828
 7319W        W26173  13.832   7.584  13.223 -0.0313  0.1943  0.4578
 7320W        W26174   6.690  10.394   0.985 -0.0449 -0.0444 -0.1403
 7321W        W26175   5.619   1.617  15.031  0.2005  0.0545  0.2521
 7322W        W26176   7.295   7.394   1.503  0.2180  0.1321  0.3411
 7323W        W26177   4.750   6.188  11.195 -0.1592  0.1757  0.3720
 7324W        W26178   8.443   5.420   2.841 -0.0048  0.0723 -0.2134
 7325W        W26179  12.428  18.162  13.988  0.2071 -0.0664  0.0982
 7326W        W26180   9.944  12.596   4.291 -0.2440 -0.0345 -0.0338
 7327W        W26181  12.245   5.771  13.795 -0.0774 -0.0743 -0.1565
 7328W        W26182  17.878  16.536  14.826  0.0079 -0.0582  0.2589
 7329W        W26183   2.467  15.654  13.086  0.0395 -0.1946 -0.2515
 7330W        W26184   1.842   7.490  13.976  0.3477  0.0739 -0.1732
 7331W        W26185  14.998   0.440  13.955  0.0821  0.1225 -0.0639
 7332W        W26186   6.325  14.605  14.202  0.0597 -0.0797 -0.0801
 7333W        W26187   6.931   6.469  11.295  0.0078  0.0169 -0.4640
 7334W        W26188  18.472   7.457  12.248 -0.0044  0.0077  0.0499
 7335W        W26189  12.030  14.038  15.219  0.0358  0.0737 -0.3968
 7336W        W26190  16.529   6.542   1.254  0.0858  0.0827 -0.3020
 7337W        W26191  16.797   8.960  12.643 -0.1273 -0.1264 -0.1034
 7338W        W26192   9.949   4.729  11.767 -0.4277 -0.1802 -0.0303
 7339W        W26193   1.315  16.250   3.205 -0.0498  0.2980  0.3513
 7340W        W26194   5.164   7.686   4.420 -0.0986 -0.1892  0.2275
 7341W        W26195   6.586   4.938   5.736 -0.0140  0.1075 -0.1357
 7342W        W26196  16.985   6.592   2.179 -0.1801 -0.0075 -0.0897
 7343W        W26197   3.966  12.987   0.767  0.0595  0.2348  0.1883
 7344W        W26198  10.855   0.735   3.047  0.3002 -0.2063 -0.0989
 7345W        W26199  10.125  13.470  14.623 -0.0272  0.0420 -0.3012
 7346W        W26200   7.313   9.217  13.244 -0.2255  0.2420 -0.3216
 7347W        W26201  12.425   9.483  12.577 -0.0567  0.2392 -0.1699
 7348W        W26202   6.577  12.692   5.445 -0.2892  0.1478 -0.2539
 7349W        W26203  18.368   9.986  15.440 -0.0932  0.2133  0.0258
 7350W        W26204  10.682  11.014   1.433 -0.2304  0.1645 -0.0119
 7351W        W26205   2.146   0.877  10.510 -0.0098 -0.0224  0.1456
 7352W        W26206  18.488   0.285   3.797 -0.1627 -0.2004 -0.2189
 7353W        W26207  17.077  12.060  12.652 -0.4182 -0.0854 -0.0121
 7354W        W26208  13.265   9.803  13.287 -0.1175 -0.1376 -0.1762
 7355W        W26209  16.849  14.810  13.099  0.1224  0.1103  0.1874
 7356W        W26210   8.861   7.791  11.279 -0.0662  0.0216 -0.1926
 7357W        W26211  13.255   7.651  12.718  0.0224  0.0785  0.1527
 7358W        W26212   5.649   8.524  12.186  0.0640 -0.0441 -0.1066
 7359W        W26213   8.955  11.335  14.280  0.0935  0.0422 -0.0230
 7360W        W26214   7.566   5.880  13.363 -0.0009 -0.0707  0.2559
 7361W        W26215   7.620   3.987  12.309  0.1204  0.1007  0.0539
 7362W        W26216  10.462  16.800   0.163  0.4870 -0.1085  0.0609
 7363W        W26217  16.138   6.073  11.358 -0.2744 -0.0226  0.3935
 7364W        W26218   5.385  14.713  10.644  0.0111  0.0611 -0.0413
 7365W        W26219  13.434  10.137   4.063  0.0152  0.4240 -0.0617
 7366W        W26220  15.765   1.225   2.026  0.1407 -0.0033  0.0847
 7367W        W26221   2.310   8.350   3.868 -0.1875  0.1359 -0.1150
 7368W        W26222   4.985  15.639   0.861  0.0474  0.0599  0.0415
 7369W        W26223  16.240   9.621  13.868  0.3129  0.1198  0.0431
 7370W        W26224   5.993  14.726  12.877  0.0707 -0.1021  0.1607
 7371W        W26225   7.150   5.138   1.607 -0.1823 -0.1396  0.1757
 7372W        W26226   8.512   8.348   0.309  0.1725  0.0802  0.0230
 7373W        W26227   4.839  17.548  10.402  0.0808  0.3733  0.0327
 7374W        W26228  13.538  16.045  15.245  0.2916  0.0064  0.4394
 7375W        W26229  12.295   3.726   2.431  0.4576 -0.1690 -0.1034
 7376W        W26230   9.201   5.902   4.227  0.0686  0.2793  0.1019
 7377W        W26231   8.173   8.743  12.272 -0.0703  0.0276  0.0463
 7378W        W26232   9.959   1.011  12.106  0.0782  0.0497 -0.1398
 7379W        W26233  12.664  10.955  11.651 -0.1432 -0.0400 -0.0364
 7380W        W26234  12.229   6.139  12.101  0.1598  0.0311  0.0881
 7381W        W26235   5.351   3.815  11.679  0.1226 -0.1119  0.0440
 7382W        W26236  13.443   4.201   0.299 -0.0936  0.1789  0.1345
 7383W        W26237   3.266  18.352   0.218 -0.0071 -0.5065 -0.1443
 7384W        W26238   3.484   5.227  13.083 -0.0866  0.1098  0.1142
 7385W        W26239   8.099   4.251   2.435 -0.0471 -0.0470  0.1809
 7386W        W26240  17.395   1.375  14.902 -0.0135  0.3779 -0.2370
 7387W        W26241  15.111  16.865   4.955 -0.0907 -0.1537  0.1760
 7388W        W26242  13.156   5.398  13.252 -0.3165 -0.1010  0.0645
 7389W        W26243  14.446  17.205  14.652  0.2761 -0.0377 -0.1250
 7390W        W26244   6.299   2.871   0.781  0.0915  0.0202  0.5301
 7391W        W26245  16.933   8.060  14.976 -0.2797 -0.1039 -0.2533
 7392W        W26246   7.778   2.463  12.780  0.0834  0.0169  0.0445
 7393W        W26247  10.481   5.345  14.299 -0.2056 -0.6324 -0.0122
 7394W        W26248   4.750   2.037   3.518  0.1758 -0.0145 -0.1815
 7395W        W26249  15.561  16.733  15.342  0.1904  0.0402  0.2803
 7396W        W26250   6.252   9.638   2.096  0.0103 -0.0970  0.1052
 7397W        W26251   6.167   4.941  11.821 -0.4269  0.0830 -0.0243
 7398W        W26252  10.959   2.989   5.836 -0.1846 -0.4501 -0.0440
 7399W        W26253   2.377  11.749  12.470  0.0836  0.0346 -0.0254
 7400W        W26254  18.525  18.444  12.438  0.2972 -0.4707  0.0838
 7401W        W26255   4.491   9.496   3.846 -0.1424  0.3506 -0.0853
 7402W        W26256   6.653  15.978   1.259 -0.0657  0.0615  0.0291
 7403W        W26257  13.803  10.875   2.962 -0.1208 -0.1772 -0.1914
 7404W        W26258   1.164  11.097   2.015  0.0109 -0.1361 -0.2300
 7405W        W26259  15.601   9.441   1.906  0.0549  0.0946 -0.0985
 7406W        W26260   7.575   4.386  11.162  0.0825 -0.0856 -0.1932
 7407W        W26261   4.911  16.764  14.011 -0.2277  0.1644  0.1062
 7408W        W26262  14.914   1.036   1.950  0.0062  0.1325  0.2218
 7409W        W26263  13.683  15.675   3.250  0.0408  0.0112 -0.1803
 7410W        W26264   5.295  14.081   4.898 -0.0902  0.1949 -0.0232
 7411W        W26265  16.920  16.313   1.312  0.2197  0.1897  0.1909
 7412W        W26266  14.683  16.978  11.238  0.0860 -0.3189  0.1889
 7413W        W26267   4.301  12.862   4.019  0.0525 -0.1456  0.1639
 7414W        W26268   2.933   0.071   2.334  0.0777 -0.1024  0.2658
 7415W        W26269  14.640   8.158   0.778 -0.0098 -0.1180 -0.0394
 7416W        W26270   2.891   3.165   3.280  0.0623 -0.1285  0.0391
 7417W        W26271  10.505   8.721   2.143  0.1012  0.0991 -0.1337
 7418W        W26272  11.093   2.356  13.516  0.1343  0.0109 -0.0728
 7419W        W26273  14.823   3.161  14.745  0.1077  0.0368 -0.1773
 7420W        W26274   2.542   6.950   3.639 -0.0418  0.1612  0.2509
 7421W        W26275  13.086  15.888  12.819  0.0905  0.0788 -0.1455
 7422W        W26276  13.468   8.421  12.213 -0.3291 -0.4428  0.0122
 7423W        W26277   3.291   6.037   2.171 -0.2073 -0.2378 -0.1426
 7424W        W26278  12.625   9.822  13.103  0.0425 -0.0064 -0.0948
 7425W        W26279  10.498   6.837   2.553 -0.0077 -0.0991  0.1965
 7426W        W26280   8.871   8.402   1.823  0.4252  0.0528 -0.1043
 7427W        W26281   5.284  13.486   2.989  0.0911  0.3218 -0.2695
 7428W        W26282   6.327  12.281   0.247 -0.2152  0.2159  0.1553
 7429W        W26283   6.609  11.936   4.339  0.0915 -0.1543 -0.2201
 7430W        W26284   5.363  11.044   1.958  0.1376  0.0865 -0.3413
 7431W        W26285   8.600  11.486   1.207 -0.0385 -0.1514 -0.1066
 7432W        W26286   7.054   8.384  14.744 -0.3215 -0.0292 -0.1826
 7433W        W26287   2.012  12.581  15.000 -0.0029 -0.2269  0.0815
 7434W        W26288   9.940   9.881  13.363  0.0222  0.0424  0.0153
 7435W        W26289  17.361  12.796  13.108  0.2808 -0.3095 -0.2523
 7436W        W26290   8.105  18.373   4.248  0.2693 -0.2731  0.0122
 7437W        W26291   3.266   2.488  15.266 -0.1036  0.0333 -0.1599
 7438W        W26292   3.962  10.402  13.672 -0.3222 -0.2328  0.0230
 7439W        W26293   1.418   4.241   1.645  0.4662 -0.1623 -0.0869
 7440W        W26294   7.139   9.181   4.322  0.2320  0.1773 -0.0286
 7441W        W26295   6.953   5.924   4.021  0.0655 -0.0048 -0.1011
 7442W        W26296   9.719  11.639  12.248  0.0517 -0.2385  0.0980
 7443W        W26297   6.808  11.521  12.079 -0.0493  0.0651 -0.0353
 7444W        W26298   4.237  16.803   4.133 -0.2087 -0.2295 -0.4669
 7445W        W26299  12.683   6.709  14.093 -0.1180 -0.0571  0.1426
 7446W        W26300  11.079   1.539  14.202 -0.0282 -0.0472 -0.5710
 7447W        W26301   6.342  10.044  12.624  0.0100  0.0364 -0.0812
 7448W        W26302  14.351  14.835  11.345 -0.0180 -0.4693  0.0697
 7449W        W26303   5.197   2.892  13.911 -0.0785  0.0110 -0.2462
 7450W        W26304   6.524  16.701   2.693 -0.1201  0.0456  0.1853
 7451W        W26305  10.962  18.311   1.818  0.0919  0.0278 -0.1851
 7452W        W26306   9.813  11.655  14.190  0.3487 -0.0248 -0.0535
 7453W        W26307  10.127  16.489   4.381  0.0925 -0.0078 -0.2947
 7454W        W26308  15.405   0.930   1.936  0.0049 -0.0080 -0.3028
 7455W        W26309   4.520   1.011   2.636 -0.3045 -0.0006 -0.0388
 7456W        W26310   6.326   8.240  11.683 -0.1185 -0.3465 -0.0825
 7457W        W26311   8.677  16.107   2.520 -0.1856  0.1198 -0.1480
 7458W        W26312   3.712   7.517   0.204  0.0477  0.2744 -0.1386
 7459W        W26313   1.517  13.330  15.388 -0.0543 -0.1384 -0.0544
 7460W        W26314   9.549  12.042  12.849  0.1644 -0.2123  0.0272
 7461W        W26315  10.921  15.406  13.835  0.0917  0.2121 -0.1101
 7462W        W26316   5.342   5.142  14.088 -0.0166  0.0017  0.0777
 7463W        W26317   8.383   6.301   2.226 -0.0780  0.0998 -0.1389
 7464W        W26318   0.585   5.210   1.368 -0.0425 -0.0513 -0.3338
 7465W        W26319   2.007  13.634  11.172 -0.2285 -0.2361  0.1464
 7466W        W26320  10.606   1.985  10.994  0.0212  0.2801 -0.2657
 7467W        W26321  10.524  13.878  15.427  0.1127 -0.3882 -0.2028
 7468W        W26322   7.187   6.600  12.320  0.1095  0.5071  0.1293
 7469W        W26323   0.335  10.178   0.847  0.0001 -0.1514 -0.2976
 7470W        W26324  15.884   1.466  12.966  0.1718 -0.1952  0.2059
 7471W        W26325   7.111   6.528   1.207  0.1092 -0.3134  0.1607
 7472W        W26326  13.636   7.789   4.513 -0.0876 -0.3137 -0.0046
 7473W        W26327   0.080   7.717   1.264 -0.2681  0.0375 -0.4057
 7474W        W26328   0.137  10.929  10.975 -0.0855  0.4569 -0.1864
 7475W        W26329   6.561  11.726  13.155 -0.3018  0.0480 -0.2398
 7476W        W26330  11.190   7.375  12.693 -0.0088 -0.3656 -0.1635
 7477W        W26331   5.858  16.106   1.408 -0.0521 -0.1340  0.0879
 7478W        W26332  12.231   5.293  13.772 -0.3096 -0.1237  0.1316
 7479W        W26333  15.473   2.913  14.043  0.2075  0.2739  0.1441
 7480W        W26334  17.459  14.497   4.787 -0.0153 -0.0485 -0.1277
 7481W        W26335  14.903   0.567  15.292 -0.0578 -0.2113  0.0617
 7482W        W26336   1.035   5.513  14.258  0.1969 -0.0713 -0.0298
 7483W        W26337   3.534  17.086   3.402 -0.1426  0.1113  0.1208
 7484W        W26338   3.246   6.263   3.542 -0.0183  0.2326 -0.1489
 7485W        W26339   8.266   3.016  13.111 -0.3800  0.0998 -0.0832
 7486W        W26340   9.471  16.550   3.642 -0.1476 -0.0394 -0.1592
 7487W        W26341  15.652   3.164  11.718 -0.0145 -0.2198 -0.1315
 7488W        W26342  17.018  10.551  12.296 -0.0777  0.2276 -0.0270
 7489W        W26343   3.552  10.337  15.163  0.0082 -0.3786 -0.1968
 7490W        W26344   0.214  15.805  11.751  0.1028  0.0904 -0.0472
 7491W        W26345  11.225   6.142  11.222 -0.0399  0.3616 -0.0378
 7492W        W26346  16.280   4.817   5.241  0.2848 -0.2752  0.1091
 7493W        W26347  13.798  17.624   5.573  0.2394  0.1674 -0.1913
 7494W        W26348  16.989   0.202   3.379  0.0103  0.1916  0.1195
 7495W        W26349   1.879   1.214  11.364 -0.2906 -0.0353 -0.2314
 7496W        W26350   3.969   9.281  14.235  0.0681 -0.0379  0.0858
 7497W        W26351  17.287   2.223  12.471  0.1111 -0.0094 -0.3291
 7498W        W26352  12.165  14.175  11.573 -0.1261  0.1014 -0.0710
 7499W        W26353  10.303  16.315  10.905  0.0478  0.1668 -0.3545
 7500W        W26354   3.736  12.447   2.129 -0.1728  0.2295  0.0586
 7501W        W26355  16.862  14.901   3.396  0.1172 -0.2764 -0.1872
 7502W        W26356  17.581  11.299  14.211  0.2631 -0.2669 -0.0270
 7503W        W26357  16.324  13.507  14.622  0.0216 -0.2696 -0.0844
 7504W        W26358   8.350   4.939  11.127 -0.1580  0.2442  0.1179
 7505W        W26359   4.636  10.331   3.353  0.1620  0.2083  0.1406
 7506W        W26360  12.411   7.080  13.100  0.0759 -0.0326 -0.1649
 7507W        W26361   0.083  17.124   3.889 -0.2893 -0.5106  0.2329
 7508W        W26362   0.418   9.475  15.021 -0.3403 -0.2978 -0.0418
 7509W        W26363   0.433   3.662   3.963 -0.0016 -0.1148 -0.2299
 7510W        W26364   1.401  12.217  11.584  0.1659  0.0252 -0.1258
 7511W        W26365  16.905   3.300  14.614  0.1021 -0.2444  0.0687
 7512W        W26366   6.771   7.611  13.675 -0.4139 -0.1287  0.2199
 7513W        W26367  10.483  13.467   4.309  0.0742  0.1830 -0.4347
 7514W        W26368  11.233  14.299   0.883  0.2531  0.1549  0.1293
 7515W        W26369   0.160   4.205  11.933 -0.1639  0.1984 -0.5018
 7516W        W26370   0.856  12.603  14.139  0.1037 -0.1673 -0.1539
 7517W        W26371  12.524  16.956  14.544  0.3896 -0.1604  0.3580
 7518W        W26372  16.372  11.835  15.302 -0.2248  0.1369  0.1253
 7519W        W26373  17.436  11.606   1.807  0.1724 -0.1233  0.2134
 7520W        W26374  10.377   2.998  12.356  0.1286  0.1344  0.2921
 7521W        W26375  15.590   6.403   2.264 -0.0025  0.3075  0.1165
 7522W        W26376   6.310   2.320  14.184 -0.2196 -0.1930  0.2478
 7523W        W26377   4.385   3.695  14.655 -0.2736 -0.0661 -0.0964
 7524W        W26378  16.526   1.876   3.869  0.2193  0.0118  0.1232
 7525W        W26379   1.799   0.687  10.769  0.0853 -0.2282 -0.1013
 7526W        W26380  18.405  16.141  11.788  0.0529 -0.1874  0.1802
 7527W        W26381   8.161   5.623  12.741 -0.1026 -0.2188 -0.2480
 7528W        W26382   3.457   7.777   2.608  0.2393 -0.2691  0.0871
 7529W        W26383   2.816  17.113   2.453  0.0360 -0.0234 -0.0579
 7530W        W26384   7.621  13.053   0.690  0.2516 -0.0876 -0.0809
 7531W        W26385   1.110   3.690  13.153  0.0145 -0.2549 -0.0945
 7532W        W26386   5.410   0.722  12.826 -0.0805 -0.1417  0.0561
 7533W        W26387   5.340  12.258  14.623  0.1272 -0.0136  0.1351
 7534W        W26388  15.508  18.201   1.865  0.2050 -0.0997 -0.1296
 7535W        W26389   0.036   0.556   5.397 -0.2829 -0.1289  0.1130
 7536W        W26390  13.996   3.886  11.700 -0.2704 -0.0304 -0.0954
 7537W        W26391   0.559   0.914  12.156 -0.5339  0.1467  0.1275
 7538W        W26392  13.880   4.239   3.310  0.3583 -0.1436  0.1008
 7539W        W26393  15.484   7.496   0.298 -0.2452 -0.0240  0.2668
 7540W        W26394  18.356   5.412  11.117 -0.0851  0.0564  0.1213
 7541W        W26395  16.012  13.754   1.896 -0.0057  0.2497  0.0901
 7542W        W26396  17.415   1.123  11.847 -0.1342  0.0502  0.0998
 7543W        W26397  14.717   8.915  12.193  0.1186  0.0569 -0.0813
 7544W        W26398  17.401  16.550  14.784  0.0111 -0.1703  0.0597
 7545W        W26399   1.202   2.926  12.585  0.3502  0.0169  0.1008
 7546W        W26400  12.893   3.739  13.240  0.0143  0.2545 -0.2321
 7547W        W26401   6.077   4.598  10.896  0.2122 -0.0634 -0.0472
 7548W        W26402   4.649   1.781  14.197 -0.0614 -0.1343 -0.0172
 7549W        W26403  16.633  13.315  11.188 -0.3699 -0.0106  0.0977
 7550W        W26404  14.747  13.029   1.435  0.1360 -0.0987 -0.0269
 7551W        W26405   0.974  13.784   2.123 -0.0345  0.0404  0.1861
 7552W        W26406   9.617  16.832  11.308  0.1820  0.2033  0.3312
 7553W        W26407   4.800   2.783  12.432 -0.1793 -0.1166 -0.0802
 7554W        W26408   4.414   2.374   5.875 -0.0165  0.0003  0.1167
 7555W        W26409   1.863  15.146   1.683 -0.0040  0.1079 -0.1979
 7556W        W26410   0.550   0.130  10.568  0.2321  0.1799 -0.0070
 7557W        W26411   3.035  17.004  14.537  0.1821  0.3770  0.0787
 7558W        W26412   7.039   3.027   3.993  0.1305 -0.1317  0.0644
 7559W        W26413  16.848  17.322  14.781 -0.4143  0.1049 -0.0212
 7560W        W26414   1.572  16.175  12.431  0.2292  0.0189 -0.0934
 7561W        W26415  10.974   2.838   2.033 -0.0225  0.0625  0.0325
 7562W        W26416  13.125  11.837   0.882 -0.0069 -0.2523 -0.2522
 7563W        W26417   1.989   2.668  12.337 -0.0306  0.2678 -0.0582
 7564W        W26418  11.640   5.794   0.539  0.3442  0.0667  0.0147
 7565W        W26419  11.596   1.021  12.379  0.0005  0.0044 -0.1628
 7566W        W26420   7.039  14.477  10.823  0.4729  0.0254 -0.1956
 7567W        W26421   4.237   6.195   2.755 -0.1243  0.0214 -0.0205
 7568W        W26422   4.310   6.645   3.733 -0.0987  0.1376  0.2248
 7569W        W26423   8.774  14.875  12.590 -0.1191 -0.0037 -0.1853
 7570W        W26424   6.895  17.932  15.240 -0.1311 -0.2645  0.2953
 7571W        W26425   2.506  10.749   3.553  0.0699 -0.4003  0.3849
 7572W        W26426   4.127   0.305  11.990  0.1016 -0.2045 -0.2336
 7573W        W26427  13.001   5.040  15.013 -0.3959 -0.0154  0.2300
 7574W        W26428   5.378   4.272   3.356 -0.1770  0.0041  0.1210
 7575W        W26429  18.424   7.555   3.295 -0.5800  0.2823  0.1623
 7576W        W26430  14.196   1.966  11.389  0.1375 -0.1114 -0.0716
 7577W        W26431   1.829   1.378   4.193  0.0990 -0.1541  0.0366
 7578W        W26432  10.884   4.428   1.524 -0.1478 -0.0252  0.0590
 7579W        W26433   5.125   5.490  12.363  0.0285 -0.0736 -0.0002
 7580W        W26434  11.860   0.480  12.308 -0.0877 -0.1636 -0.1603
 7581W        W26435   7.842   4.610   2.108 -0.0446  0.2683  0.0937
 7582W        W26436  11.670  18.063   1.457  0.1107 -0.0760 -0.0090
 7583W        W26437   1.086  17.210  13.963  0.2615 -0.1936 -0.0096
 7584W        W26438   5.867   7.320   2.142  0.2637  0.1562 -0.0173
 7585W        W26439  11.779   2.194   3.887 -0.2286 -0.0709 -0.0580
 7586W        W26440  16.776   9.412  13.013 -0.0574 -0.0264  0.0944
 7587W        W26441   7.956  14.187  11.646  0.1327  0.0591 -0.2590
 7588W        W26442  16.840   7.173  14.123 -0.3335  0.0395 -0.0976
 7589W        W26443  10.697  13.286  15.289 -0.2127 -0.0043 -0.2358
 7590W        W26444  14.037  10.765  14.398  0.0811 -0.0108  0.1626
 7591W        W26445   9.172   5.972  11.463  0.0806  0.0896 -0.0506
 7592W        W26446  16.158   6.036   2.001  0.1223  0.1805 -0.1439
 7593W        W26447   6.327  12.812  11.086 -0.1785 -0.2095 -0.0101
 7594W        W26448   7.704  16.071  12.456 -0.0986  0.2293 -0.1665
 7595W        W26449  15.370   7.520  15.253  0.0315 -0.0677  0.1587
 7596W        W26450   9.848  16.137   2.973 -0.0492 -0.0885  0.0572
 7597W        W26451   7.550  13.639  12.400 -0.0890  0.4211  0.0576
 7598W        W26452   7.924  16.298  14.747  0.1222  0.1232 -0.2323
 7599W        W26453   9.784  13.105  14.808 -0.0799  0.0371 -0.0243
 7600W        W26454  15.024   6.779   0.531  0.0128  0.1142  0.0381
 7601W        W26455  10.334  14.200   3.140 -0.0187  0.1414  0.1485
 7602W        W26456  11.373  15.408  13.609  0.1483  0.0557 -0.2976
 7603W        W26457   2.078   6.832   0.616 -0.1801 -0.0390  0.0386
 7604W        W26458  11.913   7.441   2.492 -0.3850  0.2706  0.0559
 7605W        W26459  16.532   4.492   3.299 -0.1967 -0.0012 -0.1595
 7606W        W26460  17.670   2.996  10.767  0.1313  0.1761 -0.0009
 7607W        W26461  12.458  16.488   1.875 -0.0777  0.0939 -0.1484
 7608W        W26462  14.509  15.228  15.332  0.0017  0.3590 -0.1115
 7609W        W26463  13.430   7.961  14.526  0.0334 -0.2472 -0.0445
 7610W        W26464  12.319   8.107  11.852  0.2360  0.0660 -0.1577
 7611W        W26465  12.592  10.739  14.063 -0.2338 -0.1958 -0.1070
 7612W        W26466   1.222   3.436   2.511  0.3208 -0.3355 -0.1587
 7613W        W26467  13.889  15.275   1.855 -0.0500  0.0880 -0.0256
 7614W        W26468   5.652  13.145  11.444  0.1489 -0.0709 -0.6272
 7615W        W26469   8.109  13.327   2.470  0.0535  0.0962 -0.1457
 7616W        W26470   5.406   3.387   0.729 -0.0204 -0.1190  0.1511
 7617W        W26471  16.492  15.932   4.312  0.0593  0.0234  0.0095
 7618W        W26472   1.326  15.226  10.737 -0.1742 -0.2028  0.0918
 7619W        W26473   2.858  10.788   3.919 -0.0510 -0.1477 -0.2520
 7620W        W26474  17.540   5.654  12.796 -0.0124  0.2018  0.2219
 7621W        W26475   2.122  11.073  11.603  0.0693 -0.2238 -0.0370
 7622W        W26476  13.842   1.265   0.739 -0.1344  0.0596 -0.1186
 7623W        W26477  17.983  17.518   4.436  0.1204  0.0967  0.1935
 7624W        W26478   2.687  17.650   4.377 -0.0512 -0.0596 -0.1738
 7625W        W26479  14.170  14.201   4.248  0.3896  0.3352  0.0037
 7626W        W26480  17.287  17.147   1.175  0.1755 -0.0613 -0.1432
 7627W        W26481   5.986   8.329  13.907 -0.0483  0.3346  0.0489
 7628W        W26482  16.131   5.256   0.870 -0.0918  0.0330  0.3476
 7629W        W26483   2.412  10.215  11.932  0.0887 -0.2066 -0.0985
 7630W        W26484   6.006  18.340   1.413  0.2730 -0.1041  0.0854
 7631W        W26485   6.865   3.513   2.235 -0.0612 -0.1225 -0.1891
 7632W        W26486   8.237   5.313   0.283  0.0598  0.1915 -0.3548
 7633W        W26487  13.087   7.390   4.495 -0.1212 -0.0411 -0.2734
 7634W        W26488   3.139   2.105  13.697 -0.3305  0.0891 -0.1466
 7635W        W26489   0.226   0.529   1.026 -0.1691  0.0369  0.1186
 7636W        W26490  10.671  17.729   3.840 -0.1012  0.0898  0.0873
 7637W        W26491  10.809   8.644   0.838 -0.1714 -0.0513  0.5688
 7638W        W26492   6.368  10.500   2.518 -0.2253 -0.0579 -0.2867
 7639W        W26493   5.233  13.371   4.355  0.1635 -0.0122  0.3068
 7640W        W26494  17.650  12.930   2.002  0.2229 -0.2330 -0.3290
 7641W        W26495   6.465  10.424  11.175 -0.4902 -0.1148 -0.1729
 7642W        W26496   2.984   6.467   9.888 -0.1301  0.0644  0.0733
 7643W        W26497   5.821  13.968   2.709 -0.3539  0.4518  0.0783
 7644W        W26498   8.496   9.211   3.366 -0.0297 -0.1085 -0.0014
 7645W        W26499  11.536  16.169   4.736  0.1202 -0.0845 -0.1189
 7646W        W26500   3.665   1.648  13.720 -0.1774 -0.1597 -0.2181
 7647W        W26501   1.025  10.660  14.998  0.1115  0.0881  0.0998
 7648W        W26502   7.694  14.111   2.579  0.1272 -0.1273  0.2222
 7649W        W26503  13.349  13.662   4.685  0.2994  0.1153  0.2764
 7650W        W26504  12.247  16.928  12.300 -0.0110  0.1704 -0.0972
 7651W        W26505   3.312  15.427  14.003 -0.1330 -0.1447 -0.0326
 7652W        W26506   4.192  10.094  11.023  0.1715  0.0433 -0.2075
 7653W        W26507   8.413   8.924   1.995 -0.2221 -0.1405  0.1966
 7654W        W26508  16.314   2.441  13.678 -0.2159 -0.0286  0.1382
 7655W        W26509  12.041  10.330   3.408 -0.0892  0.3618  0.2781
 7656W        W26510   8.461  13.089  12.265 -0.2379  0.0261 -0.1619
 7657W        W26511  13.675  12.428   0.547 -0.0612  0.0696 -0.0033
 7658W        W26512   8.921   4.891  11.993  0.0092 -0.0284  0.0033
 7659W        W26513  12.711   0.104  13.922 -0.0896  0.2029 -0.0885
 7660W        W26514  15.653  11.653   0.618  0.1879 -0.1594  0.2683
 7661W        W26515  10.798   9.411   2.155  0.1261 -0.3906 -0.1545
 7662W        W26516  15.129  17.327  13.513 -0.2316  0.2802 -0.0949
 7663W        W26517  17.234  12.640  14.023 -0.0316  0.1100  0.1591
 7664W        W26518  18.095   3.716  12.574 -0.2931 -0.0472 -0.0080
 7665W        W26519  12.774   0.637  13.158 -0.0192  0.0675 -0.0839
 7666W        W26520  10.762   5.749   2.053  0.1427  0.1423  0.1756
 7667W        W26521  18.309   1.341   2.666 -0.2038  0.2314 -0.0606
 7668W        W26522  10.675   1.320   3.198 -0.0909  0.1394 -0.1498
 7669W        W26523  17.937   0.322   0.211  0.3919  0.0355  0.0777
 7670W        W26524  13.062  16.263   0.241 -0.0228  0.0984  0.3097
 7671W        W26525  10.376  16.427   5.221 -0.2524  0.0673 -0.2401
 7672W        W26526  17.593  13.151   4.540  0.1888  0.0640  0.0163
 7673W        W26527   7.043   4.337  12.918 -0.2603 -0.3317  0.2466
 7674W        W26528   6.831   7.549   1.871 -0.2066 -0.1044  0.0453
 7675W        W26529   8.863  13.302  13.883 -0.2227 -0.0519  0.1042
 7676W        W26530   2.797  12.676   3.663 -0.2613 -0.0521 -0.2841
 7677W        W26531  13.774   0.384   2.266  0.0070 -0.0156 -0.0264
 7678W        W26532   6.835  16.263  13.119  0.1678 -0.0603  0.0725
 7679W        W26533   7.146  17.602   0.087  0.0324  0.1349 -0.0226
 7680W        W26534  16.193   2.422   2.095  0.0784  0.3842  0.1032
 7681W        W26535   4.844   8.233  11.351  0.0450 -0.3150  0.1147
 7682W        W26536   7.678  15.901  15.175  0.1088  0.0040 -0.0936
 7683W        W26537   2.187   9.379   1.513  0.2049  0.5148 -0.1106
 7684W        W26538  18.249   2.037   2.994 -0.0940 -0.0726 -0.0927
 7685W        W26539  15.684   1.552   3.927  0.2224  0.0599  0.2487
 7686W        W26540  12.105   0.484   2.864  0.0835  0.1057 -0.0517
 7687W        W26541   1.710  16.370   0.001  0.2799 -0.1192 -0.1318
 7688W        W26542   5.918  12.912   3.801 -0.1751  0.2995 -0.3128
 7689W        W26543   5.910   7.022   3.098 -0.0447  0.0151  0.1247
 7690W        W26544  16.232  15.410  11.329  0.2090 -0.2138  0.0496
 7691W        W26545  11.499  12.441  11.104  0.2369 -0.0763  0.2764
 7692W        W26546   7.012   4.229   3.461  0.2463  0.1978 -0.1521
 7693W        W26547   6.191   8.602   4.476  0.1308  0.0760 -0.0184
 7694W        W26548   0.955  12.766   1.582  0.1369 -0.3657  0.1822
 7695W        W26549   6.997  10.161   4.391 -0.2324 -0.2389  0.2105
 7696W        W26550   6.270  12.951  14.997 -0.2449  0.1824  0.0006
 7697W        W26551   1.031   7.896   2.790  0.0181  0.2152 -0.0361
 7698W        W26552   4.340  10.143  12.655  0.1574 -0.0282 -0.2206
 7699W        W26553   3.794   2.242   1.617 -0.1254 -0.3080 -0.0999
 7700W        W26554   3.481   1.774   3.060 -0.3782  0.1585  0.0191
 7701W        W26555   4.234  14.781  12.175  0.1527  0.0965 -0.0206
 7702W        W26556  11.027  15.275   4.739  0.0795  0.1260  0.1180
 7703W        W26557  16.651   3.221  13.116  0.3373  0.2479  0.3805
 7704W        W26558   2.006   9.216   1.042 -0.0238  0.0554  0.2645
 7705W        W26559  13.629   9.601  13.661  0.2402  0.0978  0.1412
 7706W        W26560  14.924  15.960  15.190 -0.1733 -0.0207 -0.0722
 7707W        W26561  11.369   0.655  12.075 -0.0976 -0.1272 -0.0026
 7708W        W26562   0.478   7.425  13.412 -0.3255 -0.2148 -0.2858
 7709W        W26563   5.277   3.150  14.321  0.0754  0.1495  0.5709
 7710W        W26564  17.762  12.760   0.118 -0.1349  0.2326  0.0121
 7711W        W26565   4.905  14.539   2.629  0.3425  0.1878 -0.3673
 7712W        W26566   3.991   7.578   2.659  0.1339 -0.1740 -0.0132
 7713W        W26567   8.661  10.106  14.300  0.1402 -0.3948 -0.0114
 7714W        W26568   9.530  17.333   2.202 -0.1896  0.1098 -0.1101
 7715W        W26569   2.501  16.826  13.837 -0.2718 -0.0978 -0.4471
 7716W        W26570   3.892  17.979   4.701  0.0944  0.1944 -0.2883
 7717W        W26571   4.587   3.762   3.637 -0.0295 -0.0773  0.3228
 7718W        W26572  17.567   6.067   3.866  0.0081  0.1448  0.0152
 7719W        W26573  16.095   0.302   0.602  0.1170 -0.0621  0.3551
 7720W        W26574   2.542   6.465  15.105  0.2686  0.0184  0.1600
 7721W        W26575  15.116  16.343   4.075  0.1279 -0.0058 -0.1337
 7722W        W26576   5.898   8.555  14.414 -0.0939 -0.0949 -0.1244
 7723W        W26577   6.791  14.666   2.803  0.0062  0.0033  0.0138
 7724W        W26578  15.542  17.879  14.578  0.0362  0.0819  0.1869
 7725W        W26579  10.645   5.724   3.640 -0.2549 -0.0067 -0.2436
 7726W        W26580  14.049  17.080  11.871  0.1037 -0.1992 -0.2248
 7727W        W26581   7.984  10.008   1.335 -0.2163 -0.3543  0.1169
 7728W        W26582  13.083   3.427   3.185 -0.0094  0.0152 -0.2475
 7729W        W26583  16.862  12.670   0.580  0.0136 -0.1898 -0.0247
 7730W        W26584   9.868   6.303   4.553 -0.2170  0.4908  0.2034
 7731W        W26585  15.594  17.530   3.048 -0.1306  0.0725 -0.1807
 7732W        W26586   0.187  18.078  12.184  0.0886  0.1515 -0.0697
 7733W        W26587  11.757  12.350   1.650  0.1919 -0.1531 -0.2209
 7734W        W26588  11.538  17.480  11.763  0.3371  0.1917 -0.0282
 7735W        W26589  15.251   9.823   2.562  0.3460  0.0846 -0.2721
 7736W        W26590   2.284   7.779  10.275 -0.1590 -0.2549 -0.2102
 7737W        W26591   2.453  11.437   0.452 -0.0353  0.1628 -0.0775
 7738W        W26592  13.081  10.446   3.728 -0.0039  0.2061 -0.1285
 7739W        W26593   1.345  18.558   2.463  0.3284  0.3035 -0.1666
 7740W        W26594   9.307   2.388   5.702 -0.0180 -0.2149  0.0344
 7741W        W26595   0.414  18.012  11.692 -0.1818  0.3364  0.1198
 7742W        W26596  17.867  18.282   1.304 -0.4130 -0.2083 -0.2444
 7743W        W26597  16.775  13.004   1.017 -0.1293 -0.1254 -0.0480
 7744W        W26598   7.037   5.194   0.050 -0.1558  0.0038 -0.0431
 7745W        W26599  15.683   5.555   2.737  0.2419  0.1426  0.1934
 7746W        W26600  14.641   8.677   3.029  0.1486 -0.1327 -0.0178
 7747W        W26601   5.295  17.409  10.671  0.0166  0.3922 -0.2848
 7748W        W26602  15.524  10.486  14.924 -0.0459 -0.5300  0.0771
 7749W        W26603  16.478  17.167   3.377  0.0364  0.0615  0.1572
 7750W        W26604   6.714   0.442   1.326  0.0896 -0.0609 -0.1704
 7751W        W26605  11.250   4.998  12.287  0.3554 -0.2450  0.1895
 7752W        W26606  12.195   1.117   5.162 -0.0160  0.4086  0.1857
 7753W        W26607   8.828   5.279  14.001  0.0231  0.1410  0.0387
 7754W        W26608   2.644   9.822   9.926  0.2099  0.0377 -0.0247
 7755W        W26609  12.909  14.387   1.784  0.0101 -0.1265 -0.0360
 7756W        W26610  16.745  16.621   4.183  0.3542 -0.0812  0.0603
 7757W        W26611   9.139  12.732   3.422  0.0862  0.1590  0.0930
 7758W        W26612  11.602   7.540  11.820 -0.0198 -0.1581 -0.2092
 7759W        W26613   4.333   4.537  10.659  0.2115 -0.0182 -0.4844
 7760W        W26614  13.224   9.612  11.430  0.2039 -0.1311 -0.2472
 7761W        W26615   3.658  10.685  11.531 -0.0867 -0.0574  0.3166
 7762W        W26616  14.327   8.915  14.298  0.2970  0.0834 -0.0503
 7763W        W26617  10.931   7.655  12.341 -0.1617  0.0096 -0.2401
 7764W        W26618   6.397  13.068  12.036  0.1140  0.4131 -0.1656
 7765W        W26619   5.281  15.169   2.090  0.3035  0.0468 -0.1204
 7766W        W26620  15.723  15.260   2.668  0.1998  0.3325 -0.0573
 7767W        W26621   2.792  14.006   1.255  0.3887 -0.0351 -0.0810
 7768W        W26622  10.512   0.688  12.704 -0.1955 -0.2051 -0.4235
 7769W        W26623   0.604   4.151   3.521 -0.1387 -0.3030 -0.1527
 7770W        W26624   1.092   5.730   2.761  0.1018 -0.2443 -0.0794
 7771W        W26625  12.388   1.264   0.088  0.2346  0.1026  0.0964
 7772W        W26626   3.425  18.323   4.642 -0.4109 -0.0564 -0.0278
 7773W        W26627   4.679   3.712  14.151 -0.2753 -0.1024 -0.1645
 7774W        W26628  16.511  11.935   4.757  0.0397  0.1468  0.0719
 7775W        W26629   5.891  15.647  11.455  0.0779 -0.0476  0.0801
 7776W        W26630   0.722   8.097   2.407  0.1146  0.3594 -0.2472
 7777W        W26631   8.593  10.168   2.736  0.1111  0.2342 -0.0934
 7778W        W26632  14.315  17.289  12.698 -0.1097 -0.0215  0.1141
 7779W        W26633   3.551   9.616   3.668  0.1230  0.1836  0.0239
 7780W        W26634   7.997   3.233  12.163 -0.1571  0.1863  0.2193
 7781W        W26635   9.957   5.660   0.953 -0.2081  0.0045  0.1082
 7782W        W26636  18.491  15.852   3.564  0.0323 -0.0793 -0.1889
 7783W        W26637  13.299  17.925   3.005 -0.0645 -0.1354  0.0414
 7784W        W26638   2.306   4.394  12.750  0.1680  0.4865  0.0725
 7785W        W26639  18.517   8.062   4.150 -0.0156 -0.0055 -0.0753
 7786W        W26640   3.548  15.004  13.883  0.0384  0.1279  0.0825
 7787W        W26641   5.947  11.048  11.753 -0.2911  0.2730  0.0081
 7788W        W26642   0.782   4.340   0.858 -0.3048  0.2047 -0.2946
 7789W        W26643   2.015  16.331  10.901  0.3666 -0.0994  0.1101
 7790W        W26644   2.416  15.286  11.251  0.1571 -0.3433  0.2513
 7791W        W26645  13.296  10.749   2.949  0.1203 -0.1744 -0.0262
 7792W        W26646   3.626   7.511  12.443  0.1666  0.0162 -0.1157
 7793W        W26647   0.923   8.640  15.025  0.2142  0.0581  0.2415
 7794W        W26648   7.689  18.111  11.119  0.2691  0.3376  0.0002
 7795W        W26649   0.062   9.055  11.693  0.2825  0.0460 -0.3426
 7796W        W26650  13.723   1.896  12.976 -0.1488  0.0749  0.4562
 7797W        W26651   3.363   5.020   1.242  0.3269  0.2738  0.0935
 7798W        W26652   2.146   4.273  10.476 -0.3840  0.1863  0.1029
 7799W        W26653  15.673   2.550   3.614  0.0722 -0.1038  0.2097
 7800W        W26654  10.090  13.953   4.910  0.0989 -0.1854  0.0383
 7801W        W26655   5.805   5.436  15.025 -0.2028  0.0285  0.0551
 7802W        W26656   1.849  12.774   0.474 -0.1463  0.0534  0.0502
 7803W        W26657   8.445   6.178  11.748  0.0986 -0.0469  0.0910
 7804W        W26658   4.681  15.829  13.476 -0.0930 -0.3135 -0.1296
 7805W        W26659   5.166   2.179   1.229  0.0847  0.2979 -0.1564
 7806W        W26660  12.772  10.627   0.967 -0.2652 -0.1568 -0.2476
 7807W        W26661  12.353   0.645   3.386 -0.3208 -0.3109 -0.1519
 7808W        W26662  11.729  11.135   1.141 -0.0711  0.2788 -0.1523
 7809W        W26663  11.567  11.616  13.596 -0.2136  0.1460  0.0529
 7810W        W26664  11.609  18.456   3.281 -0.1668 -0.0468 -0.0582
 7811W        W26665   1.610   6.270  15.280  0.0531  0.2692 -0.3098
 7812W        W26666   7.834   0.220   0.963  0.1659  0.1015 -0.0533
 7813W        W26667   1.872   2.993  11.173 -0.0468  0.0715 -0.3689
 7814W        W26668   2.120   7.003  11.299  0.1477  0.0591 -0.1365
 7815W        W26669   0.105   6.275   0.669  0.1540  0.0254 -0.2743
 7816W        W26670   2.732  14.565  10.848 -0.1059  0.0682 -0.0857
 7817W        W26671  13.673   2.753  13.552 -0.1297  0.1768  0.0875
 7818W        W26672   2.016   8.669   2.576  0.0386  0.1548  0.0321
 7819W        W26673  17.038  16.339  12.060  0.3266 -0.0385 -0.1566
 7820W        W26674   6.983  17.863  11.494  0.1793 -0.0603  0.2980
 7821W        W26675   5.024  14.368   3.129  0.0371 -0.1087  0.0376
 7822W        W26676   0.275   2.522  12.478 -0.1324  0.0530  0.0225
 7823W        W26677   6.423  10.810  10.888  0.2572  0.0948 -0.0919
 7824W        W26678   9.283  13.908   0.823 -0.0679  0.1046 -0.0247
 7825W        W26679  10.230  13.342  13.957 -0.2000  0.0574 -0.1168
 7826W        W26680   4.826   2.804   1.401 -0.1293  0.0593  0.2688
 7827W        W26681  13.173   3.315   0.741  0.1432  0.1929  0.0479
 7828W        W26682   9.624   3.618   5.733  0.3262 -0.0243 -0.0554
 7829W        W26683   8.924   0.137   5.777  0.4664 -0.3343  0.0881
 7830W        W26684   3.170   9.351  12.925 -0.1859  0.2205 -0.0156
 7831W        W26685   8.581  13.465   5.804  0.1054 -0.0592  0.1504
 7832W        W26686   1.649   4.687   3.042 -0.0966  0.3467 -0.2565
 7833W        W26687  15.090  14.628   0.443  0.1239  0.1549  0.0612
 7834W        W26688  11.064  18.493  14.535  0.3442  0.2556 -0.1230
 7835W        W26689  15.375   5.247  15.451 -0.0010 -0.3809 -0.1957
 7836W        W26690  15.941  13.675   0.092  0.0568  0.1010  0.1712
 7837W        W26691   7.416   9.119   3.493  0.2741 -0.2418 -0.0442
 7838W        W26692  13.232   8.220  11.834  0.0986  0.0371  0.2038
 7839W        W26693  17.436  13.682  12.087  0.3262  0.2741  0.1060
 7840W        W26694  16.906  13.018  13.023 -0.4047 -0.0273  0.1659
 7841W        W26695  17.688   7.260  11.469  0.0452 -0.0253  0.0154
 7842W        W26696   3.973   3.243  11.004 -0.1075 -0.0264 -0.1284
 7843W        W26697   3.965   0.500   2.279  0.0079 -0.1272  0.2274
 7844W        W26698   7.930  14.622   3.199  0.0812 -0.2451  0.1847
 7845W        W26699   4.174   1.325   4.814 -0.1138 -0.0810  0.1446
 7846W        W26700  17.671   5.122   4.522  0.0447 -0.2002 -0.0227
 7847W        W26701  12.154   9.641  13.017 -0.0584  0.1525 -0.0932
 7848W        W26702   3.746  11.951   3.164 -0.0883 -0.0359  0.1225
 7849W        W26703  11.374   9.496  14.244  0.2221 -0.0875 -0.2305
 7850W        W26704   8.477   4.161   3.025 -0.0993  0.1984  0.1867
 7851W        W26705  16.313  11.348   2.603 -0.1414  0.0847 -0.1228
 7852W        W26706   8.854  10.792  14.204 -0.2488 -0.0068 -0.1002
 7853W        W26707   5.862   5.934  15.311  0.2469 -0.0149  0.3324
 7854W        W26708   1.582   3.567   2.914 -0.0141 -0.0099  0.1326
 7855W        W26709  13.680  17.750   0.455  0.1766 -0.3846 -0.0068
 7856W        W26710  16.332   2.260  12.874 -0.1422 -0.0063 -0.1917
 7857W        W26711  10.569   0.820   4.497  0.0547  0.2261  0.1253
 7858W        W26712  17.395  10.707   0.854  0.0778 -0.0433  0.0154
 7859W        W26713   1.536  12.270  13.894  0.0473  0.1254  0.5992
 7860W        W26714  14.124   1.079   1.688 -0.1408  0.0643 -0.3192
 7861W        W26715   5.616   0.729  11.265  0.1706  0.1809  0.1556
 7862W        W26716   4.806  11.154   1.302 -0.2688 -0.0832 -0.2336
 7863W        W26717  12.423   2.960   5.322  0.2034  0.2612 -0.0761
 7864W        W26718  13.483  15.477  14.049 -0.3622 -0.2620  0.0663
 7865W        W26719   9.975  13.681   0.291  0.0918  0.2653 -0.0196
 7866W        W26720   3.593   3.432  13.541 -0.0556  0.3197  0.0113
 7867W        W26721   7.450   8.387  13.441  0.3617 -0.0314 -0.3226
 7868W        W26722   6.955   4.371  12.398  0.1113  0.0170 -0.0167
 7869W        W26723   2.054  10.328   1.188 -0.1994 -0.2808 -0.1393
 7870W        W26724  17.533  15.958   4.011 -0.1130  0.0789  0.2072
 7871W        W26725   9.772  11.110  14.320  0.0476 -0.1036 -0.2644
 7872W        W26726   2.622  15.706  10.762  0.2372 -0.1171  0.1657
 7873W        W26727  11.375   0.559  12.540 -0.4078 -0.2759  0.3146
 7874W        W26728  17.504  17.753  12.094 -0.1871  0.0851  0.0550
 7875W        W26729   0.311  14.285   3.868  0.0231 -0.1564 -0.2520
 7876W        W26730   8.672   4.762  12.574 -0.1610 -0.1670  0.0891
 7877W        W26731   7.366   5.622  14.656 -0.1104  0.0810  0.1303
 7878W        W26732  15.792  16.891   0.341 -0.2807  0.1267  0.0351
 7879W        W26733   7.054   5.695  13.912 -0.0277 -0.3863 -0.3397
 7880W        W26734   1.475   1.410  12.994 -0.0107  0.0097  0.3882
 7881W        W26735  13.592  11.857   4.805 -0.1814  0.2269 -0.1019
 7882W        W26736  12.848  11.900   3.457  0.2675  0.0715  0.0427
 7883W        W26737  16.959  18.324   1.481 -0.1590  0.2316  0.1796
 7884W        W26738   4.726  11.584  13.187 -0.1764 -0.1669  0.0401
 7885W        W26739  10.194   7.684   3.114  0.0323 -0.0429 -0.1750
 7886W        W26740   5.512  16.368   1.093  0.1896  0.0578 -0.1968
 7887W        W26741   3.016   3.692  14.800 -0.1989 -0.1225  0.0434
 7888W        W26742   8.023  15.193  11.542 -0.1281  0.3066  0.3802
 7889W        W26743   4.937  10.651  12.163  0.0214  0.2743 -0.1752
 7890W        W26744   8.114   9.638   3.441 -0.1667  0.0261  0.2932
 7891W        W26745  11.946  16.072   4.454  0.0282 -0.4584 -0.0652
 7892W        W26746   6.159   1.710   1.209  0.2279 -0.3024  0.1342
 7893W        W26747   1.704   3.127  15.032 -0.1767 -0.0577 -0.0696
 7894W        W26748  18.222  10.779  14.918  0.1092  0.1064 -0.1046
 7895W        W26749   6.753   5.379  13.443  0.0187 -0.4033  0.3882
 7896W        W26750  13.070  15.484   4.403  0.2373 -0.3444 -0.0366
 7897W        W26751  13.000   6.066  11.193 -0.0796  0.0184 -0.3615
 7898W        W26752  15.695  13.324  10.561 -0.0141 -0.0828 -0.0675
 7899W        W26753  13.704  10.709  12.040  0.0472  0.2200 -0.0761
 7900W        W26754  10.934  15.850  13.114  0.0897 -0.0511  0.1032
 7901W        W26755  11.821   7.181   2.959  0.3020  0.2788  0.0755
 7902W        W26756  10.544  16.606  14.255  0.2339  0.2219  0.1059
 7903W        W26757  10.780   6.131  12.433  0.2490  0.0304 -0.0193
 7904W        W26758  16.625   2.326  10.066 -0.2995 -0.2211 -0.0414
 7905W        W26759  17.893  16.071  14.962  0.3342  0.0438 -0.2246
 7906W        W26760   4.970  10.029  10.957 -0.0121  0.2224  0.0830
 7907W        W26761   5.218   3.140   9.977  0.1120 -0.0348  0.0014
 7908W        W26762   1.214   6.041   0.517  0.2802  0.0546 -0.0977
 7909W        W26763   4.676  18.126  12.588  0.0323 -0.1256 -0.1117
 7910W        W26764  13.935  17.474   0.847  0.0442  0.3480  0.0560
 7911W        W26765   6.677  12.758  13.928 -0.0016 -0.1713 -0.0876
 7912W        W26766   9.951  16.476   3.343 -0.2614  0.1038 -0.0089
 7913W        W26767   0.340  10.692  11.741  0.1755  0.1804 -0.0840
 7914W        W26768  16.837  14.216   2.593 -0.2383 -0.2713 -0.1440
 7915W        W26769  15.658   5.541   0.800 -0.0523  0.2489 -0.1560
 7916W        W26770  10.234  11.464  14.529  0.2813  0.2342  0.3070
 7917W        W26771   9.961   8.831  12.576  0.1979 -0.2552 -0.4287
 7918W        W26772  10.664  14.791   3.120 -0.2697  0.0777  0.0713
 7919W        W26773  13.545   8.340   1.358  0.0123  0.1345  0.0618
 7920W        W26774  13.552  17.618   2.631 -0.0957  0.0101  0.0952
 7921W        W26775  11.501   8.590  14.669 -0.0334 -0.0660  0.1538
 7922W        W26776   5.858  17.744   2.937  0.1053  0.0258 -0.0492
 7923W        W26777   6.418   2.154  15.165  0.0753  0.1560 -0.3857
 7924W        W26778  14.232  16.185  10.755 -0.1160  0.3540  0.1231
 7925W        W26779   3.415   1.599  11.585  0.3672 -0.1164  0.1674
 7926W        W26780   2.620   8.827  15.045 -0.1964  0.1622 -0.1079
 7927W        W26781   4.514  14.812  13.582  0.1458  0.0160  0.3575
 7928W        W26782  17.280  12.291   4.431  0.0807  0.0703  0.1845
 7929W        W26783  13.723   3.577  12.544  0.3535 -0.0528  0.1250
 7930W        W26784   4.094   6.843  14.065 -0.0332 -0.0672 -0.0118
 7931W        W26785   3.286  15.315  10.921 -0.0174  0.1289  0.2548
 7932W        W26786  15.045  15.931   3.825 -0.3688  0.1859  0.1535
 7933W        W26787   6.931  11.758   3.578 -0.3255 -0.1964  0.1748
 7934W        W26788  10.183  10.377  14.951 -0.0461 -0.2646  0.1534
 7935W        W26789   0.768  17.863   0.415  0.1392  0.0785 -0.0859
 7936W        W26790  18.226  14.718   3.164  0.0464 -0.2141 -0.2527
 7937W        W26791  11.616  11.401   2.927 -0.0300  0.1588  0.0459
 7938W        W26792  13.833   6.783  12.015 -0.2975 -0.0461  0.0104
 7939W        W26793  13.843   6.495  11.547 -0.0463  0.1509 -0.1733
 7940W        W26794   3.578  11.291  15.196 -0.2886  0.0455  0.2159
 7941W        W26795  15.272  11.796   1.090  0.0004  0.0641  0.1539
 7942W        W26796   9.430   6.500  14.133  0.1074  0.1103  0.1104
 7943W        W26797   3.108   8.000  11.159  0.0619  0.1470 -0.1194
 7944W        W26798   5.736  16.369  14.291 -0.0605 -0.1884 -0.2822
 7945W        W26799   1.658   5.032  11.901 -0.0582 -0.0933  0.0138
 7946W        W26800   2.789  12.115   1.082 -0.3136  0.0277 -0.0584
 7947W        W26801  11.543  12.982   1.331 -0.1636 -0.0535  0.2271
 7948W        W26802   6.607   7.212  13.903 -0.0618 -0.0032 -0.1318
 7949W        W26803   6.637   2.026   2.379  0.0745 -0.1540  0.0440
 7950W        W26804  13.549   5.548  13.913 -0.0596 -0.0400  0.0046
 7951W        W26805  15.917   1.915  11.065 -0.0176  0.1307 -0.2418
 7952W        W26806  12.309  17.666  15.313  0.0162  0.3042 -0.0286
 7953W        W26807   7.056   1.443   2.879 -0.0381 -0.1335 -0.1205
 7954W        W26808   5.161  12.947   1.727  0.0159 -0.2193 -0.0051
 7955W        W26809  16.984  15.608  15.300  0.3370 -0.2406 -0.2264
 7956W        W26810  16.595  12.752  14.706 -0.0134  0.0785 -0.0602
 7957W        W26811  14.460  16.075  13.345 -0.0363  0.2236 -0.1988
 7958W        W26812  17.784  17.393  14.656  0.2387 -0.0545  0.0766
 7959W        W26813  13.948  18.255   3.308 -0.2821 -0.3743 -0.2328
 7960W        W26814   8.474   3.831  12.421 -0.1749  0.0064  0.1705
 7961W        W26815   9.089  13.744   3.426  0.0007  0.3818  0.0088
 7962W        W26816  10.654   6.648  11.618  0.0400  0.0024  0.0942
 7963W        W26817  13.921   6.959  11.120  0.0158 -0.0668 -0.0565
 7964W        W26818   1.253   3.144  10.801 -0.1754  0.1431 -0.0825
 7965W        W26819  13.025   0.859   0.480  0.4037  0.2648 -0.0900
 7966W        W26820   7.029  17.791  14.453 -0.4523 -0.0922 -0.0681
 7967W        W26821   1.526  15.156  15.276  0.3116  0.3294  0.1953
 7968W        W26822   5.584  17.195  13.195 -0.0004  0.1009  0.1103
 7969W        W26823   2.334  14.859   3.619  0.1819  0.2625  0.1946
 7970W        W26824   6.057   9.498   1.438 -0.1725 -0.2311 -0.0677
 7971W        W26825   8.326   1.892   0.378 -0.0911 -0.0045 -0.0602
 7972W        W26826  11.870   1.941  12.287 -0.0652  0.0008 -0.0903
 7973W        W26827   8.076  11.296   3.390  0.2047  0.1550  0.0470
 7974W        W26828   7.919  16.896  13.473 -0.1360 -0.1706 -0.0298
 7975W        W26829   0.071  16.036   2.433 -0.1113  0.2121  0.0398
 7976W        W26830  12.873  15.193   5.566  0.0393 -0.0057  0.3055
 7977W        W26831  16.590   6.057  12.822  0.0447 -0.1578  0.1086
 7978W        W26832   3.711   1.475  12.811  0.0926 -0.1280  0.3315
 7979W        W26833   6.963  14.750  14.935  0.0363  0.0077  0.3178
 7980W        W26834   8.169   2.347   4.290 -0.2896 -0.1845 -0.0356
 7981W        W26835   9.724   9.015  12.105 -0.0401  0.3370 -0.0434
 7982W        W26836   1.845   9.364   0.115 -0.2005  0.0413 -0.0247
 7983W        W26837  16.794   5.983   0.900  0.0007 -0.0669  0.0878
 7984W        W26838   5.227   9.430   4.220 -0.1381  0.0110 -0.0472
 7985W        W26839  10.779   5.440   2.424 -0.0238 -0.0959 -0.0757
 7986W        W26840   9.070   7.998   4.549  0.1139 -0.1495 -0.4788
 7987W        W26841  13.873  15.197   2.373 -0.2057 -0.0684  0.0341
 7988W        W26842   1.628  10.075   1.119  0.2038  0.0139  0.0990
 7989W        W26843   0.646  13.623  11.333 -0.1580 -0.0925  0.0627
 7990W        W26844  17.646  18.566  12.968 -0.4283  0.1873  0.1408
 7991W        W26845   0.793   3.175  14.896 -0.1941 -0.3184 -0.1227
 7992W        W26846  15.673   8.941   0.470 -0.2726  0.2309  0.0029
 7993W        W26847   5.736   0.650   1.050  0.1524  0.1886 -0.0562
 7994W        W26848  11.194  17.254  13.845  0.2913  0.1808  0.1201
 7995W        W26849  16.048   5.924  13.399  0.2478  0.0152  0.0075
 7996W        W26850   7.256   0.230  12.020 -0.0853 -0.2000  0.2362
 7997W        W26851   0.415   9.893  14.766  0.1842  0.0083  0.1188
 7998W        W26852  17.681  11.404   3.174 -0.1806 -0.0093 -0.0689
 7999W        W26853  15.552   0.716  12.518 -0.0109 -0.0848  0.0082
 8000W        W26854  16.277  18.571  15.305 -0.3799 -0.1825 -0.1521
 8001W        W26855  12.097  17.361  13.589  0.1480  0.1009  0.1210
 8002W        W26856   3.610   2.061   2.009  0.1339  0.0406  0.0187
 8003W        W26857   6.004   4.301   0.775  0.1775  0.1168  0.3653
 8004W        W26858  11.196   4.042   1.219  0.0725 -0.0303 -0.1818
 8005W        W26859  15.571   6.395   1.265 -0.1465 -0.0719  0.2468
 8006W        W26860  18.073   3.443  13.227 -0.2459 -0.4039 -0.0469
 8007W        W26861   2.928   8.881   3.408  0.0258  0.3708 -0.0571
 8008W        W26862   3.219  17.852  14.391 -0.0931  0.2096 -0.0487
 8009W        W26863   9.690  17.199  14.451  0.0309 -0.3393 -0.0621
 8010W        W26864  12.424  10.722   2.104  0.0305 -0.1371 -0.3051
 8011W        W26865  14.048   0.879   3.160  0.1862  0.0275  0.0820
 8012W        W26866  13.263  15.969  14.802 -0.1276  0.1153  0.0269
 8013W        W26867   7.545   8.342   0.976  0.1688  0.1947 -0.2906
 8014W        W26868   4.164   9.854   0.506  0.0576  0.0103  0.3542
 8015W        W26869   1.104   1.245  10.893  0.2071  0.1707 -0.0916
 8016W        W26870  15.257  10.109  15.118 -0.0072 -0.2928 -0.0521
 8017W        W26871  12.610   8.664   2.739  0.1601  0.2297  0.2009
 8018W        W26872  13.840  13.290   3.359 -0.0164 -0.0972 -0.1993
 8019W        W26873  10.030  11.377   4.574  0.2159  0.0317 -0.2561
 8020W        W26874  10.565  11.721   2.616  0.0011 -0.2526  0.1365
 8021W        W26875  11.052   0.272   0.692 -0.0034 -0.1001  0.2175
 8022W        W26876   2.217   9.165   0.489 -0.0947  0.0077 -0.0421
 8023W        W26877   4.448   0.875   1.764  0.4050 -0.0872 -0.2095
 8024W        W26878  14.275  15.069  14.508 -0.2030 -0.1641  0.1679
 8025W        W26879  17.959  17.776  13.709 -0.0266  0.0514 -0.2577
 8026W        W26880  14.154  14.549  14.734  0.1192  0.0732 -0.0299
 8027W        W26881  16.863  14.641  15.359  0.2937 -0.0545 -0.0789
 8028W        W26882  17.460   5.215   2.354 -0.0313  0.0657  0.0144
 8029W        W26883  12.885   1.890   3.125  0.1099  0.2315  0.0240
 8030W        W26884   8.470   5.494   5.536 -0.2821  0.0094 -0.2414
 8031W        W26885   0.345  13.024   0.788  0.0833 -0.1854  0.1071
 8032W        W26886   7.605  11.472   1.970  0.2793 -0.0101  0.2325
 8033W        W26887   4.905   5.004  15.108 -0.1637  0.2034 -0.0474
 8034W        W26888  11.994  13.198  14.858 -0.2332 -0.0308 -0.1075
 8035W        W26889   2.695  16.975  10.989 -0.0587  0.2783 -0.1912
 8036W        W26890  18.244  11.273   1.209  0.0770  0.2515  0.1114
 8037W        W26891   4.514  11.615  13.999 -0.3603  0.1692  0.1324
 8038W        W26892   6.186   1.637   3.907 -0.0242 -0.2915  0.0108
 8039W        W26893   2.729  10.552   2.063 -0.1698  0.1196 -0.0522
 8040W        W26894   4.429   6.385  12.821 -0.0944 -0.0085 -0.1728
 8041W        W26895   6.109  10.980   0.137  0.1546 -0.1049  0.0115
 8042W        W26896  15.676   5.197  11.820  0.1349  0.0022  0.2279
 8043W        W26897   8.753  16.863  11.590  0.1996 -0.1390  0.1789
 8044W        W26898   5.714  12.466  11.932  0.2536 -0.1253  0.3049
 8045W        W26899   7.202   0.178   2.747  0.0761  0.0283  0.0476
 8046W        W26900   0.500  18.507   2.994 -0.1183  0.0203  0.1201
 8047W        W26901   0.287   5.475  13.391  0.1569 -0.3910 -0.0250
 8048W        W26902   1.948   1.717  11.269  0.1625  0.2583  0.4620
 8049W        W26903   5.366  15.928  12.767 -0.0268  0.1429 -0.1297
 8050W        W26904   1.794  15.992  10.448  0.0789  0.0307  0.1548
 8051W        W26905   7.774   8.125   2.058 -0.0190 -0.1492  0.0457
 8052W        W26906  15.106  17.491  13.986  0.3332 -0.0216  0.1861
 8053W        W26907  12.425   1.756  11.651 -0.1533 -0.1295 -0.1378
 8054W        W26908  10.611   6.880  13.532  0.0840  0.1738  0.2792
 8055W        W26909  14.999  11.592  12.076  0.0222 -0.0180  0.1125
 8056W        W26910   6.700  13.748   0.690  0.1104 -0.2369  0.1722
 8057W        W26911   9.713   6.308   0.227 -0.2344 -0.4005  0.1360
 8058W        W26912  11.707  18.491  10.090  0.3202 -0.0431  0.0616
 8059W        W26913   2.313   8.491   3.007  0.0641 -0.3118  0.3251
 8060W        W26914   1.223  12.519   1.969  0.0849  0.2538 -0.0996
 8061W        W26915  17.137   2.705  11.912  0.1856  0.4461  0.1012
 8062W        W26916  14.293  13.208  11.376  0.0027  0.0298  0.0310
 8063W        W26917   0.576   2.758  14.646  0.1626  0.1113 -0.0322
 8064W        W26918  15.929   7.118  11.803  0.2905  0.4113  0.0137
 8065W        W26919   3.722   2.318  12.069  0.0025  0.0484 -0.0442
 8066W        W26920   5.273   5.432   1.321 -0.2839 -0.3613 -0.3326
 8067W        W26921   5.251   2.667   2.395 -0.1674 -0.1157  0.0776
 8068W        W26922   5.960   1.897  11.882  0.1995 -0.2840 -0.2514
 8069W        W26923   2.538  13.066   2.706  0.2535  0.1059  0.2270
 8070W        W26924  15.342  11.441  15.187 -0.1204  0.0319  0.0950
 8071W        W26925   0.990   9.766  14.045 -0.0069 -0.2223  0.0953
 8072W        W26926  12.582   4.183   0.593  0.0292  0.1851  0.1384
 8073W        W26927  14.354   6.432  10.170  0.2101 -0.0115  0.0254
 8074W        W26928   3.010   2.326   0.570  0.0334  0.0445 -0.0714
 8075W        W26929  14.934  10.561  11.987 -0.0129 -0.0025 -0.0582
 8076W        W26930  18.333   5.945  14.038 -0.4452  0.1069 -0.1531
 8077W        W26931   3.898   8.003   1.716  0.3252  0.0747  0.0551
 8078W        W26932   2.008  14.030   3.254  0.2076 -0.0861 -0.1059
 8079W        W26933   5.413   6.944   0.474  0.0702 -0.1503  0.0891
 8080W        W26934   1.006   4.791   1.740 -0.0590  0.0620 -0.0560
 8081W        W26935  11.830   5.271   0.168 -0.4413  0.1340  0.2460
 8082W        W26936   3.146  13.952  15.393 -0.3739  0.1276 -0.0157
 8083W        W26937  10.105   9.276   3.670  0.1347  0.1854 -0.4854
 8084W        W26938  14.474   3.505  13.364  0.1683 -0.3669  0.0722
 8085W        W26939  16.954   6.101   2.233  0.1721 -0.1938  0.1149
 8086W        W26940  16.170  16.927  12.162  0.3476  0.1275  0.3201
 8087W        W26941  15.359  18.286  15.322 -0.1987 -0.0065  0.2178
 8088W        W26942   2.344   6.220  13.250 -0.1498 -0.5845 -0.3029
 8089W        W26943   9.216  11.180  12.315  0.3226 -0.1028  0.1434
 8090W        W26944  10.692   6.919   3.028 -0.0624  0.2998 -0.0453
 8091W        W26945   0.810  18.408   0.093 -0.0035 -0.3912 -0.0294
 8092W        W26946   7.486   8.776   2.919  0.0596  0.0079  0.1236
 8093W        W26947  15.210   3.585  14.667 -0.0806  0.0131  0.3444
 8094W        W26948  11.117  18.516   3.189 -0.0527  0.2470 -0.2764
 8095W        W26949  15.443  13.201  11.961  0.1101 -0.0505 -0.1948
 8096W        W26950   6.143  11.291  14.733  0.1370  0.0926 -0.1443
 8097W        W26951   0.776   9.720   2.245 -0.1925 -0.1237  0.0040
 8098W        W26952  18.511  12.724  11.198  0.1279 -0.3660 -0.0379
 8099W        W26953   0.916  15.548  14.645  0.1290 -0.0652  0.3631
 8100W        W26954  13.850   3.015  14.118 -0.1004 -0.0949  0.1365
 8101W        W26955  17.063   9.803   3.447  0.1146  0.0814  0.1425
 8102W        W26956   1.004   4.327   1.342 -0.0052  0.3535  0.0031
 8103W        W26957   4.190  10.860  12.336  0.1875  0.1686 -0.1732
 8104W        W26958  17.381  14.243   0.684 -0.0852 -0.1630  0.0231
 8105W        W26959  17.661  17.829   2.940  0.2227  0.2238 -0.1700
 8106W        W26960  17.078   7.249   4.230  0.0671  0.1419  0.0393
 8107W        W26961   1.735   5.251   3.671  0.1664  0.0910 -0.3256
 8108W        W26962  17.212  14.914   1.841 -0.1302 -0.0784  0.1452
 8109W        W26963  16.233  18.469   0.337 -0.0996 -0.0714 -0.0849
 8110W        W26964  11.412  12.682  11.546  0.0817 -0.1499  0.1555
 8111W        W26965   0.380   4.974  13.099 -0.0274  0.1348 -0.0273
 8112W        W26966  12.188  18.305  11.399  0.2878 -0.1955  0.2104
 8113W        W26967  11.137   5.498  15.143 -0.3256 -0.0413  0.0948
 8114W        W26968  16.220   4.140  12.712  0.1020  0.2148  0.2374
 8115W        W26969   9.757   5.927  12.348  0.0710 -0.1058 -0.0678
 8116W        W26970   2.941   6.487  14.581  0.0099 -0.0419  0.1627
 8117W        W26971  10.331  16.888   3.724 -0.1635  0.0835 -0.1118
 8118W        W26972  11.850   5.861  13.444 -0.2452 -0.1094 -0.4297
 8119W        W26973  12.668  13.299   0.142 -0.0751 -0.2273  0.2668
 8120W        W26974   7.029   7.249  11.314  0.0560 -0.2790  0.0032
 8121W        W26975  14.726   7.746  14.518 -0.2910 -0.1007 -0.0557
 8122W        W26976   8.332   9.725  13.754 -0.2904 -0.0183 -0.0340
 8123W        W26977  11.727   2.278   0.635 -0.0835 -0.2027 -0.0017
 8124W        W26978  16.706  17.687   5.076  0.2839 -0.1762  0.2450
 8125W        W26979   1.354  13.802   2.462 -0.1399  0.0172 -0.1330
 8126W        W26980  11.509  14.086  15.175 -0.2612 -0.0578  0.3389
 8127W        W26981   9.748   1.308   4.186 -0.1709 -0.2999 -0.0157
 8128W        W26982   9.669   5.566  14.420 -0.0599 -0.0466  0.0228
 8129W        W26983  12.917  17.469   0.699  0.1067  0.2324 -0.0513
 8130W        W26984  14.051   7.817  13.892 -0.1814 -0.0599 -0.0643
 8131W        W26985   7.428   9.982  15.057 -0.0134 -0.0904 -0.0454
 8132W        W26986   7.653   3.868   4.240  0.1182  0.1066 -0.0387
 8133W        W26987  13.094  18.475  13.620  0.0857 -0.4796 -0.3352
 8134W        W26988   8.387   2.688   0.572  0.4877  0.2138 -0.1050
 8135W        W26989   0.693   4.296  11.267  0.1531  0.0106  0.2116
 8136W        W26990   5.609   7.890   4.239  0.1453 -0.0591 -0.2480
 8137W        W26991   8.194  17.002  11.934  0.1010 -0.1975  0.0455
 8138W        W26992   5.740  11.972  12.923  0.1914 -0.2156  0.0578
 8139W        W26993   6.520   9.774  15.233  0.0972 -0.0043  0.0136
 8140W        W26994   6.456   3.953   4.704 -0.1309  0.0690  0.1060
 8141W        W26995  17.010   4.270  12.958 -0.3004 -0.0237 -0.2456
 8142W        W26996   2.504   8.576   0.141  0.0735 -0.3932 -0.2892
 8143W        W26997   2.946  11.276  12.096 -0.0557 -0.1344  0.0975
 8144W        W26998  15.126   5.460   2.407  0.0722  0.0352 -0.2777
 8145W        W26999  11.073   7.066  11.771  0.0692  0.4124 -0.3021
 8146W        W27000   4.075   5.634   1.553 -0.0660  0.2756 -0.0434
 8147W        W27001  17.739  12.898  14.187 -0.0861  0.1626 -0.1146
 8148W        W27002   9.198  15.491  11.546 -0.0998  0.0866  0.1709
 8149W        W27003   5.799  12.891   0.847 -0.1622  0.0291 -0.4187
 8150W        W27004   1.469   8.746   0.682 -0.1606 -0.2245  0.0050
 8151W        W27005  17.445  15.468   2.908 -0.2844  0.0298  0.0057
 8152W        W27006   0.650  10.644  12.126  0.0807  0.1309 -0.0313
 8153W        W27007  12.727   6.437   3.277  0.2203 -0.1300 -0.0683
 8154W        W27008   4.802   8.749  14.563 -0.0951  0.2449  0.0721
 8155W        W27009  13.643   9.508  14.632  0.1794  0.0211 -0.1401
 8156W        W27010   4.744   8.781   4.311 -0.0705 -0.1921  0.0022
 8157W        W27011   1.402  10.179  11.791 -0.0959  0.1027 -0.0140
 8158W        W27012  12.170   3.918  11.077 -0.1190 -0.3187 -0.3262
 8159W        W27013   6.110  13.215  11.618  0.5158 -0.0833  0.0500
 8160W        W27014  17.784  16.115   0.209  0.3161  0.0368  0.4385
 8161W        W27015   4.309   2.376   1.122 -0.0685  0.1810 -0.3252
 8162W        W27016  18.274  12.428  11.761  0.0793 -0.2926 -0.0070
 8163W        W27017  15.477  11.273   0.995 -0.1944  0.2334 -0.0231
 8164W        W27018   4.906  13.737   0.110 -0.2280 -0.0777 -0.0470
 8165W        W27019   9.986  16.843  14.438 -0.0233 -0.2090 -0.3612
 8166W        W27020   3.018   2.541   3.848 -0.1704  0.1251  0.1408
 8167W        W27021  13.220  10.770  14.249 -0.3029  0.0772  0.1518
 8168W        W27022  12.089  16.019   1.336 -0.0259  0.2349  0.0649
 8169W        W27023   7.973  13.815   0.049  0.3658 -0.1662  0.3653
 8170W        W27024  17.600  10.253  14.537 -0.0816 -0.1173 -0.0326
 8171W        W27025   1.045   0.256  14.242  0.1590 -0.0414 -0.3236
 8172W        W27026  16.760   9.401  14.058  0.0055  0.0295 -0.2571
 8173W        W27027   9.997  14.503   0.698  0.2261  0.0313  0.0216
 8174W        W27028  11.319  13.117  13.605 -0.3243 -0.1972  0.2274
 8175W        W27029  10.437  12.394   3.577  0.2172 -0.1801  0.1892
 8176W        W27030   3.823  16.254   3.014  0.0252  0.0144  0.0496
 8177W        W27031  16.112   1.279   2.931 -0.3402 -0.0337  0.0943
 8178W        W27032   8.339  13.293   1.777  0.0564  0.2028 -0.2909
 8179W        W27033  14.335   6.094  13.789 -0.3325  0.0951  0.0765
 8180W        W27034  10.446  16.628   1.592  0.2066 -0.0858 -0.0568
 8181W        W27035  14.372   7.974  15.218 -0.0590 -0.1460 -0.2716
 8182W        W27036  14.308  15.355   3.463 -0.3029  0.0305 -0.2504
 8183W        W27037   6.975   0.762   1.039 -0.0657  0.1678 -0.1704
 8184W        W27038  17.911  14.190  11.306 -0.2315  0.0812  0.0686
 8185W        W27039   0.714  15.365  13.370 -0.0087  0.1052 -0.0353
 8186W        W27040  11.689  16.856   3.937 -0.0343 -0.0330 -0.2293
 8187W        W27041  12.871   7.161   2.318  0.1500 -0.0187 -0.1216
 8188W        W27042   2.386  13.517   2.416  0.0891 -0.0640 -0.1918
 8189W        W27043  16.138   6.834  14.288  0.2579 -0.0024  0.0141
 8190W        W27044   6.432   3.577  11.895  0.0317  0.1000  0.1069
 8191W        W27045   0.553   3.672  14.928  0.1478 -0.0028  0.1846
 8192W        W27046   0.285   4.287  14.921 -0.2212  0.1128  0.1447
 8193W        W27047  12.688   5.000   0.376 -0.1071 -0.1019 -0.2375
 8194W        W27048   6.077   4.726  13.631 -0.3663 -0.1819  0.1209
 8195W        W27049   6.825   3.499  12.267 -0.1276  0.2525 -0.0673
 8196W        W27050   8.445   9.249  11.360  0.0485 -0.2459 -0.2000
 8197W        W27051  15.824  12.328   3.894 -0.0561 -0.1625  0.1556
 8198W        W27052  10.843   3.791   2.955  0.3018  0.1441 -0.1948
 8199W        W27053  16.685  11.229   3.323  0.1551 -0.0743  0.4340
 8200W        W27054  11.558  16.513   3.580  0.3056  0.0630 -0.4899
 8201W        W27055  12.637   4.647  15.466  0.3019 -0.0294  0.3073
 8202W        W27056  15.130  17.038  11.610  0.0053 -0.0076 -0.0379
 8203W        W27057   4.762  16.626   3.547 -0.3430 -0.1283  0.0339
 8204W        W27058   1.785   3.596  11.739  0.0489 -0.1968 -0.0355
 8205W        W27059  13.813   2.256  12.224 -0.2371  0.2679  0.0855
 8206W        W27060  10.878   9.084  10.941 -0.1853 -0.3481 -0.2120
 8207W        W27061   4.181  15.457  11.825  0.2117  0.2852  0.2504
 8208W        W27062   2.754   2.217  14.198  0.2302  0.0289  0.0512
 8209W        W27063  13.640  12.298  11.058  0.2105 -0.1424  0.0619
 8210W        W27064  13.806  15.237   3.462  0.1337 -0.1592 -0.3627
 8211W        W27065   2.453   1.075  15.219 -0.0312  0.2115  0.0704
 8212W        W27066  11.180   4.194   2.903 -0.1260  0.0952  0.0489
 8213W        W27067   5.877  12.864  10.928  0.1692 -0.1603  0.1632
 8214W        W27068  12.223   4.650   1.824 -0.0135  0.0632 -0.1902
 8215W        W27069  13.090   8.425  14.427 -0.1710  0.0225 -0.1014
 8216W        W27070  11.498  13.741   0.753 -0.1904 -0.0240 -0.0490
 8217W        W27071  17.504   2.150   9.617 -0.2323  0.2779 -0.2754
 8218W        W27072  17.787  13.665   4.615  0.1400 -0.0614  0.0230
 8219W        W27073   7.765   4.141   1.880  0.3490  0.0482  0.0629
 8220W        W27074   4.384  13.060  14.836  0.2581 -0.2084  0.0395
 8221W        W27075  13.943  12.393   0.103  0.4234  0.1354  0.0261
 8222W        W27076   3.993  13.487   2.588  0.1704  0.1373  0.1772
 8223W        W27077   9.626   3.216  13.556 -0.0297 -0.1453 -0.2485
 8224W        W27078  11.558   2.239   4.306  0.3081 -0.4201  0.0679
 8225W        W27079   6.404   6.650  14.521  0.2109 -0.3529 -0.0202
 8226W        W27080  15.149   6.725  14.959  0.3824  0.1187 -0.0393
 8227W        W27081   4.941   4.994   3.624  0.0355 -0.1765 -0.1093
 8228W        W27082  12.052   9.174  14.828  0.0579  0.0786  0.1031
 8229W        W27083   9.753  15.243   0.215  0.1386 -0.5374  0.0460
 8230W        W27084   6.672  17.454  12.348 -0.2639 -0.0230 -0.2588
 8231W        W27085   6.588   8.102  14.794 -0.3528 -0.3629  0.3063
 8232W        W27086   7.380  16.045   4.513  0.1415  0.0619  0.0263
 8233W        W27087   3.733  14.847   4.410  0.0298  0.2279  0.1523
 8234W        W27088   0.572  10.979   2.779 -0.1022  0.1498  0.2158
 8235W        W27089  14.555   7.075   3.867  0.0248  0.0267 -0.0201
 8236W        W27090   9.285  16.417  12.767 -0.1119 -0.1424 -0.2392
 8237W        W27091   8.481   8.670  12.641 -0.2416  0.1314  0.1304
 8238W        W27092   2.872  14.978  11.981 -0.1137 -0.0889 -0.1549
 8239W        W27093   4.423   6.236   0.680 -0.2487  0.0259 -0.1103
 8240W        W27094  18.543  10.306  11.736  0.1689 -0.1000  0.0550
 8241W        W27095  13.871   9.247   2.699  0.2042 -0.0938 -0.0629
 8242W        W27096  18.528  14.058   9.784  0.0503  0.0277 -0.1354
 8243W        W27097  18.016   5.437   3.690  0.2430 -0.3806  0.2291
 8244W        W27098  14.476   0.044  14.813  0.1178  0.0450  0.1711
 8245W        W27099   9.332  13.198  12.398  0.0615  0.2370 -0.0967
 8246W        W27100   6.704  15.005  14.039  0.2625  0.1282  0.0872
 8247W        W27101   6.201  18.407   3.653 -0.2743 -0.2207  0.1642
 8248W        W27102  18.203  13.733  11.503  0.0033 -0.1167 -0.2275
 8249W        W27103   7.674   2.520   3.198 -0.1363  0.0508 -0.1666
 8250W        W27104  13.852  13.377  14.034 -0.1389 -0.0683 -0.0957
 8251W        W27105   1.120   1.735  13.083 -0.2382 -0.0223 -0.1625
 8252W        W27106  14.519   6.631  12.003  0.1090  0.2095 -0.2000
 8253W        W27107   7.551   0.124  14.327 -0.0824  0.4069 -0.1730
 8254W        W27108  10.001   7.587  11.900 -0.0696  0.1824 -0.3619
 8255W        W27109  13.202   6.506  11.327  0.2189  0.1493 -0.0480
 8256W        W27110  15.677   1.229  11.375  0.3540  0.0735 -0.0876
 8257W        W27111  10.110   6.672  11.809 -0.2552  0.3153 -0.2168
 8258W        W27112   3.335   1.999   2.638 -0.1836  0.0263 -0.3173
 8259W        W27113  11.292  16.350   0.215  0.4200 -0.2723 -0.0371
 8260W        W27114  18.436   3.306  11.703  0.2923 -0.1556  0.1376
 8261W        W27115  13.936  18.305   0.374 -0.3512 -0.5234 -0.5032
 8262W        W27116   1.709   9.772  12.054  0.0035 -0.1626  0.0705
 8263W        W27117  11.687  17.141  12.182 -0.1727  0.0190  0.1574
 8264W        W27118   0.005  16.336  10.440  0.1560  0.2180 -0.2384
 8265W        W27119  10.252  17.806  12.948  0.1754 -0.2319  0.1261
 8266W        W27120   8.134   0.898   2.574 -0.1007 -0.4384 -0.1466
 8267W        W27121   6.047   8.090   4.150  0.0475 -0.0576  0.3134
 8268W        W27122  13.277  11.467  12.287 -0.0907 -0.0893 -0.0586
 8269W        W27123   8.584  17.703   2.167  0.3015 -0.0212  0.1373
 8270W        W27124  16.754   0.398  12.993 -0.1740 -0.1296 -0.3727
 8271W        W27125   5.276  17.184   1.896 -0.1992 -0.0582  0.1824
 8272W        W27126  15.431  11.599   1.961 -0.0908 -0.2377  0.0166
 8273W        W27127   3.885   6.774   4.076 -0.2457 -0.0047 -0.0192
 8274W        W27128   7.386  13.366   2.320  0.0509  0.0604 -0.2608
 8275W        W27129  13.515   0.936  15.349  0.0195 -0.0120 -0.0511
 8276W        W27130  10.902  12.704   1.869  0.0160 -0.2641 -0.3638
 8277W        W27131  12.714  15.551  15.361 -0.0000  0.2096  0.1694
 8278W        W27132  13.201  17.695   4.384 -0.0941  0.0922 -0.2165
 8279W        W27133   8.441  18.288   0.174  0.0574  0.1121  0.0808
 8280W        W27134   4.895   5.338  13.726 -0.1339  0.1974  0.1414
 8281W        W27135  12.806   9.509  13.521 -0.0010 -0.0642 -0.0518
 8282W        W27136   1.091  13.348  11.146 -0.2132 -0.2323 -0.0565
 8283W        W27137   1.371  15.442  14.474  0.0843  0.2934 -0.0843
 8284W        W27138  13.343   8.393  13.734 -0.1220  0.0380  0.1097
 8285W        W27139   8.762  14.129   2.122 -0.3327  0.2733  0.1338
 8286W        W27140  12.628   1.278  15.084 -0.0137  0.1155  0.1398
 8287W        W27141  15.031   6.860  12.149  0.2644 -0.0979 -0.2928
 8288W        W27142   2.001  13.804   1.647 -0.0759  0.0945  0.2365
 8289W        W27143   7.165   0.050   0.012  0.0819  0.2714  0.2681
 8290W        W27144  13.878   3.110   1.489  0.0665  0.1668  0.0544
 8291W        W27145  14.563   3.605   2.899 -0.0014 -0.0512 -0.0425
 8292W        W27146  18.332   0.617  11.920 -0.0263 -0.1505  0.1090
 8293W        W27147   6.019  16.843   3.254 -0.5491 -0.0263 -0.1028
 8294W        W27148   0.630  12.527   4.061  0.0091 -0.0704 -0.2158
 8295W        W27149  14.870  16.750  12.121  0.0374 -0.0054 -0.0744
 8296W        W27150   5.176  10.603  14.716  0.4714  0.0397 -0.1542
 8297W        W27151   3.856  15.014   1.103 -0.1479  0.1674  0.0387
 8298W        W27152  12.220   5.775   2.857  0.0180  0.0718 -0.0771
 8299W        W27153  14.762  17.611  15.040  0.1400 -0.2215 -0.0397
 8300W        W27154   8.985   6.168  14.032 -0.1377  0.1248 -0.3807
 8301W        W27155  11.628   7.707   2.865 -0.1816  0.0842 -0.0799
 8302W        W27156   5.162   2.206   1.711 -0.1294  0.0322  0.2004
 8303W        W27157  17.088   3.352   1.103 -0.1577  0.2592 -0.0955
 8304W        W27158  13.416   1.166   2.041 -0.0408  0.0991  0.2021
 8305W        W27159   3.872   1.321   0.641  0.1377  0.1782  0.3226
 8306W        W27160  11.428   0.390  11.071 -0.0255 -0.1063  0.0102
 8307W        W27161   4.380   4.376   1.488  0.0723 -0.1441 -0.1749
 8308W        W27162   1.771  16.255  12.891  0.0179 -0.1325  0.0053
 8309W        W27163  17.256   1.831   4.451  0.1708  0.0234 -0.0509
 8310W        W27164   5.377  17.704   3.125  0.3565  0.0881 -0.0800
 8311W        W27165   5.579  12.161   1.712 -0.1430  0.1257  0.0133
 8312W        W27166  12.538   6.736   2.953  0.2115 -0.0536  0.1827
 8313W        W27167  12.801   5.130  14.539 -0.1158 -0.1387 -0.1940
 8314W        W27168  14.652  15.262  14.807 -0.0679  0.1724 -0.1605
 8315W        W27169  14.114  12.336  11.964  0.0478 -0.0688 -0.0462
 8316W        W27170   7.758   5.659   4.542 -0.1316  0.0965 -0.1350
 8317W        W27171   0.107   8.385  12.852  0.0986  0.1052 -0.0365
 8318W        W27172   2.765   6.812   0.037 -0.2141 -0.0268 -0.3689
 8319W        W27173   8.453   2.563  12.971  0.0628  0.0335  0.1847
 8320W        W27174   7.638  17.946   4.336 -0.1719  0.1654  0.1940
 8321W        W27175   9.426  15.908   3.875  0.0533  0.1093 -0.0707
 8322W        W27176  14.855   1.762   1.323 -0.0727 -0.2592 -0.0223
 8323W        W27177   7.884  15.827   0.140  0.0250  0.1251  0.3001
 8324W        W27178  13.256   7.690  13.314 -0.1311 -0.2866 -0.3675
 8325W        W27179   4.219   2.386  11.938 -0.2397 -0.1922  0.0439
 8326W        W27180  17.449  15.701   2.455  0.3444 -0.3364  0.0119
 8327W        W27181   7.301  16.338   0.178  0.1049  0.0613  0.0815
 8328W        W27182  16.866  10.737   0.918 -0.2026 -0.0786 -0.3710
 8329W        W27183  14.763   2.733   3.666 -0.0555  0.0105 -0.1148
 8330W        W27184  10.813  17.372   2.035  0.0518 -0.3151 -0.0017
 8331W        W27185   2.082   3.413  13.018 -0.0024  0.0427  0.1265
 8332W        W27186   7.140  17.136   1.598  0.2183 -0.4093 -0.0473
 8333W        W27187   5.828   2.564  15.099 -0.0091  0.2539 -0.0116
 8334W        W27188  11.118   9.703  15.002  0.3813 -0.1285  0.2506
 8335W        W27189   8.415  13.061  14.008 -0.0159 -0.0454 -0.2782
 8336W        W27190  16.018   6.068  13.877 -0.1874 -0.2955  0.0930
 8337W        W27191  17.783  17.011   3.044 -0.0275 -0.2824 -0.0443
 8338W        W27192   1.486  10.921   1.073  0.3046  0.0714 -0.2260
 8339W        W27193   9.522   2.166   2.262  0.0786 -0.1842 -0.1650
 8340W        W27194   4.591   8.968   2.720  0.2032  0.0828  0.0202
 8341W        W27195  12.564   5.151  15.358 -0.1444  0.1784 -0.0786
 8342W        W27196  18.462  12.385  14.499 -0.0779  0.0188  0.1854
 8343W        W27197   0.001  15.029  14.252  0.0029  0.1830 -0.0570
 8344W        W27198  18.114   3.024   0.821  0.1142 -0.1111  0.2318
 8345W        W27199   1.226   8.974  11.382  0.2118  0.0526 -0.2551
 8346W        W27200  16.586   9.038   3.959  0.4641  0.1590  0.3200
 8347W        W27201  11.786  17.653   1.934  0.0524 -0.0046  0.0233
 8348W        W27202   4.567  10.237   4.251 -0.0125 -0.0951  0.3390
 8349W        W27203   8.705   7.019  13.517 -0.1186 -0.1234  0.0121
 8350W        W27204  14.912   9.012  11.233 -0.2010  0.1217 -0.1556
 8351W        W27205   8.210  11.387  14.926 -0.0865  0.0852 -0.1446
 8352W        W27206  17.992   5.079  11.046  0.0090 -0.1990 -0.0180
 8353W        W27207  11.548   6.176  11.623 -0.0494  0.0740 -0.3039
 8354W        W27208  16.607  18.328  11.423 -0.1255  0.1189  0.0835
 8355W        W27209  16.420   2.595  14.627  0.0391  0.1517  0.0527
 8356W        W27210   6.472   6.691   4.281 -0.1280 -0.2153 -0.0429
 8357W        W27211   2.387   2.716  14.649  0.1750 -0.0357  0.0126
 8358W        W27212  14.675  15.502   3.118 -0.3160  0.1048  0.0919
 8359W        W27213   9.753   1.600   0.036  0.1248 -0.0911 -0.2685
 8360W        W27214   6.588   5.714   1.429  0.0749 -0.0590  0.3349
 8361W        W27215  12.004   0.820  11.693 -0.0689 -0.0982 -0.2591
 8362W        W27216  17.558   8.263   2.254  0.1003  0.0385 -0.0558
 8363W        W27217  18.429  14.929   0.033 -0.1743  0.2862 -0.0475
 8364W        W27218  12.787  17.056  12.458  0.1186  0.2474 -0.0817
 8365W        W27219   0.544  12.402  14.763  0.1320  0.0852 -0.2357
 8366W        W27220   3.479  13.336  14.778 -0.0617  0.0245 -0.2012
 8367W        W27221  12.259  17.466   4.576 -0.0262 -0.1440  0.0206
 8368W        W27222  17.261   4.627  14.359 -0.0046  0.1659 -0.2241
 8369W        W27223   8.178   6.526   2.667  0.1723  0.0182 -0.0614
 8370W        W27224   8.878   4.778  13.624  0.0350 -0.1524 -0.0063
 8371W        W27225   8.930  17.345   4.717 -0.0205  0.1185 -0.1729
 8372W        W27226   7.134  12.711  15.388  0.0612 -0.1312 -0.3354
 8373W        W27227  16.135   0.695   4.109 -0.1633  0.1096  0.0269
 8374W        W27228  17.392  16.357   3.638 -0.2522 -0.0436 -0.2185
 8375W        W27229  14.283  15.529   2.736 -0.0119 -0.2351  0.0734
 8376W        W27230   2.054   0.365   0.374  0.1742 -0.1616  0.0332
 8377W        W27231   7.902  18.067  10.221  0.0380 -0.3700  0.0323
 8378W        W27232  16.656  13.959  12.631  0.2914  0.2222  0.1057
 8379W        W27233  17.652   7.397   4.329  0.0013  0.4238  0.2337
 8380W        W27234   5.795  11.999  11.512  0.0152  0.1923  0.0444
 8381W        W27235  14.685  14.720   0.126 -0.2571  0.1641  0.0450
 8382W        W27236  16.513   2.322   1.690  0.0257  0.0222  0.1793
 8383W        W27237   7.891  18.140   3.890 -0.1744 -0.0864 -0.1279
 8384W        W27238   2.980  11.654   2.847 -0.0698  0.1426 -0.3704
 8385W        W27239   6.905   8.027   4.235 -0.0785 -0.1803  0.0862
 8386W        W27240   7.576   6.528  14.618 -0.1374 -0.1046  0.0629
 8387W        W27241  15.625   3.322   1.853 -0.3249  0.0652 -0.1319
 8388W        W27242   6.954   4.176   4.775  0.2384 -0.1371 -0.3015
 8389W        W27243   5.929   9.900   0.089  0.0535 -0.5750 -0.2682
 8390W        W27244  12.647   7.231   0.258 -0.2068  0.0526  0.1418
 8391W        W27245  12.302  16.415  12.315  0.1336 -0.0047 -0.0706
 8392W        W27246   9.837   9.888  11.631 -0.0604  0.2734 -0.3246
 8393W        W27247  10.230   1.991  13.796 -0.2228  0.0278  0.0190
 8394W        W27248   0.493   6.475   3.910  0.1387 -0.1388  0.1857
 8395W        W27249   5.638  12.560  14.177 -0.1180 -0.1164 -0.0191
 8396W        W27250   1.515   8.379   0.273 -0.2793 -0.0574 -0.2215
 8397W        W27251  16.809   1.091   0.753  0.2401  0.2395 -0.1019
 8398W        W27252  15.366  15.571  13.112  0.1171 -0.1014 -0.1610
 8399W        W27253   0.080   0.551   1.469  0.0661 -0.1561 -0.2176
 8400W        W27254   0.618   3.559  12.329  0.1086 -0.0678 -0.3759
 8401W        W27255  11.838   1.963   2.037 -0.0920  0.4133 -0.1384
 8402W        W27256  11.278  18.183  12.300 -0.0865 -0.2341 -0.0480
 8403W        W27257  15.470  16.653  10.974 -0.1507 -0.1555 -0.1866
 8404W        W27258  12.391  16.076   4.186  0.1726 -0.3353 -0.0886
 8405W        W27259   3.222  12.544   0.290 -0.1947 -0.0013  0.0228
 8406W        W27260   1.070  11.336  11.781  0.5879 -0.2490 -0.2484
 8407W        W27261  15.465  15.560  14.998 -0.2532  0.1854 -0.0258
 8408W        W27262   8.914  11.415  12.624 -0.0541  0.0905 -0.1216
 8409W        W27263   3.388   9.341  11.871  0.3019  0.0879  0.1845
 8410W        W27264  17.753  11.371   0.183  0.0622  0.2623 -0.3188
 8411W        W27265   5.430   6.333  13.692  0.1148  0.1634  0.0609
 8412W        W27266  14.287  12.094   0.150 -0.0725 -0.2194 -0.0539
 8413W        W27267  10.332   8.589   0.910 -0.1589  0.1114  0.1842
 8414W        W27268   8.671  18.524  15.245 -0.1376  0.1179  0.0751
 8415W        W27269   4.349   9.255  13.914  0.1274 -0.1383 -0.0986
 8416W        W27270  16.749  11.015   3.784 -0.1312 -0.0733 -0.1180
 8417W        W27271   7.605  11.346  15.097  0.3846  0.2067 -0.1010
 8418W        W27272   3.392   5.107  13.989 -0.0450  0.0394  0.0443
 8419W        W27273   0.196   5.169  14.327  0.1840  0.0814  0.0885
 8420W        W27274   2.564   0.806   1.797  0.2361 -0.1558  0.0573
 8421W        W27275   8.131   3.098   3.819 -0.1819  0.1742  0.0305
 8422W        W27276  10.361  17.175  14.543 -0.2122  0.0989  0.2790
 8423W        W27277   0.514  10.395  14.544 -0.1783 -0.2535  0.2200
 8424W        W27278  17.523  16.896   3.622 -0.1697 -0.1568  0.0363
 8425W        W27279  12.894   2.402   0.777  0.2014  0.0148 -0.2292
 8426W        W27280   4.245  11.485  10.201  0.0219 -0.1036  0.1954
 8427W        W27281   5.427  13.550   0.154  0.0003  0.3030 -0.0813
 8428W        W27282   8.249  10.889   3.999 -0.3069 -0.6533  0.0330
 8429W        W27283   3.287  11.699  10.666 -0.0910  0.0193 -0.3429
 8430W        W27284  10.677  12.653  13.040  0.0023  0.1590  0.1075
 8431W        W27285   1.540   1.896   4.875 -0.0652  0.2628 -0.0312
 8432W        W27286  13.821  15.486  10.933 -0.2047 -0.0230 -0.1183
 8433W        W27287   4.452   5.068   0.007 -0.0058  0.0979  0.1035
 8434W        W27288   8.104  12.591   3.849  0.0183 -0.0391 -0.0143
 8435W        W27289  12.051   4.746   0.829  0.0118  0.0709 -0.2645
 8436W        W27290  12.167   7.533   2.973  0.1242 -0.0735 -0.0763
 8437W        W27291   5.136  17.940   0.351 -0.1082  0.0053  0.0558
 8438W        W27292  13.606   6.498   1.117 -0.2830  0.0028 -0.0106
 8439W        W27293  15.445  14.421   5.169  0.5417 -0.1776  0.0592
 8440W        W27294   2.730   1.299   4.599  0.1406  0.2639 -0.1913
 8441W        W27295   6.832   3.551   3.874  0.1353 -0.5584 -0.2498
 8442W        W27296   5.860  14.128  13.840  0.2322  0.1531  0.1562
 8443W        W27297  17.104   3.493  12.345 -0.2414  0.2031 -0.0893
 8444W        W27298   3.954   9.985   0.016 -0.1548 -0.0319  0.0916
 8445W        W27299   1.955   7.564   2.529  0.1716 -0.2631 -0.1578
 8446W        W27300   2.318  13.550  15.348  0.0284 -0.1571  0.0344
 8447W        W27301  17.769   7.186  14.287  0.0685 -0.4003  0.0744
 8448W        W27302  10.600  15.630   2.524 -0.2381  0.0851 -0.1870
 8449W        W27303  11.691  11.801  12.000 -0.2357  0.1910  0.2545
 8450W        W27304   8.394   9.188  12.271  0.3725 -0.1053 -0.2762
 8451W        W27305  16.235   4.142   1.972 -0.1904  0.0435 -0.2445
 8452W        W27306   9.052   8.117   2.857  0.0997 -0.2905 -0.1870
 8453W        W27307   5.935   8.547  11.210  0.2684  0.1225  0.2783
 8454W        W27308  17.451   4.756   1.151  0.4413 -0.0639  0.1462
 8455W        W27309   0.599  14.484   3.505 -0.0420  0.0221 -0.2445
 8456W        W27310  14.046   6.074   3.101 -0.0138 -0.1855 -0.0855
 8457W        W27311   9.644   6.933  14.745 -0.0128 -0.0079  0.0362
 8458W        W27312   9.703  15.472  11.446 -0.1200 -0.1113 -0.0185
 8459W        W27313   0.717  17.799   4.218 -0.0578  0.3295 -0.0582
 8460W        W27314   0.520   9.545  12.507 -0.0440  0.1237  0.3412
 8461W        W27315  11.813   2.884  13.378 -0.0179 -0.1546  0.0404
 8462W        W27316  12.154   6.463   3.389  0.0932 -0.1240  0.1594
 8463W        W27317  12.844   4.994  14.006  0.3012 -0.0529 -0.0727
 8464W        W27318  13.224  14.029   1.815  0.2622 -0.2112  0.2244
 8465W        W27319  14.779  16.630   0.206  0.0157 -0.0266  0.0260
 8466W        W27320   5.754   0.227   0.427 -0.1428 -0.1264  0.4292
 8467W        W27321   6.523  12.762  13.107 -0.1670  0.1120 -0.1877
 8468W        W27322  14.693   4.942  13.369 -0.0740 -0.1838 -0.1780
 8469W        W27323   7.981   8.510  13.404  0.0298  0.0977 -0.0911
 8470W        W27324   1.011   8.159   0.156  0.0907 -0.0287 -0.0193
 8471W        W27325  16.676  16.742   1.492 -0.0890  0.1796 -0.2148
 8472W        W27326   4.366   6.123  11.971 -0.2888 -0.1711  0.1401
 8473W        W27327  12.622  13.471  11.120  0.1649 -0.1232 -0.1313
 8474W        W27328   8.588  12.027  12.025  0.1550  0.0257 -0.2182
 8475W        W27329  13.269   2.094  14.702  0.0840 -0.0079 -0.1604
 8476W        W27330  10.295   7.189   3.045  0.2466 -0.2599  0.2495
 8477W        W27331   1.410   1.934  11.567 -0.2768 -0.0075  0.3124
 8478W        W27332  16.473  13.104  11.687  0.0841 -0.0360  0.0680
 8479W        W27333  10.276  12.071  12.493  0.0802  0.0066 -0.5517
 8480W        W27334  11.274   4.417   4.640  0.0658 -0.1273 -0.1394
 8481W        W27335  17.368  13.076  14.987 -0.1178  0.2114 -0.0483
 8482W        W27336   1.289  13.037   0.837 -0.3580 -0.1504  0.4161
 8483W        W27337   8.598   8.006   2.579 -0.0049 -0.3192  0.1039
 8484W        W27338  10.101  18.028   0.045 -0.0438 -0.0004 -0.0216
 8485W        W27339  17.135   2.842  15.352  0.1043  0.1783 -0.0852
 8486W        W27340  15.596  18.491  12.048 -0.3108  0.1884  0.3986
 8487W        W27341   3.912   3.436   4.185 -0.1519 -0.1192  0.0640
 8488W        W27342  11.103   6.991   3.949  0.1024  0.1254 -0.3606
 8489W        W27343  13.335  13.064  12.178  0.0304  0.1466  0.2796
 8490W        W27344  17.465   5.101   0.373 -0.0411 -0.2551 -0.1583
 8491W        W27345   1.449   7.422   1.216 -0.3071 -0.0481 -0.0869
 8492W        W27346   5.894  11.750   4.930 -0.0204 -0.1136 -0.1481
 8493W        W27347   7.150  12.786   1.833 -0.3303  0.2753 -0.0888
 8494W        W27348   2.850   2.241   0.044 -0.0484 -0.1400  0.0019
 8495W        W27349   9.754  12.633   2.438 -0.1863 -0.1691 -0.1669
 8496W        W27350   3.803   1.787  12.448  0.0849  0.0729  0.1198
 8497W        W27351   0.044   9.090  14.067 -0.0855  0.0681  0.1798
 8498W        W27352   1.315  14.105  10.777 -0.0015  0.0418  0.2296
 8499W        W27353  14.983  12.091   1.520 -0.1998  0.1927 -0.1589
 8500W        W27354  13.135  17.013   0.594 -0.0588  0.1422 -0.0850
 8501W        W27355   9.113   4.621   4.248  0.1869  0.0268  0.0835
 8502W        W27356   5.798  10.887   3.457 -0.0211 -0.1163  0.2077
 8503W        W27357   2.907   0.243  11.457  0.0537 -0.0963 -0.2564
 8504W        W27358   4.143   8.173   2.179 -0.3280 -0.2581  0.0847
 8505W        W27359  11.239   6.882  12.539 -0.1247  0.1429  0.2113
 8506W        W27360   1.179  14.183   4.279 -0.1380 -0.1563 -0.0748
 8507W        W27361   6.161  16.783   4.083 -0.2896  0.3637 -0.0712
 8508W        W27362   1.998   1.937   2.925 -0.1590 -0.1923 -0.0898
 8509W        W27363   2.726   0.318   2.834 -0.1777  0.0225 -0.0862
 8510W        W27364  10.775   2.769  10.274  0.0889 -0.0889 -0.0466
 8511W        W27365  17.228   8.325   1.221 -0.2062  0.1800  0.2471
 8512W        W27366  12.633   6.305   4.551  0.0092  0.0841  0.1016
 8513W        W27367   7.753   8.765   3.362  0.2679  0.3175 -0.1647
 8514W        W27368  11.295  11.507   1.984  0.1285 -0.1716 -0.0144
 8515W        W27369   8.964  10.936  13.348 -0.0132 -0.1694  0.0538
 8516W        W27370  15.513  14.910   0.884 -0.1732 -0.2367  0.3218
 8517W        W27371   9.543  18.379  12.631 -0.2290  0.2109  0.1133
 8518W        W27372  16.243  16.025   3.027 -0.0056 -0.1633  0.1183
 8519W        W27373  12.235   6.697  11.359 -0.0437 -0.2326 -0.1964
 8520W        W27374   9.163   3.784   3.671  0.0583  0.0702  0.2259
 8521W        W27375  17.477   4.573  10.854 -0.0239  0.0112 -0.1433
 8522W        W27376   2.989  11.179  11.603  0.1223  0.2861  0.3765
 8523W        W27377   3.810  11.534  11.613 -0.0737  0.1509 -0.2911
 8524W        W27378  14.899  16.093  11.469  0.1104  0.0703  0.0727
 8525W        W27379   3.384   8.108   3.207 -0.0425  0.0548 -0.1795
 8526W        W27380  15.464  17.415  10.276  0.2046 -0.1907  0.2917
 8527W        W27381   9.710  12.466  12.711 -0.1557 -0.1222  0.1909
 8528W        W27382   9.167   0.809   4.638 -0.2437 -0.0287 -0.0275
 8529W        W27383  16.591   3.056   0.363  0.4555 -0.0611 -0.0336
 8530W        W27384   8.053   1.937   3.881 -0.3222  0.0948  0.3416
 8531W        W27385  16.033  13.232   4.852 -0.2879  0.0279  0.2461
 8532W        W27386   4.795   2.960  10.811 -0.1269  0.3381  0.3019
 8533W        W27387  16.688  13.484  12.811 -0.0237 -0.2163  0.1208
 8534W        W27388  13.521   8.780   1.065 -0.1943 -0.1038 -0.1145
 8535W        W27389   4.375  13.325   3.730  0.0775 -0.0109 -0.3900
 8536W        W27390   6.844   9.176  12.975 -0.1190 -0.1897  0.1811
 8537W        W27391   4.512   0.374  11.075 -0.0489 -0.3039  0.0459
 8538W        W27392  14.676  11.948  12.019  0.1338 -0.2243 -0.0056
 8539W        W27393  17.054   8.125   3.019  0.5226  0.3756 -0.1486
 8540W        W27394  14.879  12.834  12.479  0.0913 -0.2155 -0.0163
 8541W        W27395  18.175  16.542  14.391  0.1463 -0.2201 -0.0820
 8542W        W27396  10.794   0.334  12.913  0.0031  0.0562  0.0984
 8543W        W27397   6.931   8.619  12.611  0.1233 -0.0572  0.1020
 8544W        W27398   8.647   6.035   1.888 -0.2769 -0.1469 -0.2663
 8545W        W27399   5.572  10.795  11.376 -0.1949  0.1906 -0.1285
 8546W        W27400  10.874   8.599   1.711 -0.1302 -0.2893 -0.2512
 8547W        W27401   0.231   1.363   2.657 -0.1697  0.1783  0.0963
 8548W        W27402   7.006   1.712  13.865 -0.1459 -0.0495 -0.1328
 8549W        W27403   4.261  11.699   0.688  0.2805  0.1869 -0.3158
 8550W        W27404  17.544   6.202  12.680  0.2160  0.1023  0.3456
 8551W        W27405  15.421   8.569   4.514 -0.1814  0.3277  0.0345
 8552W        W27406   4.108  18.374  11.908 -0.2156 -0.0027 -0.1934
 8553W        W27407   5.018   1.167   3.484  0.2801 -0.2132 -0.0266
 8554W        W27408   5.503   5.317   2.025  0.0139  0.0481  0.1212
 8555W        W27409   7.309  18.410  11.252  0.2936 -0.3033 -0.1403
 8556W        W27410  11.444  11.986   3.687 -0.0708  0.2296 -0.1581
 8557W        W27411   1.383   8.955  15.095  0.3042  0.0094  0.2033
 8558W        W27412  17.381  16.195  11.222  0.3018 -0.1928 -0.2845
 8559W        W27413   3.097   9.774   1.150  0.0555  0.0108 -0.1863
 8560W        W27414   5.829   5.144   0.916 -0.0191  0.0195 -0.0394
 8561W        W27415   5.961   4.963   0.465  0.0133 -0.0066  0.0401
 8562W        W27416   0.599  11.628  11.921  0.1142  0.1007  0.0197
 8563W        W27417   4.677   6.418  15.045  0.0615  0.0312  0.2997
 8564W        W27418   0.468   0.466  13.248 -0.1792  0.0775  0.1237
 8565W        W27419   9.974  12.451   3.391  0.2206  0.0578  0.0033
 8566W        W27420   4.238   0.648   0.893  0.0255 -0.1299  0.1853
 8567W        W27421   8.438  16.475  11.652 -0.1742 -0.0516  0.0160
 8568W        W27422   8.746   7.917  13.147 -0.1316  0.1282  0.2042
 8569W        W27423  17.072  16.522   4.519  0.1361 -0.1487  0.2821
 8570W        W27424  13.687   5.748  12.220 -0.0247  0.2606 -0.0847
 8571W        W27425   0.704   3.558   1.410 -0.0360  0.2628  0.0767
 8572W        W27426  14.597   9.402  14.317 -0.2973 -0.0199 -0.0218
 8573W        W27427   6.035  15.000  14.186  0.0126 -0.3714  0.0118
 8574W        W27428  10.195  12.261   1.054 -0.1266  0.1569 -0.0000
 8575W        W27429  16.491  14.648  11.289  0.3472 -0.0662  0.4998
 8576W        W27430  11.328   9.745   3.483  0.0288 -0.1289  0.2626
 8577W        W27431  15.528   3.324  14.952 -0.0893 -0.1465 -0.4276
 8578W        W27432   4.811  15.222  15.044 -0.1134  0.3810 -0.3504
 8579W        W27433  13.256  14.209   4.607  0.0444  0.2915  0.0244
 8580W        W27434  12.921  13.807  14.686 -0.1075  0.2989  0.2460
 8581W        W27435  10.971  14.693   1.642 -0.3257  0.4137  0.2518
 8582W        W27436  12.928   1.088  14.146 -0.0465  0.0047  0.0950
 8583W        W27437  12.115   8.216   3.584  0.0979  0.4112 -0.1320
 8584W        W27438   8.721   8.046  10.857  0.5869 -0.3073  0.0463
 8585W        W27439   2.170  11.689   2.109 -0.4938  0.4349  0.0788
 8586W        W27440  18.130   3.998   0.561 -0.1620  0.1910  0.2196
 8587W        W27441   8.981  13.769   4.384  0.2398 -0.0918 -0.1066
 8588W        W27442   3.720   1.292  14.529 -0.0017 -0.1645 -0.1481
 8589W        W27443  14.000   9.119  11.413 -0.2965 -0.1043 -0.1019
 8590W        W27444   1.114   8.799  12.472  0.0100 -0.1044  0.2397
 8591W        W27445  18.553   5.735   0.655 -0.1638  0.0573  0.2560
 8592W        W27446   9.334  10.894  11.385  0.0016 -0.0326  0.1725
 8593W        W27447   9.248   9.021  14.894  0.2831  0.1272  0.2077
 8594W        W27448  11.783  16.636   4.437  0.1205  0.1670  0.1155
 8595W        W27449  13.245  16.341   4.628 -0.5283 -0.0429  0.2286
 8596W        W27450   6.986   0.961  12.537  0.4706  0.3617 -0.2335
 8597W        W27451  13.007   8.140   0.186 -0.5191 -0.2540 -0.0186
 8598W        W27452   6.321  16.062  15.058  0.1230 -0.0693 -0.1020
 8599W        W27453   7.403   1.766  12.108  0.2169  0.3386  0.0865
 8600W        W27454  14.060   3.614  12.131  0.1518 -0.0775 -0.0432
 8601W        W27455  18.346   3.788   2.992 -0.0767  0.0196 -0.2748
 8602W        W27456  11.158   6.178   2.018  0.0232  0.3841 -0.1604
 8603W        W27457   4.776   7.758   3.610 -0.2179 -0.0120 -0.1310
 8604W        W27458   2.506   1.381  13.116 -0.4160 -0.0094 -0.1097
 8605W        W27459   2.403   7.060   1.683 -0.2590  0.0338  0.0283
 8606W        W27460  17.968  11.995  13.163  0.2279  0.1710  0.0064
 8607W        W27461   0.372  14.857   0.281  0.0211  0.2461  0.0628
 8608W        W27462   2.837   4.432  14.824 -0.2866  0.1576 -0.0349
 8609W        W27463   5.060  14.881   3.039 -0.0064  0.4889 -0.1299
 8610W        W27464  11.857  16.223   0.922  0.0067 -0.2481 -0.6396
 8611W        W27465  10.530  10.279  15.311  0.1825  0.0510  0.0108
 8612W        W27466  14.195   5.782  13.326  0.0927 -0.2213  0.2729
 8613W        W27467   1.411  17.395   2.034 -0.0359  0.4497  0.0592
 8614W        W27468   2.770   4.662  12.581 -0.0214  0.1238 -0.1699
 8615W        W27469  17.991   3.229  10.466  0.0038 -0.2667  0.0317
 8616W        W27470   3.512  12.425  11.553  0.0023 -0.4789  0.3227
 8617W        W27471  14.331   8.240  12.224 -0.1921 -0.2932 -0.2070
 8618W        W27472  14.187   2.555  11.180  0.1395  0.0831  0.0431
 8619W        W27473  10.675  16.472  11.728  0.0775  0.0421 -0.2837
 8620W        W27474   9.259  12.639  14.202  0.2287 -0.2050 -0.0538
 8621W        W27475  10.737  12.850   0.813  0.0281 -0.0049  0.1529
 8622W        W27476  11.008   8.167   2.004  0.1210 -0.0131  0.2682
 8623W        W27477   3.407   6.742   3.462  0.0123  0.0721  0.3267
 8624W        W27478  10.299  14.414  11.951  0.0329 -0.3723 -0.2436
 8625W        W27479   3.819   6.409  14.560 -0.1092 -0.0639  0.0227
 8626W        W27480   6.631  15.591   1.522  0.0430 -0.1185 -0.3088
 8627W        W27481  16.009  18.020  14.466  0.0129  0.0206  0.0891
 8628W        W27482   2.808   1.322   2.021  0.2065 -0.0250 -0.0152
 8629W        W27483   8.166  17.876   3.511 -0.2229  0.0396  0.0089
 8630W        W27484   7.116   7.518  13.267 -0.0016 -0.0509  0.0922
 8631W        W27485  12.172  13.573  14.375  0.0252  0.0604 -0.0321
 8632W        W27486   0.826  10.347  14.084 -0.1200  0.0940 -0.1679
 8633W        W27487  14.773   5.172  11.385 -0.0269 -0.2692  0.1236
 8634W        W27488  18.017  10.369   5.308  0.3989 -0.1212 -0.0883
 8635W        W27489   0.097   2.341   1.366  0.2230  0.0163  0.0687
 8636W        W27490  15.247   2.630   3.396  0.1031  0.1538 -0.0913
 8637W        W27491   7.154   3.499  11.831  0.1418  0.0368  0.0512
 8638W        W27492  16.605  11.620   4.326  0.1259  0.2260  0.2243
 8639W        W27493   7.682   5.637   5.031  0.2183 -0.1502  0.1350
 8640W        W27494   5.956  16.022  10.625  0.0448 -0.2548  0.1712
 8641W        W27495  12.685   2.496   2.112 -0.1315 -0.0646 -0.0986
 8642W        W27496  14.269   3.914  15.430  0.0150 -0.2243  0.1798
 8643W        W27497   9.811  16.617  11.785  0.1117  0.0813 -0.0853
 8644W        W27498  12.581   1.442   3.897 -0.2084 -0.2761  0.1416
 8645W        W27499   4.823  14.924  14.617 -0.1469 -0.0123  0.1012
 8646W        W27500   8.107  11.655  15.433 -0.0425  0.0506 -0.2672
 8647W        W27501   4.397  10.125   0.874  0.1990  0.2244 -0.0491
 8648W        W27502  18.082  12.373  11.094  0.0248 -0.0368  0.3431
 8649W        W27503  17.450  15.713  11.309 -0.0794  0.1130  0.0696
 8650W        W27504   0.379  13.634   2.664 -0.2829 -0.3042  0.0660
 8651W        W27505   4.991  16.645  14.920  0.0339  0.0215  0.1003
 8652W        W27506  13.700  15.797   4.774  0.1938 -0.0668  0.2847
 8653W        W27507  12.410   8.221  14.045 -0.4265 -0.1488  0.0137
 8654W        W27508   6.409   0.774  11.701 -0.0665 -0.1230 -0.0921
 8655W        W27509   9.713   7.731   5.615  0.2414 -0.1387  0.0690
 8656W        W27510   0.652   8.416  13.463 -0.0663  0.0802  0.0143
 8657W        W27511  16.337   6.553  13.831 -0.0947 -0.2051  0.2552
 8658W        W27512   2.867   2.813   2.828  0.1381  0.1205  0.4094
 8659W        W27513  11.344   9.854   0.341 -0.2865  0.2213  0.0255
 8660W        W27514  15.785  18.391  11.259  0.2795 -0.2733  0.3034
 8661W        W27515  16.532  17.649  13.278  0.4267 -0.3057 -0.0790
 8662W        W27516   8.235  17.531   3.137  0.0391  0.1557 -0.2441
 8663W        W27517  16.749  10.004  14.698 -0.1198  0.1017 -0.2890
 8664W        W27518  16.087   4.519  12.098 -0.0253 -0.3183  0.0806
 8665W        W27519   6.401  13.599   2.012  0.0127 -0.3115  0.0395
 8666W        W27520   9.042  17.695  13.854  0.0320  0.2499 -0.0581
 8667W        W27521   3.945  18.254   1.139  0.0881  0.0179  0.3608
 8668W        W27522  14.284   9.507   2.858 -0.0906  0.4466  0.1657
 8669W        W27523  15.168   5.320  14.874 -0.2188 -0.0190  0.1351
 8670W        W27524  13.879  15.271   0.268  0.1855 -0.0047 -0.0642
 8671W        W27525   8.927   7.843   1.645 -0.0372  0.4260 -0.0104
 8672W        W27526   8.194   4.870  14.302 -0.0955  0.2105 -0.0316
 8673W        W27527   2.033  18.047  11.876 -0.1039 -0.1369  0.0917
 8674W        W27528   1.471  15.731   0.748  0.2629  0.0618  0.0794
 8675W        W27529   9.652   9.930  14.092  0.0630 -0.0175  0.1474
 8676W        W27530  12.181   3.268   4.389 -0.1239 -0.1753  0.3144
 8677W        W27531  17.747   1.288  13.373 -0.0470  0.1838  0.1289
 8678W        W27532  10.022   6.890  13.722  0.0443 -0.0743  0.1498
 8679W        W27533   1.126  14.082  14.375 -0.1702 -0.2328  0.0624
 8680W        W27534  12.528  17.946   2.417  0.0420 -0.0334 -0.0539
 8681W        W27535  10.141   2.807   0.508  0.0062 -0.1622 -0.1713
 8682W        W27536  13.296  14.650  13.446  0.1166 -0.4387 -0.1971
 8683W        W27537  14.161   1.526   4.667 -0.1086  0.0673 -0.2993
 8684W        W27538  11.822   2.772   0.625  0.0488 -0.0197 -0.0231
 8685W        W27539   7.537  12.115   4.367 -0.0998  0.1109 -0.1664
 8686W        W27540  10.086   3.579  13.126  0.2343 -0.0976 -0.3095
 8687W        W27541  10.474  11.719  15.075  0.1422 -0.2678  0.0285
 8688W        W27542  12.930   8.145   1.290  0.1572  0.2032  0.0606
 8689W        W27543  11.872  12.831   3.857  0.2629 -0.1655  0.4793
 8690W        W27544   9.919  14.645   1.877 -0.2655  0.1335 -0.3293
 8691W        W27545   9.298  13.124   0.841  0.0598 -0.2745  0.2120
 8692W        W27546  12.049   7.274   1.688  0.0402 -0.1512  0.0180
 8693W        W27547  11.039   3.608   0.319  0.3033  0.1043 -0.1982
 8694W        W27548   9.472   6.619  15.179  0.1967  0.3148 -0.0029
 8695W        W27549  15.434   6.872  12.745  0.2945  0.0405 -0.0632
 8696W        W27550   4.354  11.501  15.325 -0.0808 -0.0685  0.0944
 8697W        W27551  12.162   8.194  13.298  0.4231 -0.2487 -0.2343
 8698W        W27552  15.837   1.159   4.272 -0.1296  0.0100 -0.3702
 8699W        W27553  16.572   2.591   3.176 -0.2170  0.0284  0.1715
 8700W        W27554   1.945   7.809  12.403  0.0355  0.0477  0.0903
 8701W        W27555  12.087   7.108  14.064 -0.0182  0.1546  0.1520
 8702W        W27556   2.139  18.517  14.812  0.1261 -0.1215  0.1756
 8703W        W27557   2.487  13.946   1.710 -0.0040  0.0227 -0.0602
 8704W        W27558   7.316   1.802   1.542  0.1601 -0.1115 -0.0174
 8705W        W27559  18.508  17.427  15.375  0.0545  0.0347 -0.1209
 8706W        W27560  11.891  16.896  13.328 -0.1530 -0.0253  0.0463
 8707W        W27561   3.209   2.439  14.706  0.3539  0.1254 -0.0934
 8708W        W27562  16.703  13.852  12.151  0.1086 -0.1509  0.0922
 8709W        W27563  12.513  13.233   1.082 -0.1505  0.0302 -0.0680
 8710W        W27564  13.987   2.964   4.164 -0.0620 -0.1825 -0.3381
 8711W        W27565   3.426   5.248   2.931 -0.1892  0.0166 -0.0181
 8712W        W27566   4.193  13.937   2.408  0.0069 -0.2464 -0.1241
 8713W        W27567   8.989   0.800  12.359 -0.0340  0.0909 -0.0319
 8714W        W27568  13.361  12.094   0.543  0.5547 -0.0471 -0.0500
 8715W        W27569  11.003   4.025   2.219 -0.2469 -0.0209  0.0135
 8716W        W27570  13.360   0.793   0.878  0.2084 -0.1743 -0.2117
 8717W        W27571  10.768  16.690   4.001  0.1431  0.0198  0.0967
 8718W        W27572   0.718   6.922   0.756 -0.0842  0.0533 -0.0489
 8719W        W27573   6.039   4.176   2.459  0.0788  0.0359  0.3073
 8720W        W27574   8.336   8.248  12.229 -0.1158  0.0918 -0.1209
 8721W        W27575  14.658   1.275   3.746 -0.1732 -0.3979  0.1130
 8722W        W27576   7.752  10.237   2.726  0.0599  0.0865  0.2742
 8723W        W27577   0.084  13.938  11.962 -0.1156  0.1756 -0.0741
 8724W        W27578   1.164   1.195   2.916  0.0067  0.0130  0.0384
 8725W        W27579   7.064  17.919  13.845 -0.1101  0.0631  0.0733
 8726W        W27580   7.080   1.852   2.528 -0.0363  0.1147 -0.0551
 8727W        W27581   4.792   9.392  12.717  0.0789 -0.1082 -0.0321
 8728W        W27582   0.796   6.760  14.608 -0.0103 -0.2598  0.3078
 8729W        W27583   1.459   2.449  11.396 -0.0902  0.0325  0.2467
 8730W        W27584  13.105   8.271   4.544 -0.0754  0.1284 -0.0790
 8731W        W27585  12.932   7.430  15.247  0.3597  0.0418 -0.2865
 8732W        W27586  13.819   5.054   3.227 -0.0633  0.3333  0.0664
 8733W        W27587  18.225  15.259   3.184 -0.2358  0.0421  0.0687
 8734W        W27588   5.837  17.195  11.819  0.3973  0.0854 -0.1939
 8735W        W27589   5.855   5.734  14.588  0.1083 -0.4396 -0.1960
 8736W        W27590  15.674   5.602  13.450 -0.2435 -0.1982 -0.0318
 8737W        W27591   3.484  17.817   4.935  0.0602  0.0531  0.2581
 8738W        W27592   8.459   1.980   1.247 -0.2990 -0.1474  0.0101
 8739W        W27593  15.185   7.207  13.697 -0.0777 -0.4548  0.0025
 8740W        W27594   4.444   7.953  11.497 -0.0529  0.1579  0.0114
 8741W        W27595  13.235   8.672  13.062  0.1423 -0.0916 -0.1163
 8742W        W27596   6.276   8.339   0.032 -0.0894 -0.5029 -0.0459
 8743W        W27597   8.912   3.228  11.214 -0.1549  0.2062 -0.1649
 8744W        W27598  12.505  15.071  15.455 -0.0032 -0.2421  0.0187
 8745W        W27599   3.281   6.734   0.127 -0.3143  0.2927 -0.2290
 8746W        W27600   6.068   4.327  13.292  0.1598 -0.1240 -0.1761
 8747W        W27601   0.017  14.913  10.947 -0.1344  0.0869  0.0372
 8748W        W27602   4.185  17.778   1.162 -0.0173 -0.2762 -0.1585
 8749W        W27603   4.287   9.232  12.528  0.1385 -0.0681 -0.0078
 8750W        W27604  13.329   5.986   0.546 -0.0164  0.0928  0.1350
 8751W        W27605   5.104   5.711   2.194 -0.2370  0.0759  0.0161
 8752W        W27606  14.758   3.766  15.321 -0.0361 -0.2269  0.2222
 8753W        W27607  12.980  11.660   2.562  0.0713 -0.1275 -0.1301
 8754W        W27608  11.465   9.933  14.015 -0.0250 -0.1717  0.4172
 8755W        W27609   9.355   3.648   2.687  0.1915  0.4016 -0.0428
 8756W        W27610  11.134  14.944   0.129  0.0061 -0.2374  0.2171
 8757W        W27611  11.859   2.850  13.852 -0.1560  0.1921 -0.3412
 8758W        W27612  14.292  15.712   4.214 -0.0288 -0.1434 -0.0865
 8759W        W27613   5.502  16.683   0.163 -0.3550 -0.1194 -0.0921
 8760W        W27614   5.842   0.074   0.929 -0.2520  0.1510 -0.0708
 8761W        W27615   1.312   6.789  15.405 -0.0331  0.2284 -0.2518
 8762W        W27616   9.299  17.031  10.836  0.1244  0.0707 -0.1765
 8763W        W27617   8.715   4.527  15.434  0.1076 -0.1589  0.0637
 8764W        W27618  15.589   3.861   3.653 -0.3506 -0.1903 -0.0578
 8765W        W27619   4.896   3.779   1.081 -0.1219  0.0823  0.1633
 8766W        W27620   3.915  12.074  11.757  0.1636 -0.2454  0.3710
 8767W        W27621  16.208  17.547   1.397  0.4770  0.0177 -0.1997
 8768W        W27622  11.151   7.944  15.298 -0.1967 -0.1009 -0.1374
 8769W        W27623  16.973  18.229  11.848  0.0069 -0.1374  0.1316
 8770W        W27624  14.171   9.535   0.347 -0.3713 -0.5823  0.1443
 8771W        W27625  15.518   2.998  12.652 -0.1516 -0.0725 -0.0764
 8772W        W27626   8.520   8.747   0.559  0.1650  0.0259 -0.1390
 8773W        W27627   8.203   8.442   4.391  0.1319  0.1350  0.0093
 8774W        W27628   7.088  13.571   4.001  0.0914  0.0234 -0.1202
 8775W        W27629   2.736   8.147   4.090 -0.2347 -0.2436 -0.3160
 8776W        W27630   8.789   4.721   0.974 -0.3922  0.0201  0.3054
 8777W        W27631   1.822   3.592   0.021 -0.0360  0.0798  0.0960
 8778W        W27632   0.472  15.671  14.273 -0.1796 -0.1307  0.1401
 8779W        W27633   9.802   5.282   5.372 -0.1863  0.0371  0.0543
 8780W        W27634  13.351   8.924  13.546 -0.1915  0.1596 -0.1299
 8781W        W27635   3.651   0.257   3.954  0.0542 -0.1479  0.1991
 8782W        W27636  11.479   7.170  14.232 -0.0996  0.0037 -0.0376
 8783W        W27637   8.601  14.394  12.492  0.0300  0.0357  0.1811
 8784W        W27638   6.682   9.422   1.282 -0.1482 -0.1699  0.3763
 8785W        W27639   2.401   5.009  12.743  0.2710  0.0576 -0.1793
 8786W        W27640   9.673   8.857   3.543  0.0080  0.0593 -0.0164
 8787W        W27641  16.433  13.945   3.517  0.3862 -0.1722  0.1770
 8788W        W27642   5.062  16.035  13.206  0.3866  0.0826 -0.2202
 8789W        W27643   6.226  10.717   0.663  0.0025 -0.0073  0.0376
 8790W        W27644  11.262   2.817  15.298  0.0886  0.0605  0.0467
 8791W        W27645   3.299  16.958   4.329 -0.2044  0.0509  0.1078
 8792W        W27646   8.923  16.026   1.434 -0.0754 -0.2229  0.2318
 8793W        W27647  16.139  16.829   3.890 -0.1006  0.1324  0.1772
 8794W        W27648   2.368   3.654   2.899 -0.0365 -0.1468 -0.0187
 8795W        W27649  16.195   7.679  10.622 -0.1740  0.0103  0.0867
 8796W        W27650   3.207  14.411   0.016 -0.1661  0.1698  0.1510
 8797W        W27651   7.677  15.097   4.569  0.2543  0.2584  0.2282
 8798W        W27652  14.787  11.616   1.246  0.0859 -0.0888 -0.0259
 8799W        W27653  11.720  17.189   1.862 -0.1378  0.0627  0.0492
 8800W        W27654  10.141   4.232   1.961  0.0317  0.2090  0.1256
 8801W        W27655   8.519   1.695   0.842 -0.0010 -0.2385 -0.1461
 8802W        W27656  12.528   4.084  13.806  0.1637 -0.0603  0.0899
 8803W        W27657  11.902  14.453  15.432 -0.1627 -0.1494  0.2539
 8804W        W27658   7.536  13.408  14.257 -0.0193  0.2278  0.1562
 8805W        W27659  11.368   4.526  11.950 -0.0943 -0.4012  0.5790
 8806W        W27660  14.916   2.989   0.451  0.0171  0.0089  0.0067
 8807W        W27661  16.355   7.234  13.181 -0.2734  0.0712  0.0032
 8808W        W27662  15.499  16.743  11.444 -0.3726 -0.0211  0.0336
 8809W        W27663  11.239   6.683   0.080 -0.0330 -0.3205  0.2391
 8810W        W27664   4.940  17.335  13.908  0.0906 -0.1899  0.0567
 8811W        W27665   2.904  10.160   2.381  0.1685 -0.0452  0.0648
 8812W        W27666   7.642  11.094  12.776  0.1284 -0.2267  0.2698
 8813W        W27667  10.395  10.135   0.470 -0.2105  0.1424  0.1264
 8814W        W27668   8.524   1.671  12.981 -0.0837  0.1002  0.3219
 8815W        W27669  17.158  15.608  11.744 -0.2171  0.2345  0.0517
 8816W        W27670  17.905  16.188  11.767 -0.0156  0.0599  0.1486
 8817W        W27671  10.672  12.025  13.705 -0.0182  0.1552  0.0389
 8818W        W27672   0.165   1.436   1.671  0.1454 -0.1752 -0.1983
 8819W        W27673   3.775   3.020  13.947 -0.0738 -0.0957  0.0829
 8820W        W27674   6.138   1.873  14.125 -0.2337  0.2815 -0.3784
 8821W        W27675  10.389  15.912   1.636  0.0770  0.2440 -0.0561
 8822W        W27676  13.656  14.740   3.547 -0.1972 -0.0237  0.0339
 8823W        W27677  15.501   4.500   1.799 -0.1645  0.1250  0.2163
 8824W        W27678   0.089  11.249  10.646  0.3835  0.0649 -0.2995
 8825W        W27679   5.551  14.266   9.808  0.1186 -0.0935 -0.1945
 8826W        W27680   1.131   9.412   2.420  0.1644 -0.0661  0.0594
 8827W        W27681  10.524  17.457  10.340  0.4068 -0.1730 -0.2514
 8828W        W27682  10.043  11.212  11.999  0.0921  0.1614  0.2921
 8829W        W27683   9.286  11.331   3.369  0.0231 -0.2487  0.0222
 8830W        W27684  16.826  16.030   0.024  0.0943  0.0856  0.2088
 8831W        W27685   6.543  15.342  12.335  0.1326  0.0292  0.0698
 8832W        W27686   8.613  13.890   1.387 -0.1812 -0.1442  0.1294
 8833W        W27687  13.404   3.663  13.441  0.0012  0.1988  0.1090
 8834W        W27688   6.067   9.594  11.389  0.3282 -0.1326 -0.1076
 8835W        W27689   1.456  13.061   0.343  0.1228  0.2494 -0.1573
 8836W        W27690  12.691  14.592  15.304 -0.0071  0.1129  0.0440
 8837W        W27691   9.200  18.280  12.184  0.0081  0.1337 -0.1206
 8838W        W27692  15.810  16.004  13.480 -0.0684 -0.0575 -0.0457
 8839W        W27693  17.447   4.628   0.108 -0.2426 -0.0667  0.0686
 8840W        W27694  13.506   4.581  13.319 -0.2117  0.0564 -0.1054
 8841W        W27695   9.804  15.290   1.259  0.1620  0.1660 -0.1943
 8842W        W27696  14.519   4.606  15.113 -0.0309 -0.2101 -0.1088
 8843W        W27697   6.602   2.567   2.440  0.0240 -0.0644 -0.1103
 8844W        W27698  11.355  12.252   2.634  0.0398 -0.1094  0.0443
 8845W        W27699  13.503   1.527  14.790  0.1437 -0.0316  0.2000
 8846W        W27700  15.731  11.345   4.760 -0.1132  0.0304 -0.2360
 8847W        W27701  12.970  10.241   4.227  0.1386 -0.1423 -0.0649
 8848W        W27702  15.097   4.627  14.354  0.1094 -0.2055  0.2017
 8849W        W27703  14.314   8.793   3.833  0.1951 -0.2587 -0.1461
 8850W        W27704   4.237   7.806  12.662 -0.0260  0.0047 -0.1261
 8851W        W27705  12.131   4.054  13.006 -0.1598 -0.0383  0.1610
 8852W        W27706   3.454  10.763  14.403 -0.1180 -0.1226  0.1557
 8853W        W27707  15.501  16.239  13.884  0.1906  0.1148 -0.3832
 8854W        W27708  11.467  18.553   0.726 -0.1291  0.0925 -0.0436
 8855W        W27709   1.953  17.394   0.003 -0.1013 -0.0186 -0.1054
 8856W        W27710   8.797  12.574  14.025  0.3426  0.0670 -0.1053
 8857W        W27711  12.856  18.187  14.895  0.0540 -0.1396  0.0159
 8858W        W27712   0.394   0.409  14.990 -0.1839  0.0094 -0.4253
 8859W        W27713  12.984   9.789  15.268 -0.1866 -0.1486  0.1175
 8860W        W27714   5.046   1.209   1.205 -0.0150 -0.3645 -0.3406
 8861W        W27715  17.668   2.919   2.575  0.0234 -0.1788  0.0347
 8862W        W27716  10.876  10.950   2.579 -0.2218 -0.2383  0.0381
 8863W        W27717  10.212   2.191  10.661  0.1838 -0.0070  0.1886
 8864W        W27718   1.563  14.993   2.470 -0.0321 -0.0384 -0.4136
 8865W        W27719   0.522  16.507  10.094  0.0850  0.1685 -0.1878
 8866W        W27720   5.351  14.434   1.081 -0.2546  0.0067 -0.0658
 8867W        W27721   6.661  10.458   4.675  0.0809  0.0475 -0.0370
 8868W        W27722  16.737  12.575  13.863  0.0477 -0.0364 -0.1672
 8869W        W27723   0.447  11.908   1.225  0.2865 -0.0409 -0.2789
 8870W        W27724  14.124  14.910   3.641 -0.1040  0.0850  0.0519
 8871W        W27725   6.187   2.424   0.604 -0.6297 -0.3677 -0.0168
 8872W        W27726   1.260  14.336  11.884 -0.0944  0.0479 -0.1427
 8873W        W27727  16.268   5.197  12.911 -0.3604 -0.1639 -0.1050
 8874W        W27728  13.402   6.716   5.250  0.0593 -0.1394  0.2743
 8875W        W27729  17.296   9.044  15.438  0.0749 -0.0825 -0.0954
 8876W        W27730   4.279   2.782  13.973 -0.0996  0.0650  0.0308
 8877W        W27731  15.791   7.564   3.013  0.1159 -0.1986 -0.0401
 8878W        W27732   7.389   7.653  12.914 -0.0520 -0.3387  0.1932
 8879W        W27733   5.304   0.220  11.215  0.1112 -0.2917 -0.1199
 8880W        W27734  14.265   5.737   0.130  0.1466  0.0155  0.0512
 8881W        W27735  11.971  14.911   1.576 -0.1649 -0.1275  0.0179
 8882W        W27736   6.259  14.649   2.178 -0.0111  0.0252 -0.3061
 8883W        W27737   7.154  14.900  11.190  0.1953 -0.1071  0.3418
 8884W        W27738  15.145  12.703   1.012  0.0050 -0.0175 -0.0623
 8885W        W27739   7.065   1.868   0.386  0.1473  0.1011  0.3427
 8886W        W27740  10.442   1.721  15.405  0.0460 -0.2803 -0.1634
 8887W        W27741   6.871   2.337  14.925  0.1568 -0.1180 -0.1164
 8888W        W27742   3.130   8.746  13.586  0.0820  0.1731 -0.2685
 8889W        W27743  14.674   9.503  12.477 -0.0665 -0.2481 -0.1648
 8890W        W27744   0.046   6.563   3.707 -0.2929 -0.1955  0.1760
 8891W        W27745  14.994  10.718   4.007  0.3532 -0.1717  0.3086
 8892W        W27746   5.035  11.021   0.093  0.0170 -0.1094 -0.4234
 8893W        W27747  12.098   2.809   1.153  0.0477 -0.0692 -0.2038
 8894W        W27748   6.068   6.864   1.823 -0.0772  0.2775 -0.3732
 8895W        W27749  11.066   4.467  12.401 -0.2242 -0.0902  0.1570
 8896W        W27750   9.406   3.811  12.759 -0.0539  0.2070  0.0249
 8897W        W27751   1.245   4.253  14.654 -0.0577  0.3100  0.1430
 8898W        W27752  16.846   6.392  10.175  0.0505 -0.0915 -0.1366
 8899W        W27753   1.537   7.310  15.348  0.1669  0.1799  0.0764
 8900W        W27754  15.815   5.513   1.716  0.1560 -0.0401 -0.1379
 8901W        W27755   6.636  18.365   2.752 -0.2103  0.2426  0.1713
 8902W        W27756   9.186  10.731   0.205  0.3218  0.0847  0.0798
 8903W        W27757   3.332   2.675   0.915  0.1993  0.0414  0.0262
 8904W        W27758   7.847  15.440   3.179 -0.0357 -0.5327 -0.0312
 8905W        W27759   1.172   0.900  11.828  0.2544  0.3183 -0.1413
 8906W        W27760   8.536   5.250   3.834  0.2354 -0.2806  0.0710
 8907W        W27761  10.195  11.238   1.412  0.0633 -0.3582  0.0478
 8908W        W27762   5.650  12.656  12.361 -0.1968 -0.0746 -0.3440
 8909W        W27763  17.856   7.160   2.734  0.1438 -0.3021 -0.3372
 8910W        W27764   5.159   6.407   2.792  0.1472  0.0628  0.0808
 8911W        W27765   7.754   9.819   1.779  0.0095  0.0668 -0.1750
 8912W        W27766   0.206   0.003  13.187 -0.2849  0.1401 -0.3043
 8913W        W27767  18.482   9.384   4.169  0.2351  0.1117 -0.3219
 8914W        W27768   7.194  18.110   0.900 -0.0348 -0.3646 -0.0450
 8915W        W27769   1.467  13.084   3.090 -0.0756 -0.2176  0.2825
 8916W        W27770   5.282  13.018  15.246 -0.4719 -0.0020  0.1810
 8917W        W27771  15.161  15.099  10.839  0.1043 -0.1421 -0.0073
 8918W        W27772  15.503   6.738   3.668 -0.4595 -0.1702 -0.0778
 8919W        W27773   8.721   4.990   4.197 -0.0798 -0.0540  0.3142
 8920W        W27774   6.482   4.777   3.094  0.1024 -0.1005  0.0610
 8921W        W27775   5.911   7.506   0.961  0.0687  0.5732 -0.0428
 8922W        W27776  16.187   4.852  12.417 -0.0871  0.2733  0.0255
 8923W        W27777   6.079  17.000  14.883 -0.0856  0.2031 -0.0853
 8924W        W27778   6.921  18.018  13.415  0.1089 -0.0462 -0.0227
 8925W        W27779  12.242   1.076   5.728 -0.2192 -0.3058 -0.2351
 8926W        W27780   8.883   2.615  13.293  0.1201  0.1363  0.0206
 8927W        W27781  12.699   4.634  14.931  0.0112  0.3285 -0.1688
 8928W        W27782   0.881  15.435  10.636  0.0139  0.1779  0.0060
 8929W        W27783  10.241   8.816   3.989 -0.0378 -0.4397 -0.0014
 8930W        W27784   6.081   8.154  14.696 -0.1703 -0.0047 -0.2310
 8931W        W27785   2.241  17.779   2.916 -0.0386  0.1968  0.1535
 8932W        W27786   6.349   1.103  15.053 -0.1672  0.0808 -0.0538
 8933W        W27787   8.892   6.473   2.070  0.1273  0.2328 -0.1209
 8934W        W27788  12.231   0.147   3.506 -0.0266 -0.3373  0.1535
 8935W        W27789  14.972  16.526  11.237  0.1480 -0.0411 -0.0055
 8936W        W27790   4.633  11.590  12.160 -0.0616  0.0493 -0.0602
 8937W        W27791  15.902  10.365   3.708 -0.0957  0.0195  0.1732
 8938W        W27792  10.482   2.724  11.914  0.2142  0.3793 -0.0612
 8939W        W27793   0.621   3.823   3.127 -0.3437  0.1792 -0.2933
 8940W        W27794   4.191   1.422   2.514  0.0568 -0.0699 -0.1839
 8941W        W27795   7.287   8.267   1.651 -0.5093  0.0470  0.3190
 8942W        W27796  15.945   5.672  12.074 -0.0452 -0.1109  0.1191
 8943W        W27797   8.341   5.870  11.293 -0.0108 -0.2001  0.0068
 8944W        W27798   9.268  14.214  12.254  0.0117 -0.0185  0.2859
 8945W        W27799  17.675   1.824  14.907  0.1231 -0.0129  0.3250
 8946W        W27800  11.430   1.814  13.801  0.3228  0.1124  0.0216
 8947W        W27801  13.955   4.390   0.558  0.1044 -0.0242  0.0610
 8948W        W27802   5.633   1.396  10.712 -0.0733  0.0617 -0.2845
 8949W        W27803   8.338   4.514   4.515 -0.1279 -0.0234  0.1675
 8950W        W27804  18.215  15.861   2.605 -0.0165  0.4335 -0.0587
 8951W        W27805   9.269  10.725  13.690  0.0405 -0.0744 -0.0099
 8952W        W27806  16.820   1.335   9.936 -0.1361  0.0962  0.2548
 8953W        W27807  16.960   0.040  10.544 -0.0614 -0.2416 -0.3067
 8954W        W27808  12.730   8.848  15.311 -0.2280  0.1276  0.0790
 8955W        W27809   1.500  17.941  11.917 -0.0693 -0.0743  0.1063
 8956W        W27810  10.274  16.968   2.739  0.1346 -0.0164 -0.1094
 8957W        W27811  16.753  12.666   1.991 -0.1201  0.0314 -0.0769
 8958W        W27812   8.046  13.682   3.759  0.3530  0.0797  0.1402
 8959W        W27813   8.608   1.741   2.280  0.0026  0.1421 -0.1488
 8960W        W27814   5.865  10.925   2.955  0.0858 -0.1509  0.0438
 8961W        W27815   8.190  12.291   4.355  0.1872  0.0732 -0.1534
 8962W        W27816  16.871  17.009   4.553 -0.1611  0.1342 -0.1924
 8963W        W27817   9.065   4.996   4.581  0.2694  0.0057  0.0314
 8964W        W27818  17.451   6.935   2.166  0.2363 -0.0760 -0.4568
 8965W        W27819   6.975   6.587  13.677  0.0613 -0.4957  0.1538
 8966W        W27820   0.990   1.059   1.143  0.0580  0.2249 -0.0106
 8967W        W27821  15.718  12.222  12.646 -0.1993 -0.1316 -0.1743
 8968W        W27822   5.397   5.071  15.133 -0.2464  0.2684 -0.0467
 8969W        W27823  10.464   8.414  12.255  0.1491 -0.2981  0.0088
 8970W        W27824   6.554  17.324  13.205  0.1753 -0.2518  0.2325
 8971W        W27825   0.846  14.922   3.221 -0.2960  0.2401 -0.2421
 8972W        W27826   7.692   2.979  13.012 -0.0224 -0.1780  0.1639
 8973W        W27827   9.915   3.206   4.970 -0.2377  0.3683 -0.3821
 8974W        W27828  11.239  11.137  13.841  0.3199  0.0951 -0.1086
 8975W        W27829   3.887  16.080  12.980  0.1395 -0.3917 -0.2574
 8976W        W27830   4.076   5.114   3.617 -0.1346  0.3553 -0.1278
 8977W        W27831  13.789  16.625  13.856 -0.0641 -0.1457  0.1203
 8978W        W27832   3.889   1.029  13.198 -0.1816  0.2637  0.7389
 8979W        W27833   7.322  12.987   4.012 -0.2641 -0.1748  0.2347
 8980W        W27834   8.952  17.763   4.267 -0.0178  0.4420  0.1354
 8981W        W27835  12.788  13.696  12.361  0.1220 -0.0685 -0.1950
 8982W        W27836   0.113  12.110  11.811 -0.1978 -0.3228 -0.0506
 8983W        W27837   5.750   2.381  12.372 -0.1058  0.1064 -0.1488
 8984W        W27838   8.095   7.028  11.637 -0.2266 -0.0662  0.0299
 8985W        W27839   0.949  14.925  12.331  0.3931 -0.0422 -0.2518
 8986W        W27840   9.843  15.299  14.090 -0.1954 -0.1639  0.1241
 8987W        W27841  14.404  15.154   5.002  0.0965 -0.0490 -0.1571
 8988W        W27842  10.385  15.306  14.984 -0.1392 -0.0572 -0.5704
 8989W        W27843  13.454   3.787   0.513  0.0975 -0.1957 -0.0601
 8990W        W27844   8.926   8.826  12.903 -0.3147  0.0966  0.0899
 8991W        W27845  12.450  12.925  12.172 -0.0161 -0.0676  0.1176
 8992W        W27846  11.294  12.915   4.664  0.0385 -0.4090 -0.1594
 8993W        W27847  12.349  13.694   0.015  0.3446  0.1860  0.0672
 8994W        W27848  13.785   7.129  14.917  0.1314 -0.1060 -0.1134
 8995W        W27849   4.001  13.239  11.053 -0.2113  0.1714 -0.2955
 8996W        W27850  13.276   5.870   1.006 -0.2263  0.1551  0.2211
 8997W        W27851  13.214   1.790   2.740 -0.0444 -0.3506  0.1524
 8998W        W27852  11.031   7.038  10.845 -0.1608  0.1688 -0.1454
 8999W        W27853   0.705  14.156  14.630  0.1880  0.1881 -0.1683
 9000W        W27854  10.265  18.206   3.059 -0.1618 -0.0094 -0.2257
 9001W        W27855  11.471   8.638  13.228 -0.2917  0.0008  0.1856
 9002W        W27856   1.636  12.621   3.229  0.1447  0.1962 -0.4284
 9003W        W27857  12.938   0.620   3.236 -0.1702  0.1260  0.2014
 9004W        W27858   6.080  12.402   1.651  0.4345 -0.0692 -0.2628
 9005W        W27859   0.137  16.452   2.155  0.1185 -0.0664  0.0658
 9006W        W27860   0.798   6.780   0.193 -0.0281  0.0790 -0.1499
 9007W        W27861   0.352   6.241   2.235 -0.0534 -0.0274  0.2121
 9008W        W27862   1.170   4.591   0.513  0.0730 -0.2092 -0.1745
 9009W        W27863  18.318   2.572   4.169  0.1137 -0.1204 -0.2997
 9010W        W27864   3.711  18.443   9.946  0.0896 -0.0643 -0.1667
 9011W        W27865   7.916  10.508  14.523 -0.2471  0.0103 -0.5092
 9012W        W27866   2.058  10.705  15.243  0.2963 -0.1661  0.0846
 9013W        W27867   2.806  14.063  10.061  0.0376  0.0433  0.0846
 9014W        W27868   1.143   6.533   2.354 -0.5122  0.1515  0.1849
 9015W        W27869   0.456   7.448  12.078 -0.0672 -0.0795 -0.1106
 9016W        W27870   3.277   9.723  12.624 -0.1276  0.0134 -0.2791
 9017W        W27871  12.978  17.041  14.379 -0.3125  0.0286 -0.1828
 9018W        W27872   0.516  15.441  12.670  0.2860 -0.0914  0.0610
 9019W        W27873  11.629   2.055   2.468  0.0016 -0.1606 -0.3511
 9020W        W27874  16.215   4.770  13.171  0.3106  0.0644  0.0662
 9021W        W27875   9.489   7.923  13.759 -0.2067 -0.2919  0.1796
 9022W        W27876  12.233   3.219   0.777 -0.0167  0.2015  0.3233
 9023W        W27877  15.789   3.878  12.906  0.3728  0.3155  0.1577
 9024W        W27878   1.406  16.870   1.705 -0.0312  0.0273 -0.1208
 9025W        W27879  17.823   0.013   4.521 -0.0122  0.4436  0.2136
 9026W        W27880  14.822  12.804   3.216  0.1867  0.3962  0.1326
 9027W        W27881   4.207   8.073   4.229  0.2638  0.0942 -0.0834
 9028W        W27882   7.416  15.915  14.702  0.0674  0.4428 -0.2315
 9029W        W27883  15.548  17.246  13.856 -0.1385 -0.4851 -0.1463
 9030W        W27884   1.735   8.338  12.524 -0.1209 -0.2006  0.0744
 9031W        W27885   2.358   3.297   4.110  0.0381 -0.0526  0.1745
 9032W        W27886  13.480  15.475   2.249 -0.4476 -0.2973  0.1231
 9033W        W27887  16.328  11.206  12.633  0.2925  0.0803  0.3012
 9034W        W27888   1.387   5.515   0.770 -0.3533 -0.0934 -0.1469
 9035W        W27889   1.592   1.158  12.019 -0.1303  0.1749 -0.1603
 9036W        W27890  15.476   1.887  14.511 -0.3077 -0.0507  0.1489
 9037W        W27891   6.034  13.613  12.638  0.3283 -0.0172  0.0034
 9038W        W27892   7.023   4.097   3.946 -0.1805  0.0703  0.0460
 9039W        W27893   1.735   0.908   4.359 -0.0281 -0.1083  0.0228
 9040W        W27894   9.782   6.301   2.660 -0.0659 -0.0058 -0.1889
 9041W        W27895   7.030   3.148   2.688 -0.2852  0.0120  0.3721
 9042W        W27896   7.527   5.978  14.399  0.0918 -0.1885 -0.3213
 9043W        W27897  16.001  17.413  13.787 -0.0039 -0.1641 -0.0265
 9044W        W27898   3.432  11.163   1.492 -0.0695  0.0851 -0.1302
 9045W        W27899  10.055   1.906  11.769  0.1683 -0.4451 -0.2708
 9046W        W27900   7.666   5.737  12.626  0.0810 -0.1800 -0.0549
 9047W        W27901  12.970  13.453   2.983 -0.2223 -0.2585 -0.0208
 9048W        W27902   4.461   3.021   1.734  0.3089  0.1545  0.0450
 9049W        W27903   7.256   0.926   3.937  0.0524 -0.0970  0.0963
 9050W        W27904  17.657  13.413  14.058  0.0851 -0.0685  0.2351
 9051W        W27905   0.719  10.911   1.575  0.0421 -0.1561 -0.0824
 9052W        W27906   8.586   1.369   0.501 -0.1281  0.1851 -0.1349
 9053W        W27907  10.821   0.583   4.919 -0.3198 -0.0106 -0.1995
 9054W        W27908  18.167   5.916  11.123  0.3452  0.2176 -0.0913
 9055W        W27909   9.185   0.781  11.356 -0.2383  0.0291 -0.2785
 9056W        W27910   0.623  15.725  13.706 -0.2883  0.2567  0.1094
 9057W        W27911   9.283   0.298   0.940 -0.2111  0.0136 -0.0358
 9058W        W27912   3.142   3.049   3.709 -0.0609 -0.3048  0.1657
 9059W        W27913   0.182   9.938   4.281 -0.2056  0.4637  0.2365
 9060W        W27914   1.508  11.328   2.838 -0.2436 -0.0745 -0.0283
 9061W        W27915  15.906  14.850  11.308 -0.0699 -0.2110  0.0576
 9062W        W27916  10.841   2.402  12.085 -0.1207 -0.3450  0.2248
 9063W        W27917   3.230   6.095   1.262  0.1802  0.1254  0.4371
 9064W        W27918   3.638   0.033   1.248  0.1149 -0.0808 -0.0124
 9065W        W27919   5.793  10.516   2.664 -0.0906  0.0815 -0.0147
 9066W        W27920   4.728   7.399  10.797  0.1160  0.1731  0.1274
 9067W        W27921  17.811   3.884  11.135 -0.2666 -0.1196  0.0162
 9068W        W27922   2.299   7.008   1.066  0.1342  0.2593  0.0972
 9069W        W27923  14.309  18.395   1.877 -0.1672  0.0225  0.1800
 9070W        W27924   4.969  16.800   2.084 -0.5310  0.0899 -0.0949
 9071W        W27925  18.050  13.424  13.243 -0.1572  0.1804 -0.1433
 9072W        W27926   1.811   6.001   3.362  0.1088  0.0004  0.0882
 9073W        W27927  11.266  14.716   3.034  0.3062  0.0578 -0.1098
 9074W        W27928  12.209   4.669  15.162 -0.0784 -0.3903  0.0248
 9075W        W27929  11.352   6.275   3.881 -0.0102 -0.4351 -0.0143
 9076W        W27930   6.579  10.837  11.444  0.3448  0.2621 -0.0701
 9077W        W27931  10.484   8.729  13.070 -0.2696  0.3907  0.0092
 9078W        W27932  13.556  17.975   2.173 -0.1301 -0.0399 -0.2487
 9079W        W27933   5.778   0.912   3.554  0.0999  0.2089 -0.1240
 9080W        W27934  18.390   4.802  13.158  0.2578  0.4387 -0.1977
 9081W        W27935   2.172   9.155  12.791 -0.1560  0.0399  0.1479
 9082W        W27936  18.453  16.724  15.145 -0.1128 -0.4249 -0.0489
 9083W        W27937  16.048  13.058   4.377  0.0653  0.1153 -0.3585
 9084W        W27938  15.844  17.975  12.971  0.0179 -0.1252  0.0474
 9085W        W27939  18.012  12.311   0.331  0.0243  0.1440  0.2633
 9086W        W27940  11.299  17.658   3.429 -0.0319  0.2198 -0.0877
 9087W        W27941  11.083  13.534  14.478  0.0823 -0.3366 -0.1131
 9088W        W27942   7.760  15.656   4.589 -0.2196 -0.0731  0.3683
 9089W        W27943  11.421  14.699   2.559  0.3024 -0.2668 -0.3347
 9090W        W27944   5.392  16.499  15.198  0.0734 -0.0504  0.0552
 9091W        W27945  11.016  16.499  12.083  0.1819  0.1187 -0.1031
 9092W        W27946   2.877   3.641   2.662 -0.0442 -0.0264  0.2227
 9093W        W27947  16.521  11.906   3.899  0.2579 -0.2815  0.2771
 9094W        W27948  17.197  16.219   4.965 -0.2415 -0.1487  0.0486
 9095W        W27949   6.627  14.288   1.365  0.3339  0.0527  0.0235
 9096W        W27950  15.369  18.442  14.850 -0.1407  0.1540  0.0183
 9097W        W27951   7.983  17.129   4.057 -0.0867 -0.0378 -0.2285
 9098W        W27952   5.075  17.424   0.035 -0.3682 -0.2074  0.2003
 9099W        W27953   2.164   2.191  13.279 -0.3556  0.1556 -0.0823
 9100W        W27954  16.530   4.477   0.463 -0.2753 -0.1348  0.1800
 9101W        W27955   1.806  17.824  12.872  0.0820  0.0976 -0.5479
 9102W        W27956   4.820  17.874   3.216 -0.0777  0.1654 -0.3015
 9103W        W27957  11.561   7.815  15.055  0.0493  0.0829 -0.0879
 9104W        W27958   8.634   6.559  12.673 -0.1492 -0.0932  0.2353
 9105W        W27959  15.539  17.551  12.998  0.2544  0.1063  0.0306
 9106W        W27960   5.820  15.806  11.918  0.1416 -0.0458 -0.0814
 9107W        W27961   0.355   1.983   1.825  0.0808  0.0652 -0.0683
 9108W        W27962  14.690   8.945  14.975 -0.1914  0.1202  0.3780
 9109W        W27963  17.088   5.389  14.495  0.3874 -0.7197  0.3038
 9110W        W27964  16.390  12.784   0.683  0.2287  0.2890 -0.1070
 9111W        W27965   5.894   9.069  12.892  0.1419  0.2040 -0.0739
 9112W        W27966   9.790  16.214   3.896 -0.2168  0.0550  0.1524
 9113W        W27967  13.636   5.560   4.206  0.0805  0.0018 -0.0599
 9114W        W27968  14.729   8.824   0.010  0.2953  0.0489 -0.0814
 9115W        W27969   5.834   9.500   0.957  0.1652  0.0253 -0.0871
 9116W        W27970  11.343   6.136   0.148  0.2553  0.0055 -0.0688
 9117W        W27971   6.873   6.243  14.019  0.1680  0.1563 -0.3302
 9118W        W27972  14.038   7.841  12.255  0.0535  0.0920 -0.2908
 9119W        W27973   8.347   8.455   3.907  0.3615 -0.2262 -0.0172
 9120W        W27974   3.580  11.647   1.058 -0.0276 -0.0002 -0.0768
 9121W        W27975  10.313  13.056  12.858 -0.2313 -0.0549  0.1274
 9122W        W27976   1.579   9.790  11.469 -0.1517  0.0827  0.0381
 9123W        W27977   6.383  15.660   2.005  0.0373 -0.1003 -0.3645
 9124W        W27978  17.499   4.131  12.672  0.0793 -0.2108  0.3551
 9125W        W27979  12.671   9.298   0.031 -0.3025  0.1196 -0.0021
 9126W        W27980   2.487   1.564  12.217 -0.3177 -0.1591 -0.1071
 9127W        W27981   1.252  13.127  11.814 -0.0472 -0.2265  0.2770
 9128W        W27982   3.965  12.322  13.286  0.0482 -0.1150  0.0040
 9129W        W27983   3.474  10.783  12.853 -0.0889  0.0355  0.1539
 9130W        W27984  14.454   7.639  11.966 -0.3150  0.1361  0.1735
 9131W        W27985  13.024   2.227   2.365 -0.0225  0.0014  0.1797
 9132W        W27986   2.622   6.256  11.595  0.1770  0.0933  0.0147
 9133W        W27987   1.684   0.249   3.674 -0.0278  0.0185  0.3959
 9134W        W27988  10.286   7.009  11.441  0.2211  0.1572 -0.1806
 9135W        W27989   1.622  12.420  13.359 -0.1920 -0.1042  0.0182
 9136W        W27990  17.095   9.033  10.135 -0.2145  0.1370  0.0470
 9137W        W27991   3.625  13.821   2.465  0.0861  0.3426  0.4073
 9138W        W27992   5.676   5.174   2.826  0.1216 -0.1902 -0.1116
 9139W        W27993  12.448  18.173  12.944  0.2155  0.0438  0.1358
 9140W        W27994  17.864   6.821  13.093  0.0366  0.0362 -0.1812
 9141W        W27995  16.357   1.393  10.259  0.0581 -0.0487  0.1466
 9142W        W27996  15.725   0.049   1.955 -0.2213 -0.2570 -0.1411
 9143W        W27997   6.531   3.036  13.971  0.1519  0.0005 -0.0744
 9144W        W27998   7.365  18.544   2.315  0.2445  0.1538  0.0148
 9145W        W27999  16.368  14.211  13.714 -0.1250 -0.0277  0.3154
 9146W        W28000  17.645   1.115  11.369 -0.0613  0.1318 -0.2951
 9147W        W28001   0.556   8.683   4.017 -0.0485  0.3780  0.0165
 9148W        W28002   4.805   4.909   3.152  0.3241  0.0870  0.0840
 9149W        W28003  11.880   0.838   3.200 -0.0346  0.4313  0.3881
 9150W        W28004   3.463   2.858   4.893 -0.0835 -0.1495 -0.1772
 9151W        W28005   2.401   3.460   2.440 -0.0554 -0.0961  0.0534
 9152W        W28006   6.054  13.261  11.101  0.1369 -0.0819 -0.0542
 9153W        W28007  17.433  18.020   1.296 -0.0717 -0.1556 -0.3229
 9154W        W28008   7.521  10.491   3.589 -0.0568 -0.0172  0.1178
 9155W        W28009   5.935   6.189   2.486 -0.0096  0.1315 -0.1093
 9156W        W28010  18.520   6.190  11.869  0.0476 -0.0735 -0.3125
 9157W        W28011   4.418   2.139   2.663 -0.0947  0.3538  0.4214
 9158W        W28012  18.271   2.067  11.989  0.1670  0.0667 -0.0369
 9159W        W28013   5.924  15.847   1.841  0.0426  0.3094  0.0207
 9160W        W28014   7.213  11.825  12.309 -0.0628 -0.2095 -0.1521
 9161W        W28015   1.736   0.388  14.076 -0.0895 -0.1643  0.0267
 9162W        W28016   5.853  13.069  15.319  0.2113  0.1149 -0.0308
 9163W        W28017   0.701  16.716  12.458  0.3674 -0.1682 -0.0854
 9164W        W28018  18.175   5.499  12.066  0.0871 -0.0480  0.0348
 9165W        W28019  16.129   9.257   0.329  0.3521  0.0539 -0.0046
 9166W        W28020  14.061   7.714  11.671  0.1413  0.2392 -0.0692
 9167W        W28021   8.429  15.395  11.851 -0.1096 -0.1960  0.0594
 9168W        W28022  13.495  13.017   3.627 -0.0641 -0.2718  0.0733
 9169W        W28023   8.477  13.769   1.831  0.1237  0.2182  0.0098
 9170W        W28024  11.536  16.372  12.901  0.1529  0.0014 -0.0698
 9171W        W28025  13.817   9.144   0.448 -0.2606 -0.1001 -0.0153
 9172W        W28026   1.621   2.097  11.068  0.1033 -0.2685  0.0778
 9173W        W28027   6.761  12.802   3.925  0.0235  0.1404 -0.0631
 9174W        W28028  14.291  17.384   5.459 -0.0387  0.1976  0.3983
 9175W        W28029   1.895   4.642   2.179  0.0202 -0.2066  0.1071
 9176W        W28030  13.214   4.515  14.857  0.2590  0.0544  0.0229
 9177W        W28031   4.662   2.080  14.579  0.0870  0.0514  0.0494
 9178W        W28032   3.465  11.464   3.377  0.0691  0.1398 -0.0171
 9179W        W28033   2.790   3.054   4.219  0.0496 -0.1870  0.1444
 9180W        W28034  17.757  11.001   0.880  0.0715  0.0288 -0.1047
 9181W        W28035  14.692  10.750  12.519  0.0246  0.1565 -0.2356
 9182W        W28036   6.543  14.107  14.980  0.0095  0.3736  0.2428
 9183W        W28037   6.612  11.459  13.582 -0.1910  0.1268  0.0438
 9184W        W28038   0.606  11.716   0.321 -0.1084 -0.0456  0.0545
 9185W        W28039   2.731   1.698   1.283 -0.1382 -0.0622 -0.2074
 9186W        W28040   3.822  17.872  15.137  0.2293 -0.0282  0.2248
 9187W        W28041   2.176   7.729   3.639 -0.0944  0.0272  0.0938
 9188W        W28042  16.072   3.264  11.386 -0.1999 -0.2708 -0.1496
 9189W        W28043   6.770   8.938   1.511  0.1157  0.1332  0.0493
 9190W        W28044   1.709   0.472   2.291  0.0801  0.1486 -0.1307
 9191W        W28045  11.215  13.018  11.146  0.2103 -0.0372 -0.0962
 9192W        W28046   0.663  13.465   0.800  0.0583  0.0488  0.1565
 9193W        W28047  16.467  13.821   0.070 -0.1949  0.1731  0.1316
 9194W        W28048  10.050   7.858   2.529 -0.0704  0.1069  0.1188
 9195W        W28049  12.577  11.016  14.847  0.0778 -0.2499 -0.0485
 9196W        W28050  16.030   2.707  15.079 -0.0038  0.1045  0.2238
 9197W        W28051  10.250  17.455  13.664  0.0237  0.2413  0.5486
 9198W        W28052   0.736   7.027  12.874  0.0027  0.0299  0.1940
 9199W        W28053   9.657  14.334  14.482  0.2583  0.0058 -0.0601
 9200W        W28054   8.530  11.303   1.667  0.1477 -0.1407 -0.0413
 9201W        W28055   9.160  17.584  15.177 -0.1829  0.0909 -0.1801
 9202W        W28056   6.786   1.142   0.117  0.5605 -0.0505 -0.0901
 9203W        W28057   7.810   9.624  13.869  0.0737 -0.1202  0.1929
 9204W        W28058  13.968  11.201   2.385 -0.0129 -0.1340 -0.0752
 9205W        W28059   0.362  11.225   3.715 -0.0007 -0.1242 -0.2762
 9206W        W28060   6.923   6.703  15.407 -0.0133 -0.0863  0.1657
 9207W        W28061  12.108  18.549  14.672 -0.0177  0.0186 -0.2716
 9208W        W28062   5.528  14.757   3.339 -0.1365 -0.1755  0.0474
 9209W        W28063   9.404   4.142   3.424 -0.0634 -0.0158  0.0264
 9210W        W28064  15.168  16.285   3.411 -0.0938 -0.1026  0.1448
 9211W        W28065  15.308  17.784  13.405  0.2336  0.3032  0.2966
 9212W        W28066   7.848   3.577   4.620  0.2211 -0.1697 -0.4767
 9213W        W28067   0.635  17.014   0.304 -0.0442 -0.1105 -0.2305
 9214W        W28068  10.812   0.053  14.083 -0.0699  0.0888 -0.1786
 9215W        W28069  11.603   6.343   1.893 -0.0518  0.1540 -0.2590
 9216W        W28070  16.598   6.646  15.248  0.1304 -0.1145 -0.1366
 9217W        W28071   1.977  14.664   0.434  0.4169 -0.1124 -0.2634
 9218W        W28072   7.294   3.317   3.603 -0.1876 -0.3307 -0.1485
 9219W        W28073  12.239  15.726   2.683 -0.5127  0.0420  0.0755
 9220W        W28074   3.090   1.776   0.631  0.2280  0.2362 -0.0557
 9221W        W28075  16.476  10.123   1.832  0.3629  0.0791 -0.3429
 9222W        W28076  15.585   5.529   2.228  0.0741  0.1961 -0.0376
 9223W        W28077  13.933  16.391  11.780 -0.1287  0.0029  0.2735
 9224W        W28078   4.596   3.387   0.953 -0.0682 -0.0150 -0.0155
 9225W        W28079  13.705   0.047   2.901  0.1498  0.2517 -0.3909
 9226W        W28080  11.087  10.484   0.602  0.0815  0.0076 -0.0931
 9227W        W28081  17.177  12.917  14.508  0.0807  0.3424  0.0114
 9228W        W28082  17.543  11.370  15.189  0.1370  0.1421 -0.1368
 9229W        W28083  12.266   4.152   4.566 -0.0624  0.0824  0.3930
 9230W        W28084   8.337  16.145   4.810 -0.2159 -0.2401  0.2556
 9231W        W28085  15.062  11.579  12.631 -0.0129  0.1536 -0.0546
 9232W        W28086   7.958  10.360   3.222  0.1186 -0.1846 -0.1604
 9233W        W28087  13.994  15.298   4.571 -0.0692 -0.1822 -0.0006
 9234W        W28088  15.400   0.793   9.926 -0.1726  0.0755 -0.0486
 9235W        W28089   1.388  10.459   3.145 -0.0618 -0.1015 -0.3558
 9236W        W28090  12.688   2.147  11.548 -0.0373 -0.2225  0.2398
 9237W        W28091   7.183   5.110  11.211 -0.1853  0.0552  0.1349
 9238W        W28092   7.595  17.825  12.527 -0.2677 -0.0536  0.3448
 9239W        W28093   6.434  17.105  12.778  0.0147 -0.0904 -0.0327
 9240W        W28094   8.628   0.387  12.501 -0.0315  0.0251 -0.0956
 9241W        W28095  16.811  15.797   1.371  0.0094  0.2598  0.2502
 9242W        W28096   0.129   3.138   1.389  0.1488 -0.2724  0.2708
 9243W        W28097  16.238   2.072  11.845  0.1058  0.1684 -0.0155
 9244W        W28098   9.254  11.961   3.894  0.0822 -0.1358 -0.1488
 9245W        W28099   9.734  12.168   1.240 -0.0127  0.0967  0.0255
 9246W        W28100  15.285   8.989   1.987  0.2052  0.1015 -0.3138
 9247W        W28101   7.064   6.827   0.834  0.0945 -0.0585  0.2693
 9248W        W28102   6.055   6.706   5.139  0.0547 -0.0174 -0.3163
 9249W        W28103   6.654  12.567  11.971 -0.0528  0.1645  0.1808
 9250W        W28104   7.059   7.842  14.509 -0.0323 -0.0880 -0.3194
 9251W        W28105   5.651   8.386  12.801 -0.1417  0.2484  0.0265
 9252W        W28106   8.046  13.181  11.448  0.2122  0.0864  0.0151
 9253W        W28107  11.840   0.191   0.054 -0.2608 -0.2590  0.0185
 9254W        W28108  14.940   3.282   1.264 -0.0749 -0.1775 -0.0797
 9255W        W28109   9.257   6.569   0.231 -0.1823 -0.0221  0.1471
 9256W        W28110  13.062  14.310   2.416  0.2124  0.1148 -0.1125
 9257W        W28111   3.259  16.054  13.069  0.0103 -0.1950  0.1630
 9258W        W28112  12.578   0.780   0.787 -0.0637  0.1498 -0.0905
 9259W        W28113   9.129  11.654  12.089  0.1223  0.0556 -0.2258
 9260W        W28114   8.582  18.545   4.397  0.1401 -0.1433 -0.0180
 9261W        W28115   2.045   9.267  12.343  0.2208  0.2630 -0.2667
 9262W        W28116  10.880   6.489   2.778  0.2004  0.1099 -0.0475
 9263W        W28117   7.077   8.121   1.097 -0.3170 -0.1022 -0.1460
 9264W        W28118  16.896  16.772  14.820 -0.0534  0.1439  0.0777
 9265W        W28119   2.176  16.812  11.609  0.0293  0.1121  0.0538
 9266W        W28120   2.796   7.842  11.532 -0.2633 -0.0836 -0.4515
 9267W        W28121  12.270  14.906   3.376  0.3415  0.2089 -0.1558
 9268W        W28122   3.204   5.790  12.893  0.1310  0.2341 -0.1174
 9269W        W28123   9.168   3.601   2.202 -0.1971  0.1113  0.2138
 9270W        W28124   3.328   1.083   0.737  0.3389 -0.1936  0.2926
 9271W        W28125   3.621  13.895   3.345  0.0620  0.1767  0.2227
 9272W        W28126  14.913  17.921  15.442 -0.0940  0.0522 -0.2679
 9273W        W28127  11.280   5.497   0.747  0.2555 -0.0275  0.0393
 9274W        W28128   4.517  13.618   2.681 -0.0965 -0.0569 -0.1642
 9275W        W28129  14.753  13.928   1.549  0.1750 -0.2609 -0.1793
 9276W        W28130  17.310  12.230   3.494  0.1802  0.4240 -0.2566
 9277W        W28131   9.799  11.534   1.486 -0.2497 -0.1802 -0.0244
 9278W        W28132   0.920   2.827  15.233 -0.0881 -0.0488  0.2293
 9279W        W28133  13.972  10.588   2.285 -0.2612  0.3730 -0.0617
 9280W        W28134  18.322  14.111  13.352  0.1016 -0.0123 -0.1096
 9281W        W28135   5.885  15.821   0.011  0.4338  0.2152  0.0963
 9282W        W28136   4.384  18.456  10.995  0.2681 -0.2594 -0.2149
 9283W        W28137  14.924   3.784  13.728 -0.0457  0.0187  0.0225
 9284W        W28138  15.129   2.316  12.709 -0.1662  0.1110 -0.1578
 9285W        W28139   4.150   8.914  11.233 -0.0220  0.2194  0.0471
 9286W        W28140  14.458   7.841  13.256 -0.2006  0.3450 -0.1625
 9287W        W28141   7.881   2.824   2.299 -0.0152 -0.1407 -0.0227
 9288W        W28142  10.456  11.300  11.689  0.3322 -0.0704 -0.0368
 9289W        W28143   3.657  14.218   0.725  0.0086 -0.1185  0.0408
 9290W        W28144   4.427  13.247   0.741  0.0890 -0.1331  0.1308
 9291W        W28145  18.067  11.965   2.460 -0.1439 -0.1593 -0.0940
 9292W        W28146  13.251   3.397   0.236 -0.0549  0.0877 -0.0780
 9293W        W28147   6.098  17.927  13.639  0.1521  0.1450  0.0474
 9294W        W28148   1.364   6.753   3.700 -0.1141  0.1951 -0.1735
 9295W        W28149  11.036  13.494   0.194  0.2068 -0.0229 -0.0509
 9296W        W28150   1.789   0.338  12.414  0.2036 -0.2139  0.0947
 9297W        W28151  14.207   0.395  12.385  0.0197 -0.0149  0.1894
 9298W        W28152   2.691  17.954  12.925 -0.4934 -0.1602  0.1335
 9299W        W28153   8.618   6.287  14.830 -0.0577  0.1142 -0.0551
 9300W        W28154   2.530   2.369   3.534  0.0022 -0.0784 -0.1008
 9301W        W28155  16.789  17.661  15.358  0.3153  0.0389 -0.0393
 9302W        W28156  14.616  14.933   3.372 -0.2853 -0.1079  0.1595
 9303W        W28157   4.509   7.729   0.441  0.0038 -0.1150 -0.0163
 9304W        W28158   8.859  13.835  13.987 -0.1425 -0.1536 -0.3108
 9305W        W28159  11.406   8.750  15.428  0.0150 -0.2149 -0.4225
 9306W        W28160   9.734   1.829   0.505 -0.2283  0.1287 -0.2551
 9307W        W28161  14.448  18.255   0.787 -0.0776 -0.0106  0.0697
 9308W        W28162  16.317   9.296   2.059 -0.0010  0.5143 -0.0941
 9309W        W28163  10.666  11.491   0.664 -0.1578 -0.4524  0.1154
 9310W        W28164   6.904   2.515   3.865 -0.1132 -0.1083  0.1184
 9311W        W28165   5.954   7.636  12.705  0.0626 -0.3111 -0.2002
 9312W        W28166  11.607   4.817  10.839  0.0262 -0.1925  0.0449
 9313W        W28167  16.170  10.668  11.778  0.0912  0.0502 -0.2482
 9314W        W28168   9.315   0.687   0.640 -0.0303 -0.1167  0.0228
 9315W        W28169  11.935   4.128  10.683 -0.0007 -0.1174 -0.1197
 9316W        W28170   5.450   1.260   2.758  0.1901  0.2329  0.0672
 9317W        W28171  15.454   1.050  12.136 -0.0797 -0.0451 -0.0553
 9318W        W28172   1.814  10.373  10.869 -0.0920  0.0994  0.1655
 9319W        W28173  16.403  16.549   3.116 -0.0577 -0.3735  0.0751
 9320W        W28174   0.103  12.916   2.496 -0.1601 -0.1048  0.0554
 9321W        W28175   4.513   7.840  13.896 -0.0171 -0.1554 -0.0578
 9322W        W28176   5.044  11.661  11.871 -0.0668  0.2709 -0.1320
 9323W        W28177  14.719   3.335  13.805  0.0628  0.1038 -0.0255
 9324W        W28178  17.926  12.488  12.811  0.0599 -0.2676  0.0067
 9325W        W28179  16.646   7.041   4.091  0.0150  0.3031 -0.1104
 9326W        W28180  17.576   3.726  12.396 -0.1983  0.4467  0.0239
 9327W        W28181   8.965  13.044   0.060 -0.1750  0.1257 -0.2022
 9328W        W28182   2.370   4.030   0.512  0.0838  0.3523  0.0094
 9329W        W28183   0.028  12.497  12.129 -0.0556  0.1757 -0.1967
 9330W        W28184   5.190  11.336   2.303 -0.0435  0.0771 -0.1330
 9331W        W28185  11.395  15.693   4.996  0.3147 -0.0683  0.1454
 9332W        W28186   2.198   0.218  12.703 -0.2405 -0.2250  0.0144
 9333W        W28187  14.192   8.592  14.954 -0.0386 -0.2661  0.0269
 9334W        W28188   7.182  10.884   3.428 -0.0645 -0.1698  0.0951
 9335W        W28189   8.260  18.115  12.626  0.0476  0.2526 -0.0218
 9336W        W28190   7.646   7.175   2.443 -0.2589 -0.1128  0.0198
 9337W        W28191  17.419  15.893  15.320 -0.2480  0.1562  0.0666
 9338W        W28192   9.497   5.570   3.291  0.0391 -0.3450  0.1965
 9339W        W28193   7.267   2.289  12.829  0.1559 -0.0726  0.0831
 9340W        W28194   8.952   9.540  14.563  0.3151  0.2448  0.2799
 9341W        W28195  11.481  13.389  11.309 -0.1248 -0.2298  0.1080
 9342W        W28196  13.101   8.915   1.846  0.0954 -0.3506 -0.2147
 9343W        W28197   6.664   3.764   0.270 -0.3094 -0.0809  0.1004
 9344W        W28198  17.748   5.828  15.203 -0.0794  0.2375  0.0706
 9345W        W28199   1.717   5.250  15.286  0.1260 -0.1930 -0.1538
 9346W        W28200   0.128  14.596   9.690  0.1677  0.0147  0.0155
 9347W        W28201   4.806  12.900   1.369 -0.1460  0.0020  0.0510
 9348W        W28202   1.882  17.768  15.124  0.0596 -0.1256  0.0815
 9349W        W28203   3.153   7.566   2.106  0.1582 -0.1122 -0.2468
 9350W        W28204  18.119   9.094   4.317  0.0095  0.0424 -0.1343
 9351W        W28205   0.157   0.458   2.452 -0.0245 -0.1406 -0.0170
 9352W        W28206   8.588   0.225  13.980 -0.1792  0.0871 -0.0683
 9353W        W28207   1.930  12.199  13.070 -0.1670 -0.1128 -0.0093
 9354W        W28208  10.737   1.592  13.088  0.0673  0.2010  0.0354
 9355W        W28209   7.096   8.955  13.724  0.1226 -0.5138 -0.0989
 9356W        W28210   9.037  10.060   4.219 -0.2845  0.0564 -0.1206
 9357W        W28211  14.068   8.258   1.345 -0.0745  0.2788 -0.0009
 9358W        W28212   7.700  14.368  13.288 -0.0173 -0.1922 -0.2352
 9359W        W28213   4.937  10.284   2.904  0.1246  0.0290  0.3360
 9360W        W28214   8.914   9.617  12.290 -0.3393  0.0076  0.2214
 9361W        W28215   5.710  13.385   2.621  0.1011  0.1139 -0.0604
 9362W        W28216   4.943   9.359  12.087 -0.0968 -0.0942 -0.1412
 9363W        W28217  18.273   5.829  13.207 -0.0128  0.0080 -0.2092
 9364W        W28218  18.553   0.342   0.272  0.2514 -0.0172  0.0892
 9365W        W28219   7.408   6.380  11.352 -0.0290  0.3114 -0.2925
 9366W        W28220  12.309   0.540  12.987 -0.3531 -0.0102 -0.0342
 9367W        W28221   7.149  11.870   0.192 -0.2202  0.0306 -0.1283
 9368W        W28222   0.546  11.486   2.913  0.0136  0.2030  0.3225
 9369W        W28223   3.463   6.098   2.605 -0.0595  0.1193 -0.0805
 9370W        W28224   9.258  12.419   2.585 -0.1445  0.0955  0.2301
 9371W        W28225   0.396   4.361  14.242  0.2881  0.3328  0.0631
 9372W        W28226   8.030  17.744   2.283 -0.1586  0.1245  0.1739
 9373W        W28227   9.755   7.517   3.193 -0.0958 -0.1131 -0.0068
 9374W        W28228  15.664  15.783  11.099 -0.0876 -0.0018  0.0181
 9375W        W28229  10.623  10.466  14.022 -0.0347 -0.2301 -0.2283
 9376W        W28230  14.596  10.109   1.855  0.1069 -0.1666 -0.0687
 9377W        W28231   2.087   5.407   2.855  0.0722 -0.2786  0.2981
 9378W        W28232  12.302   7.789   1.515  0.1884  0.1551 -0.0123
 9379W        W28233   1.693  17.885   3.762 -0.3377  0.1140 -0.3721
 9380W        W28234   6.024   5.477   2.809  0.0331  0.0821 -0.0250
 9381W        W28235   2.871  17.499  13.185 -0.1600  0.0458 -0.0897
 9382W        W28236  17.459  15.388  13.478 -0.2089  0.1599 -0.3308
 9383W        W28237  10.449  15.680  11.748 -0.1638 -0.1509  0.0237
 9384W        W28238   4.088   3.410  13.814  0.0221  0.1091  0.0513
 9385W        W28239   3.595   3.455  14.099 -0.1070 -0.3226  0.3714
 9386W        W28240  12.060  10.262  14.655  0.3170  0.1704 -0.1168
 9387W        W28241   1.797   4.703   3.546  0.0394  0.1808 -0.3433
 9388W        W28242  14.788   2.825   3.142 -0.2857 -0.0366  0.0405
 9389W        W28243   2.575   7.680  12.344 -0.1193  0.0247  0.4493
 9390W        W28244   6.945   2.062  11.634  0.0593  0.0424  0.0692
 9391W        W28245   9.307   1.561   0.334 -0.0412 -0.2041  0.3724
 9392W        W28246  12.830  14.297  13.745 -0.2093  0.2715 -0.0167
 9393W        W28247   8.322  18.340   4.776  0.0257  0.2193  0.0856
 9394W        W28248  13.302  10.257   1.153  0.1212 -0.0014 -0.0884
 9395W        W28249  16.908   6.726   2.943  0.0381 -0.0617 -0.0256
 9396W        W28250   2.486  14.048   3.103  0.1246  0.0770 -0.1862
 9397W        W28251   8.603   0.880   4.375 -0.0069  0.2212 -0.2416
 9398W        W28252   2.522  18.253  14.822 -0.0041  0.2980 -0.2127
 9399W        W28253   1.357   5.069  14.201  0.0666 -0.2854  0.1872
 9400W        W28254  17.094  15.429  11.148 -0.2694  0.0043  0.1883
 9401W        W28255   4.975   1.319  11.572 -0.2421 -0.2251  0.0309
 9402W        W28256  15.482  16.956   4.537  0.0556  0.3459 -0.1068
 9403W        W28257  10.822  11.890   0.862  0.1236  0.0616 -0.0841
 9404W        W28258   4.047   2.418  10.719 -0.0241 -0.0334 -0.2152
 9405W        W28259   3.691  11.179   2.569 -0.0117 -0.2527 -0.2664
 9406W        W28260  15.719   4.882   3.391  0.2172  0.1762  0.1336
 9407W        W28261   1.464  18.064   5.184 -0.1700  0.2083  0.1137
 9408W        W28262  17.530   8.142   0.855 -0.2898 -0.1220 -0.0040
 9409W        W28263  16.892  16.304   3.738  0.0821  0.1618 -0.2423
 9410W        W28264  12.131   8.382   4.386  0.0033  0.2060 -0.3758
 9411W        W28265  16.537   5.226   3.620 -0.0630 -0.3430  0.0612
 9412W        W28266  11.759  11.423   0.714 -0.1892  0.0008 -0.1636
 9413W        W28267  15.379  14.806  11.286  0.1267 -0.1299  0.1888
 9414W        W28268  10.054  16.786   1.986  0.2583 -0.1470  0.0768
 9415W        W28269   7.794  13.940   5.332  0.1577  0.0104 -0.0385
 9416W        W28270  17.830  11.420   4.650  0.1920  0.0697 -0.1927
 9417W        W28271  16.925   6.191  14.121 -0.1237  0.1596  0.0515
 9418W        W28272   5.266  15.030  13.295 -0.1205  0.1097  0.1011
 9419W        W28273   0.572   9.166   3.766 -0.1046 -0.1365  0.2550
 9420W        W28274  13.338  15.926  13.274 -0.1724  0.0334 -0.2024
 9421W        W28275  14.893  15.129   2.044  0.2569 -0.0548  0.0959
 9422W        W28276  17.175   7.974  13.017  0.1006  0.0562 -0.2678
 9423W        W28277   8.160   8.926  13.217  0.0969  0.1441 -0.0550
 9424W        W28278   0.235   6.162  14.449  0.0798 -0.1924  0.0952
 9425W        W28279   1.529  10.353   2.639 -0.0182 -0.0359 -0.0855
 9426W        W28280   2.443   2.942  11.834 -0.1246  0.0064  0.1873
 9427W        W28281   8.371  15.617   0.841 -0.1640 -0.1290  0.0381
 9428W        W28282  13.822  16.411   2.895  0.0892 -0.0162 -0.0428
 9429W        W28283   2.881  14.110  11.050  0.4079 -0.1180  0.1540
 9430W        W28284   5.939  10.339  13.796  0.2489  0.0121 -0.2260
 9431W        W28285  17.945  10.593   2.903  0.0487 -0.0288  0.2897
 9432W        W28286  17.284  14.097   1.935  0.1006 -0.1822  0.0642
 9433W        W28287   7.167   3.328   4.394 -0.2205 -0.2156 -0.0799
 9434W        W28288   4.080   7.503   4.818  0.1318 -0.0057  0.1788
 9435W        W28289  11.963   9.988   0.458  0.0352 -0.0266  0.0025
 9436W        W28290   8.447   7.658  12.800  0.3561  0.1219 -0.1112
 9437W        W28291  13.861   8.778  14.102  0.1173 -0.1406 -0.0378
 9438W        W28292  16.894   3.067   1.505  0.1452 -0.1412  0.0469
 9439W        W28293  16.292  13.047  14.438  0.0594 -0.0294 -0.1286
 9440W        W28294  10.819   3.475   2.036 -0.0902  0.0164 -0.1683
 9441W        W28295  15.903  16.338  15.248 -0.0446  0.1434  0.1091
 9442W        W28296  11.667  10.226  11.689  0.0677 -0.0110 -0.0045
 9443W        W28297   2.599   1.377   5.116 -0.0335  0.0342 -0.1751
 9444W        W28298  12.694   9.034  11.946 -0.1426 -0.0326  0.0440
 9445W        W28299  15.729   5.625   0.075  0.1768  0.0432  0.0947
 9446W        W28300   2.935   6.045   4.205 -0.0508 -0.1382 -0.0844
 9447W        W28301   0.408  16.886   4.685  0.1245 -0.1737  0.0795
 9448W        W28302   3.864   8.979   4.019  0.3037  0.1315 -0.2086
 9449W        W28303   3.831   4.444  12.703 -0.2255 -0.0906  0.0126
 9450W        W28304  12.062  17.752   4.897 -0.1141 -0.1844 -0.1748
 9451W        W28305   7.472  13.119  12.242  0.3399  0.0596 -0.1717
 9452W        W28306   4.297   6.615  14.788 -0.0148  0.2560 -0.0866
 9453W        W28307  13.702  16.063   3.899  0.0766 -0.1090 -0.2538
 9454W        W28308  10.594  17.575  14.257 -0.2498 -0.0692  0.0524
 9455W        W28309  12.951   7.945   2.469 -0.0595  0.1775  0.2531
 9456W        W28310  15.820   5.242  12.526 -0.6783  0.1649  0.1641
 9457W        W28311  13.415  10.168   0.480 -0.1149 -0.1414  0.1257
 9458W        W28312  17.361  14.375  11.664 -0.1110  0.1977  0.2111
 9459W        W28313   3.841   3.827   3.390  0.1750 -0.4209 -0.0464
 9460W        W28314   3.273  18.280   2.017 -0.4711  0.3631 -0.0968
 9461W        W28315   4.185   6.393  14.253  0.2544 -0.1865  0.1159
 9462W        W28316  11.752   6.921  12.250  0.0532  0.1011 -0.0505
 9463W        W28317   9.482  10.458   2.992  0.1531  0.2742 -0.2828
 9464W        W28318   2.085  15.747   2.511  0.0901  0.0054  0.3157
 9465W        W28319   0.931   7.603   0.994  0.0795  0.1864  0.3592
 9466W        W28320   5.802   8.619  15.312 -0.1788  0.0430 -0.0321
 9467W        W28321   7.959   8.046  13.627  0.1524  0.3616 -0.1759
 9468W        W28322   4.739   0.538  15.059  0.1455  0.1059  0.2092
 9469W        W28323  12.049   2.726  11.856 -0.1162  0.2447  0.0762
 9470W        W28324  10.901   9.584  14.045 -0.0368  0.3585  0.3207
 9471W        W28325  12.746   6.996  13.475 -0.2136 -0.0916 -0.1412
 9472W        W28326   1.296  16.481  12.797  0.1769 -0.0813 -0.0056
 9473W        W28327  10.489   9.791   4.753  0.3130  0.3591 -0.0229
 9474W        W28328  13.882  18.184  12.984  0.1484 -0.2234 -0.4294
 9475W        W28329  11.141   6.171  14.278 -0.1717 -0.0753 -0.0203
 9476W        W28330  10.200   4.866   1.375 -0.5198  0.1020  0.1379
 9477W        W28331  12.327  17.221  14.967  0.2195 -0.0848  0.1050
 9478W        W28332  17.259  13.541   2.997  0.2582  0.1632 -0.1305
 9479W        W28333   7.616  10.580  11.571 -0.0439 -0.0184 -0.1882
 9480W        W28334  14.805  11.724  14.661  0.2224  0.2811 -0.2258
 9481W        W28335  17.677   4.620   2.552 -0.0192  0.1031  0.1101
 9482W        W28336   4.125   8.814  13.966  0.1138  0.3153  0.0551
 9483W        W28337   0.744   6.084  11.984  0.2462 -0.0735 -0.3013
 9484W        W28338   5.141  11.164  14.663  0.0238  0.2657  0.1537
 9485W        W28339   3.998  12.695  13.596  0.3651  0.3431 -0.0901
 9486W        W28340   0.704   4.324   2.988  0.0548  0.1297 -0.1595
 9487W        W28341  13.558   2.442  15.269 -0.0316  0.0089 -0.2593
 9488W        W28342   0.015   5.809  13.631  0.0933  0.0381 -0.0122
 9489W        W28343  13.598  14.716  13.881 -0.0451  0.1308  0.4996
 9490W        W28344   1.559  17.932  11.179  0.0861 -0.0540 -0.1370
 9491W        W28345   5.542   9.439   1.386 -0.1034  0.1157  0.0498
 9492W        W28346  17.035  13.624  12.464 -0.0682  0.1066 -0.1968
 9493W        W28347  18.123   3.398  14.184 -0.1523  0.0930  0.0128
 9494W        W28348  16.455   9.523   0.013 -0.0051  0.3188  0.2060
 9495W        W28349  12.971  17.182  13.139 -0.0244 -0.1668 -0.2876
 9496W        W28350   8.655   5.571   0.006  0.0593  0.3645  0.3011
 9497W        W28351   4.340  12.547   3.625  0.0624  0.1471  0.0402
 9498W        W28352   2.816  15.966  13.334  0.2030 -0.1971  0.1594
 9499W        W28353   6.533  13.720  14.231  0.2013 -0.0038  0.1749
 9500W        W28354  13.558   3.719   2.782 -0.1724 -0.0004 -0.1893
 9501W        W28355   2.710   1.160   4.107 -0.0465  0.1201 -0.2027
 9502W        W28356  17.155  17.620   1.052  0.2358  0.1541  0.0220
 9503W        W28357   2.674   0.960  12.869  0.0585  0.0317 -0.2515
 9504W        W28358   3.083  17.228   1.746 -0.1070 -0.0848  0.1100
 9505W        W28359   0.498  17.801   0.863  0.0044 -0.1434 -0.2559
 9506W        W28360   2.482   6.656  13.603 -0.2801  0.1136 -0.0388
 9507W        W28361   2.521   0.954   0.245 -0.0180 -0.3012  0.1050
 9508W        W28362  11.264   8.305   5.482 -0.2577 -0.0969 -0.2095
 9509W        W28363   3.685  14.968  12.301  0.0352 -0.0289  0.1491
 9510W        W28364   5.783  12.101   3.471 -0.1362 -0.0920 -0.3516
 9511W        W28365  11.270   5.279   2.928 -0.2190  0.0489 -0.3296
 9512W        W28366  16.396   0.331  14.119  0.1959 -0.0889  0.0201
 9513W        W28367   6.589   5.456  15.208 -0.1332 -0.0144  0.1007
 9514W        W28368   1.222  15.015   0.205  0.1305 -0.0520 -0.2341
 9515W        W28369  12.045  16.762   1.941  0.0135  0.0435 -0.1082
 9516W        W28370   5.496   1.883  13.714  0.2680  0.0850  0.0470
 9517W        W28371  15.543   8.112  13.938 -0.0095  0.1129 -0.1294
 9518W        W28372   1.200  16.539   5.444  0.1493 -0.0280 -0.1280
 9519W        W28373  18.509   1.476   1.225  0.2246 -0.0621 -0.1083
 9520W        W28374   2.710  16.772   0.848 -0.2286  0.1989  0.0457
 9521W        W28375   0.255   1.798   5.102 -0.0490  0.0017  0.1529
 9522W        W28376  12.136   0.141  13.244  0.1651 -0.0675 -0.2373
 9523W        W28377  17.740  11.741   2.813 -0.0970  0.3941 -0.1769
 9524W        W28378   3.217  16.219  13.580 -0.3263  0.1878 -0.1731
 9525W        W28379   1.526  18.161  13.750  0.0161  0.0744  0.3764
 9526W        W28380  10.214  11.008   4.300 -0.1262  0.0353 -0.3069
 9527W        W28381  12.180  12.548  12.572  0.1330  0.1662  0.1536
 9528W        W28382  18.281   7.387   1.135  0.2085 -0.2758 -0.2746
 9529W        W28383   7.571   6.418   0.324 -0.1384  0.2296 -0.1710
 9530W        W28384  12.858  12.028  12.311  0.3344  0.0606  0.1003
 9531W        W28385   7.678   0.296  12.916  0.0026 -0.0253  0.0335
 9532W        W28386   4.950  10.198  14.293  0.2234 -0.0247  0.1067
 9533W        W28387   8.093   3.335   2.917  0.2440 -0.1201  0.3016
 9534W        W28388   7.169   0.666  10.747 -0.1919 -0.0859 -0.0243
 9535W        W28389   9.513  16.562   4.678 -0.1019 -0.1882  0.0753
 9536W        W28390   5.340   6.415   1.295 -0.1470 -0.1420  0.0547
 9537W        W28391  10.600  17.999   1.383 -0.0633  0.0658 -0.0397
 9538W        W28392  18.260  10.304   2.552  0.0076 -0.1274  0.0921
 9539W        W28393  17.223   0.898   4.665  0.0740  0.2076  0.1676
 9540W        W28394   8.806  15.030  11.071  0.1612  0.0248 -0.0501
 9541W        W28395   1.294   4.129  14.107 -0.0816 -0.0855 -0.2713
 9542W        W28396   1.423   5.038   3.314 -0.0329 -0.3208 -0.1155
 9543W        W28397   8.094  12.820  11.079  0.1149  0.1857 -0.1923
 9544W        W28398   6.683   0.860  12.155  0.4007  0.0436 -0.0010
 9545W        W28399   2.565  14.126   4.192  0.3818 -0.1460  0.1989
 9546W        W28400   0.659  15.216   1.844  0.2299  0.1818  0.1961
 9547W        W28401   8.845   3.103   2.311 -0.2839  0.0097  0.2611
 9548W        W28402   4.044  17.584  10.242 -0.2464  0.0084 -0.0589
 9549W        W28403   3.493   2.244  13.443 -0.1808  0.0714 -0.1748
 9550W        W28404   4.644   9.607  14.143 -0.0499 -0.0093 -0.1751
 9551W        W28405  15.114  16.142  14.732  0.0424 -0.1496 -0.2057
 9552W        W28406  16.526  10.203  12.421 -0.1741 -0.0030 -0.0035
 9553W        W28407  11.635  13.281   4.749 -0.0292 -0.1636  0.0643
 9554W        W28408  17.594   0.059   4.073  0.0082 -0.1785 -0.1890
 9555W        W28409   8.876  15.072   3.760  0.0712 -0.2268 -0.1186
 9556W        W28410  16.553   7.687  13.881 -0.0030  0.1380 -0.0666
 9557W        W28411   6.583  16.463   1.793 -0.0801 -0.0679  0.1134
 9558W        W28412   5.118  17.318   3.436  0.1263 -0.2103  0.0607
 9559W        W28413  16.012  18.047   0.587 -0.1611 -0.3155 -0.4126
 9560W        W28414   7.704  11.722  12.129  0.1955 -0.1222 -0.1107
 9561W        W28415   7.646  11.040   1.698  0.0357 -0.0594  0.0067
 9562W        W28416   6.116   9.436   3.482  0.1495  0.0818 -0.2941
 9563W        W28417  12.176  15.751   3.558 -0.1131  0.0994  0.0229
 9564W        W28418   2.503  16.181   3.703  0.1868 -0.2942  0.1831
 9565W        W28419  18.186   7.582   2.443 -0.3160  0.1337 -0.1922
 9566W        W28420  11.945  15.760  12.194  0.2833  0.4459 -0.2016
 9567W        W28421  10.452  12.193  13.242 -0.0395 -0.0379 -0.0202
 9568W        W28422  18.370  10.242   3.027  0.0574  0.0725 -0.0009
 9569W        W28423  10.024   1.328   5.062  0.1769 -0.1618 -0.0637
 9570W        W28424  15.841   1.796  12.014  0.0897 -0.1646  0.1065
 9571W        W28425  17.434   3.392   0.738 -0.2487  0.0652 -0.2911
 9572W        W28426   0.010   7.151  11.339  0.1642  0.0737  0.1620
 9573W        W28427   8.162   0.732  14.421  0.2497 -0.1040  0.2884
 9574W        W28428   6.285   0.869   2.091 -0.1008  0.3911 -0.0933
 9575W        W28429  16.820   0.869  13.265  0.0841  0.1465 -0.3888
 9576W        W28430   0.495   7.049  15.356  0.0773 -0.0296  0.0442
 9577W        W28431   1.740   6.946  13.089  0.5022 -0.2409  0.3153
 9578W        W28432   2.138   8.398  13.728 -0.3244  0.1959  0.1585
 9579W        W28433  16.548   6.530   4.357  0.0041 -0.0382  0.0394
 9580W        W28434  16.360   3.988   4.092  0.2342  0.1407 -0.2080
 9581W        W28435  14.186   2.506  14.792  0.0299  0.0557 -0.0084
 9582W        W28436   0.073   9.971  12.512  0.1379  0.1589 -0.1789
 9583W        W28437  10.278  17.681   1.629  0.4249 -0.2698  0.0534
 9584W        W28438   6.180   7.675  13.229  0.0023  0.2470 -0.0362
 9585W        W28439  10.589  13.721   0.494 -0.1488  0.0771  0.0841
 9586W        W28440   0.715   7.225   4.330  0.0549  0.1756  0.0717
 9587W        W28441   1.291   1.026   2.165 -0.0076  0.0972 -0.1304
 9588W        W28442   7.737  12.132  12.569 -0.0675  0.0548  0.1841
 9589W        W28443  11.397  11.224   4.183 -0.1726  0.2563 -0.1159
 9590W        W28444  10.859  14.647   0.872  0.0183 -0.1690  0.1215
 9591W        W28445  16.249  13.255  10.867 -0.1500  0.0730 -0.3097
 9592W        W28446  12.160   1.678  14.333  0.2052  0.1762  0.0983
 9593W        W28447  10.355   6.342   5.582  0.1640 -0.1345 -0.3486
 9594W        W28448   9.525   1.633   2.308 -0.2374  0.3508 -0.0775
 9595W        W28449   4.305   8.423   0.739  0.2694  0.0048  0.1027
 9596W        W28450  10.640  14.145   2.312 -0.2805 -0.0098 -0.0060
 9597W        W28451  17.133  13.331  11.923  0.0791 -0.4312 -0.1297
 9598W        W28452  15.662   1.857   3.125 -0.4415 -0.0158 -0.1730
 9599W        W28453   0.097   1.038   0.287  0.0663  0.1667  0.0879
 9600W        W28454   6.416   0.285  13.737  0.0352  0.2281 -0.1268
 9601W        W28455  14.844   9.868  13.405  0.0455  0.2888 -0.1842
 9602W        W28456  13.919  10.680  13.934  0.0790  0.0106  0.1146
 9603W        W28457   4.504   9.512   2.705  0.0822  0.0576 -0.1557
 9604W        W28458  11.750  17.378   3.351  0.0539 -0.2273  0.0491
 9605W        W28459   7.984  16.483  13.076 -0.1887  0.1769  0.0558
 9606W        W28460  12.916  17.680   2.073  0.2280 -0.0597 -0.1712
 9607W        W28461  13.760   5.863  13.134  0.1038  0.3449  0.0186
 9608W        W28462  14.723   1.563  13.612 -0.1683 -0.2738  0.0865
 9609W        W28463   2.966  18.238   1.407 -0.0969  0.1313  0.1025
 9610W        W28464   1.047   2.060  14.749  0.0642 -0.0262  0.2177
 9611W        W28465   5.730   6.389  15.132 -0.0704  0.0172  0.1374
 9612W        W28466   2.169  13.589   3.939 -0.0889 -0.2677  0.0877
 9613W        W28467  18.015  18.502  14.566  0.0303 -0.2930  0.0775
 9614W        W28468   9.513  16.059  12.491 -0.0259 -0.1863  0.3426
 9615W        W28469   1.800  13.555   3.084 -0.0415  0.1760 -0.0840
 9616W        W28470   3.124   8.297   0.659  0.4703  0.1382  0.2703
 9617W        W28471   4.141  11.727   2.801 -0.1460 -0.1939 -0.1595
 9618W        W28472  15.315   1.444   1.976  0.1011 -0.0661  0.2288
 9619W        W28473   1.641   0.286   1.233  0.1759 -0.2636 -0.2014
 9620W        W28474  15.686   2.097  12.931  0.0353 -0.0608  0.2248
 9621W        W28475  12.251   1.120   0.560  0.0644  0.1524 -0.0682
 9622W        W28476   6.615  14.359  11.136  0.0499 -0.0969  0.1215
 9623W        W28477   2.985   3.959   3.925  0.0655 -0.1434  0.1636
 9624W        W28478   0.930  13.441  12.033 -0.0151  0.2307  0.1283
 9625W        W28479  18.147   9.403   3.708  0.5384  0.1813 -0.0168
 9626W        W28480   2.897  10.508   1.500  0.0019  0.2538  0.1711
 9627W        W28481   4.646   6.391  14.504 -0.4122  0.0118 -0.0462
 9628W        W28482   1.723   5.221   5.043  0.2473 -0.0360 -0.0774
 9629W        W28483  13.352  15.036  14.185 -0.2070  0.2529  0.1145
 9630W        W28484  15.509  15.690   0.413  0.1362 -0.0165  0.2578
 9631W        W28485  18.327  18.224  11.998  0.0014  0.0367  0.1439
 9632W        W28486  18.377   8.706   0.862 -0.0017  0.2255  0.0133
 9633W        W28487   1.038   9.440  11.521 -0.0431  0.3647 -0.3438
 9634W        W28488  12.238  16.755   1.129  0.1973  0.0180  0.0589
 9635W        W28489  11.234   4.640   0.038 -0.1468 -0.1727 -0.1883
 9636W        W28490   5.574   8.205   9.978  0.0781  0.4628 -0.0892
 9637W        W28491  12.612   8.779  13.201  0.0962  0.0223  0.1359
 9638W        W28492  16.753  18.212  15.397  0.2291  0.2036 -0.0782
 9639W        W28493   4.072   8.384   1.196  0.2304 -0.1455 -0.0373
 9640W        W28494  14.377   9.649  15.269 -0.3631  0.0075  0.0576
 9641W        W28495  16.059  18.109   2.679  0.0560 -0.0592  0.2314
 9642W        W28496  15.590   2.493  12.497 -0.1905 -0.2269  0.4087
 9643W        W28497  17.309   8.991   2.792  0.0551 -0.0404  0.1721
 9644W        W28498  12.658  11.883   1.181  0.2545  0.1623 -0.0169
 9645W        W28499   6.353  11.007  13.428 -0.0428  0.4444  0.0319
 9646W        W28500   6.664  16.995   3.257  0.5767 -0.1500  0.0600
 9647W        W28501   9.081  10.265   1.064  0.2995  0.0386 -0.0905
 9648W        W28502   4.456   7.853  15.366  0.1214  0.1291 -0.0379
 9649W        W28503   7.274   6.092  14.916  0.0820  0.1924 -0.1861
 9650W        W28504   0.433  15.633  14.794  0.1364  0.0369 -0.2548
 9651W        W28505  15.076   8.560  14.230  0.3810  0.0330 -0.1618
 9652W        W28506  12.035   6.331  14.564 -0.1281  0.0368 -0.0910
 9653W        W28507  15.675   5.358  14.944 -0.0864  0.1939 -0.4760
 9654W        W28508   7.267  14.630  14.178 -0.0429 -0.1409  0.0950
 9655W        W28509   4.851   9.086   5.302  0.0572  0.3268 -0.2590
 9656W        W28510  17.349   1.714  13.291  0.0158  0.0603 -0.0514
 9657W        W28511   1.977   1.697  13.165 -0.2597 -0.0151  0.0295
 9658W        W28512  14.237  12.650  11.137 -0.1269 -0.1559 -0.3175
 9659W        W28513  16.660   4.039  14.857  0.0729 -0.1381 -0.0770
 9660W        W28514  17.088   7.797   3.450 -0.0921 -0.0804  0.2461
 9661W        W28515  18.327   4.132  12.682 -0.0252  0.0163  0.0503
 9662W        W28516  11.611   3.462   0.011  0.0178  0.0566 -0.0335
 9663W        W28517   3.048   5.382  13.763 -0.1250 -0.3961 -0.2434
 9664W        W28518  15.432  12.955   2.158 -0.0245  0.1439 -0.0383
 9665W        W28519   4.521  13.693   3.439 -0.4003 -0.0076 -0.3587
 9666W        W28520  10.442   7.734  13.238  0.1177  0.3260 -0.0079
 9667W        W28521  13.193  16.895  14.850  0.2239  0.3644  0.0284
 9668W        W28522  16.036  10.967   0.072 -0.0418  0.0548  0.1322
 9669W        W28523   7.848  18.257  14.321 -0.3757  0.2126 -0.4071
 9670W        W28524   7.754  15.395   3.727  0.0467  0.1400 -0.1678
 9671W        W28525  17.409  16.061  14.848  0.3299  0.2055  0.3091
 9672W        W28526   2.512  10.386   0.011  0.2294  0.0226 -0.0678
 9673W        W28527  17.598  12.704  13.641 -0.0577  0.1263  0.2904
 9674W        W28528  17.744  17.230   5.516  0.1096 -0.4271  0.1978
 9675W        W28529  18.094   3.368   3.089  0.2578  0.0216 -0.0849
 9676W        W28530   1.288  16.059  15.198 -0.2141  0.0429 -0.1582
 9677W        W28531  15.221   4.707   3.813  0.0911  0.1555 -0.0689
 9678W        W28532  17.596  14.527   1.997 -0.0144 -0.2709  0.1939
 9679W        W28533   7.898  12.851  14.318 -0.1576  0.3668  0.0149
 9680W        W28534   3.398   3.425   3.521 -0.0912 -0.2778  0.2860
 9681W        W28535  17.291   0.863  15.433  0.3323 -0.2599 -0.4256
 9682W        W28536   0.844   5.127  11.013 -0.1134  0.1208 -0.1083
 9683W        W28537   6.818  12.373   4.789  0.1087 -0.2286 -0.1049
 9684W        W28538  13.933  14.141  14.623 -0.0235  0.2501 -0.0590
 9685W        W28539   5.368  15.581  13.106  0.1110 -0.0678  0.0992
 9686W        W28540   3.360   2.793  14.298  0.3202 -0.2902 -0.2262
 9687W        W28541   5.082  16.456   0.211 -0.0448 -0.2758  0.0649
 9688W        W28542  13.511  15.136  13.647  0.1681 -0.1394  0.0030
 9689W        W28543  11.522  14.805   3.509  0.0592  0.0025  0.0338
 9690W        W28544  12.791  10.494  11.709  0.2957 -0.2340 -0.1426
 9691W        W28545   0.134  17.034   0.505  0.0470 -0.1461 -0.0447
 9692W        W28546   0.500   0.447   2.857 -0.0165 -0.0339  0.0647
 9693W        W28547  17.665   1.604   4.300 -0.1230  0.0190  0.2409
 9694W        W28548   4.643   6.397  12.322 -0.2656  0.1845 -0.1046
 9695W        W28549  14.065  15.299   0.737 -0.3303 -0.1011  0.0020
 9696W        W28550   7.534   0.142  15.139 -0.0838 -0.0923  0.1573
 9697W        W28551   6.489   1.743  11.839 -0.0875 -0.1086  0.2082
 9698W        W28552   0.194   3.500  14.485  0.3013  0.1563  0.2330
 9699W        W28553   0.390   7.511   0.026  0.2986  0.0703 -0.2782
 9700W        W28554  11.518   2.482   0.256 -0.0336 -0.2842 -0.1576
 9701W        W28555   4.062  15.118  13.667  0.1033  0.0988 -0.0144
 9702W        W28556  10.837  14.408  13.367 -0.1336  0.0614 -0.4767
 9703W        W28557   7.697   6.829   0.050  0.1299 -0.1665  0.2256
 9704W        W28558  13.679  11.928   3.678  0.0557 -0.0901 -0.4411
 9705W        W28559   0.496  13.161  12.905 -0.4145  0.1474 -0.3392
 9706W        W28560  13.069   3.769   2.862 -0.1590 -0.1523 -0.1260
 9707W        W28561   9.865   2.439   2.489  0.0936  0.1154  0.1871
 9708W        W28562   5.647   1.651   0.075 -0.2916  0.2651 -0.0615
 9709W        W28563  17.351  13.658   0.380 -0.0148 -0.1355  0.0267
 9710W        W28564  16.633  16.810   0.048 -0.0578 -0.0861 -0.0726
 9711W        W28565  12.763   0.491  12.657 -0.1235  0.0665  0.1839
 9712W        W28566  12.007   3.412  11.230  0.1764 -0.2103 -0.0760
 9713W        W28567  14.184  18.501  15.209 -0.0668  0.0583 -0.1986
 9714W        W28568  11.458   7.269   2.483 -0.0366 -0.1418 -0.1057
 9715W        W28569  10.547   0.022   0.588  0.0504  0.0099  0.1890
 9716W        W28570   6.027  15.283   2.750 -0.0459  0.2374  0.2309
 9717W        W28571  10.256  13.430   2.726 -0.0288 -0.0152 -0.0858
 9718W        W28572   5.619  14.115  11.423  0.1084  0.0454  0.2045
 9719W        W28573   5.494  12.872  14.504 -0.0624 -0.2448 -0.1926
 9720W        W28574   8.969  11.776   4.310  0.0828 -0.1106 -0.2663
 9721W        W28575  15.090  15.182   3.166  0.1338 -0.2721 -0.2373
 9722W        W28576   1.446   8.858   3.605  0.2246 -0.2881 -0.0222
 9723W        W28577  15.620  13.183   3.537 -0.0930  0.0754  0.3251
 9724W        W28578  11.261   2.207   3.818 -0.0319  0.1837 -0.1681
 9725W        W28579  10.487  12.738   4.143 -0.1134 -0.0017  0.0775
 9726W        W28580  11.449   5.816   3.615  0.0452  0.0340 -0.2191
 9727W        W28581   9.825  13.164   0.462 -0.1890 -0.2508  0.1141
 9728W        W28582   6.884   4.071  13.579 -0.0808 -0.0012 -0.0514
 9729W        W28583   0.219   1.266  12.224 -0.3519  0.0996 -0.3109
 9730W        W28584   2.079  18.035  14.661  0.1587 -0.0431 -0.0249
 9731W        W28585   8.263  15.546  13.888  0.1767 -0.1951 -0.0672
 9732W        W28586   5.960  11.988  10.835  0.2060  0.3790  0.1573
 9733W        W28587  13.212   2.185   3.351  0.1184  0.0192  0.2535
 9734W        W28588   5.069  17.955  13.297 -0.0474  0.1584 -0.2967
 9735W        W28589  14.142  12.664   1.386  0.1337  0.1952 -0.3448
 9736W        W28590   2.311   4.587  11.535  0.0766  0.1882 -0.2226
 9737W        W28591  16.377   9.764  12.192 -0.2640  0.2298 -0.2275
 9738W        W28592   7.183  11.587   2.205  0.1071  0.2332 -0.0061
 9739W        W28593  13.133   0.540  10.858  0.2515  0.0100  0.0199
 9740W        W28594   9.424  12.894   0.173  0.2789 -0.3757  0.2313
 9741W        W28595   3.721   9.087  12.969  0.1527 -0.1093  0.1994
 9742W        W28596  17.892  13.745  12.361 -0.0371 -0.1213 -0.1899
 9743W        W28597  14.120   6.059  15.263  0.1328  0.0019  0.3037
 9744W        W28598   1.403  11.507  13.635 -0.2313 -0.1148  0.1673
 9745W        W28599  14.073  17.634   1.353 -0.0315  0.1255  0.0838
 9746W        W28600  13.681   6.704   2.661 -0.0405  0.3600 -0.1031
 9747W        W28601  15.319  18.214  14.245  0.1286 -0.1164  0.0631
 9748W        W28602   7.398  15.130  15.163  0.3711  0.0730 -0.0414
 9749W        W28603  18.201  12.082  10.458  0.3347 -0.0992  0.2772
 9750W        W28604  13.106  14.669  13.956  0.2814 -0.0861 -0.1635
 9751W        W28605   1.814  12.646   3.710  0.0463 -0.0267  0.0818
 9752W        W28606  15.008  15.406  13.623 -0.3596  0.0747  0.0563
 9753W        W28607   0.740  11.302  12.815  0.2348 -0.1265  0.1240
 9754W        W28608  12.603   4.812  12.128 -0.0754  0.1725  0.0674
 9755W        W28609  11.201  11.544   3.760  0.2540  0.1932  0.0121
 9756W        W28610  10.423   5.410  12.391  0.1011 -0.2844  0.3114
 9757W        W28611   6.058   9.625  15.154 -0.3184 -0.2020  0.0774
 9758W        W28612   7.019  17.136  15.333 -0.1113  0.2212 -0.0631
 9759W        W28613   3.669   0.142  12.651  0.1152 -0.0637 -0.0641
 9760W        W28614   8.038  15.549  12.373 -0.2167  0.2958  0.1545
 9761W        W28615   2.434   0.438  11.413 -0.4507 -0.1648  0.1398
 9762W        W28616   7.908   6.073   3.682  0.1412  0.0592  0.1630
 9763W        W28617  16.010   6.226  14.402 -0.1644  0.0750  0.0250
 9764W        W28618   1.812   9.395   1.914  0.0498  0.0792 -0.3122
 9765W        W28619   8.798   6.794   0.324 -0.2019 -0.1670 -0.1522
 9766W        W28620  11.471   4.296  15.250 -0.1794 -0.0586 -0.1092
 9767W        W28621   6.625   3.363   4.285 -0.1370 -0.3016  0.0526
 9768W        W28622   4.544   5.268   3.777  0.1053  0.1119 -0.1881
 9769W        W28623   6.896  18.375  13.812  0.1807  0.0346  0.1655
 9770W        W28624   1.950   6.258   1.558 -0.0404 -0.2980 -0.0467
 9771W        W28625  16.671  13.352  13.340  0.0550 -0.1438 -0.1678
 9772W        W28626  10.319   0.479   4.745 -0.3887  0.1091 -0.3062
 9773W        W28627   8.795  14.659  11.486  0.1106  0.0540 -0.0465
 9774W        W28628  15.525   1.470   0.087  0.2414 -0.2683  0.2190
 9775W        W28629   6.676  17.320   1.545  0.0765 -0.1652  0.0027
 9776W        W28630   4.779   0.428   1.121  0.1065 -0.4944  0.0675
 9777W        W28631  15.441  13.166  15.071 -0.0639 -0.0432  0.0283
 9778W        W28632   8.271   7.342   1.385 -0.1086 -0.0245 -0.2735
 9779W        W28633   4.812   4.996  14.181 -0.1846  0.2498 -0.2082
 9780W        W28634  14.731   4.150   0.809 -0.1345 -0.0279 -0.0000
 9781W        W28635  17.279   2.346   0.394 -0.2421 -0.0842  0.2174
 9782W        W28636  18.562  18.366   2.984 -0.1037  0.0970  0.2967
 9783W        W28637   4.812  11.465   0.023 -0.1328  0.0788  0.1398
 9784W        W28638   5.090   0.124  14.869  0.4395 -0.2748 -0.1002
 9785W        W28639   3.673   9.947   1.829 -0.5763  0.0244  0.1396
 9786W        W28640  13.793  15.704  13.109  0.1287  0.2231 -0.3217
 9787W        W28641   2.789  14.538  10.287 -0.2247 -0.1137  0.1642
 9788W        W28642   1.318  16.191  13.272  0.0907 -0.0494  0.1668
 9789W        W28643   9.980  10.214  11.273 -0.3660  0.0144 -0.1745
 9790W        W28644   1.281  10.251   3.920  0.1458 -0.3085 -0.1539
 9791W        W28645   8.864   9.352   3.068 -0.2570  0.0054  0.1228
 9792W        W28646   0.346   4.758   0.263 -0.0167  0.0539 -0.5609
 9793W        W28647   9.873   3.017  14.690 -0.3023  0.1468 -0.0775
 9794W        W28648  12.582   6.380  12.371  0.0676  0.0472 -0.2449
 9795W        W28649  11.385  12.989   3.605  0.0604  0.2650  0.1493
 9796W        W28650  13.986  12.001  14.336 -0.3736 -0.0533 -0.0795
 9797W        W28651   2.028  10.982   0.612  0.1346  0.3258  0.0436
 9798W        W28652  14.903  15.098  14.381 -0.3683  0.0341 -0.0315
 9799W        W28653  12.585   6.469  14.944  0.2264  0.0035 -0.0745
 9800W        W28654  14.195  17.021   2.447  0.0333 -0.0837  0.2004
 9801W        W28655   0.922   2.271  10.864 -0.0021  0.0843 -0.2079
 9802W        W28656  13.202  10.229  15.275  0.2659 -0.1095  0.4670
 9803W        W28657   6.704   6.920   2.523  0.0026 -0.3602 -0.4970
 9804W        W28658   2.141   0.156   3.929  0.4222  0.3475  0.2823
 9805W        W28659  17.153  17.042  14.466  0.2204  0.1414 -0.1636
 9806W        W28660  18.153  11.052   5.016  0.3764  0.0540  0.1121
 9807W        W28661  10.581  17.525  12.671  0.3267  0.1030 -0.0173
 9808W        W28662  17.769   1.616  11.223  0.0238 -0.1410  0.1387
 9809W        W28663  17.244   9.230  12.954 -0.2445 -0.1569 -0.4556
 9810W        W28664   4.084  15.945  14.077 -0.0328  0.3502  0.1773
 9811W        W28665  11.227   9.456  11.383  0.2777 -0.0333 -0.3028
 9812W        W28666  16.365   5.517  13.904 -0.0913  0.0097  0.3334
 9813W        W28667  16.040  17.050   4.556 -0.1152  0.2088  0.0639
 9814W        W28668   9.233   9.587   4.594  0.0856 -0.3217  0.2505
 9815W        W28669  18.288  13.547  11.002 -0.0196 -0.3957  0.0840
 9816W        W28670   3.016   7.954  12.921 -0.1679 -0.0565 -0.3905
 9817W        W28671   0.514  17.016   1.610 -0.1150 -0.2329 -0.1104
 9818W        W28672   8.018  15.026   3.452 -0.1306  0.0417  0.2196
 9819W        W28673  12.710  14.737  13.526 -0.0448  0.1299 -0.1292
 9820W        W28674   3.015   8.425  12.752  0.0255 -0.2940  0.1312
 9821W        W28675   7.256  12.113   5.622  0.0979  0.1660  0.0426
 9822W        W28676  17.592  10.329   0.587 -0.2135  0.0119 -0.0857
 9823W        W28677   5.183   0.942   0.199 -0.2254  0.2681  0.2093
 9824W        W28678   4.997  15.659   4.090  0.1552 -0.1138 -0.1613
 9825W        W28679  18.377  15.028  13.272 -0.2682 -0.1465  0.1983
 9826W        W28680   5.353   2.706   3.737  0.0689 -0.1690 -0.1367
 9827W        W28681   6.760   3.436  11.422  0.3286  0.1145  0.3380
 9828W        W28682  18.478   7.344   3.858 -0.0299  0.3039  0.0546
 9829W        W28683  13.703   3.296  13.685 -0.0793  0.2237  0.1965
 9830W        W28684  13.619  15.502  11.395  0.1943  0.0171 -0.1999
 9831W        W28685   6.825   8.387   1.482 -0.0771 -0.0441 -0.0938
 9832W        W28686   1.029  10.232  10.906  0.0792 -0.2830  0.2395
 9833W        W28687   6.768   9.592  14.492 -0.3477 -0.1032  0.0804
 9834W        W28688  10.667  10.465  13.475  0.3788  0.1994 -0.4670
 9835W        W28689  17.958  18.102  14.307 -0.0008  0.0228 -0.1351
 9836W        W28690   5.766   4.723  15.227  0.0783 -0.0302 -0.1765
 9837W        W28691  15.210   0.097  12.946  0.1596 -0.0109  0.0428
 9838W        W28692   7.833   5.751  11.248 -0.0871 -0.0426 -0.0238
 9839W        W28693  18.391  16.642   3.642  0.1823 -0.2531  0.0591
 9840W        W28694  18.275   4.059   2.030 -0.1230 -0.1599 -0.2658
 9841W        W28695   0.900  15.402  11.128  0.2150 -0.2944  0.0772
 9842W        W28696   2.609  10.905  11.388  0.1560 -0.0725  0.1652
 9843W        W28697   7.427   4.268   4.391  0.0926  0.2382 -0.1025
 9844W        W28698  14.179  12.347  15.176  0.0790  0.0472 -0.1028
 9845W        W28699   6.133   6.096  11.033 -0.0654 -0.0020 -0.0699
 9846W        W28700   1.630   7.970  14.657  0.0995 -0.0314 -0.2520
 9847W        W28701   3.346  15.076  14.432  0.1785 -0.0510  0.1464
 9848W        W28702   7.659   2.515  10.664 -0.2990  0.1694  0.1570
 9849W        W28703  11.544  11.597  11.556  0.0282  0.2582  0.0493
 9850W        W28704   1.126   2.537   4.213 -0.3314 -0.2718  0.0283
 9851W        W28705  14.641  11.832   2.212  0.1698  0.0383 -0.0261
 9852W        W28706  16.241   8.801   2.197  0.2579 -0.0905  0.0821
 9853W        W28707  17.090  16.038   0.836  0.0548 -0.0691  0.0546
 9854W        W28708  11.657  13.111   0.102 -0.0135  0.2447 -0.2763
 9855W        W28709   1.748  14.068  10.030 -0.1420 -0.0919 -0.1531
 9856W        W28710   2.730   3.314   0.610  0.0432 -0.0877 -0.1390
 9857W        W28711   0.521   1.218  11.018 -0.0271  0.0737 -0.3411
 9858W        W28712  15.476   8.460   0.306  0.0058 -0.2502 -0.1076
 9859W        W28713   8.640  15.788  14.701 -0.0944 -0.0337 -0.0639
 9860W        W28714  18.117   1.343  11.484 -0.1285  0.0023  0.1057
 9861W        W28715  14.024  17.706  13.887 -0.3564 -0.2111 -0.0506
 9862W        W28716   8.202  16.711  15.348 -0.1475 -0.1274 -0.2919
 9863W        W28717   7.130   6.296  13.225 -0.1979 -0.0443 -0.1224
 9864W        W28718   3.363  13.591  13.380 -0.0905 -0.2802  0.0445
 9865W        W28719   8.341  17.804  11.555 -0.3005 -0.0350  0.0280
 9866W        W28720   3.636   7.631   1.465  0.0329  0.0651  0.0204
 9867W        W28721   1.297  15.075  11.205 -0.0763 -0.0929 -0.1513
 9868W        W28722   5.315   5.547  14.945 -0.0525  0.1643  0.2844
 9869W        W28723   4.487   1.424   1.216  0.0374  0.1250  0.1707
 9870W        W28724   0.942  16.558   1.679 -0.1711  0.0635  0.0658
 9871W        W28725   4.047   9.444   4.119 -0.1194 -0.1411  0.0791
 9872W        W28726   0.322  17.559   2.947  0.2443 -0.0775 -0.2064
 9873W        W28727   6.822  17.437   3.055 -0.0121 -0.3433 -0.2449
 9874W        W28728  16.907  15.462   3.217  0.2591 -0.0770 -0.1586
 9875W        W28729   5.764  17.772   2.204  0.1094  0.0372 -0.1514
 9876W        W28730   1.311   9.748  14.406  0.0356 -0.1580 -0.0001
 9877W        W28731  17.792  15.984   2.276 -0.1458  0.2952  0.2802
 9878W        W28732  11.494   9.231   2.778 -0.0691  0.0110 -0.4432
 9879W        W28733   0.612   3.765  13.145 -0.3770  0.2023 -0.3706
 9880W        W28734  18.042   0.018   2.982  0.1603  0.0317 -0.1551
 9881W        W28735  15.302  11.644  13.951  0.1205  0.0152 -0.2077
 9882W        W28736  18.338   8.635  13.104  0.1457 -0.0654 -0.1282
 9883W        W28737   1.148   8.503  13.679  0.0201  0.2268 -0.2381
 9884W        W28738   1.542  11.568   0.531  0.1846  0.1254  0.3846
 9885W        W28739   5.365   2.204  11.118  0.0232  0.0806  0.1378
 9886W        W28740   3.348   2.951  11.819  0.4620  0.1847 -0.1839
 9887W        W28741  13.855   7.485   0.329  0.1461 -0.3283 -0.0656
 9888W        W28742  18.559  10.449  12.287 -0.0705  0.0733 -0.0247
 9889W        W28743   1.047   0.922   3.299 -0.2026 -0.1126 -0.0578
 9890W        W28744  14.456  11.111   1.114  0.0499 -0.0018  0.0175
 9891W        W28745   7.863   2.372   2.577  0.0505 -0.0565  0.0474
 9892W        W28746  18.489  11.050   0.822 -0.0038 -0.0766 -0.0228
 9893W        W28747  10.251  17.904  14.466  0.1442  0.0893 -0.0012
 9894W        W28748   9.652   6.459  13.530 -0.1174 -0.2119  0.1827
 9895W        W28749  12.899  12.311   1.010 -0.2110  0.1394  0.0979
 9896W        W28750   1.143   5.145   4.207 -0.1380  0.2863 -0.2192
 9897W        W28751  18.390   2.494   2.752  0.2218 -0.2878 -0.0198
 9898W        W28752   5.106  12.030   1.886  0.2766 -0.3018  0.0731
 9899W        W28753  14.626  14.172  12.388 -0.1226  0.0597 -0.1505
 9900W        W28754   9.574  16.832   5.123 -0.0820  0.0801  0.0493
 9901W        W28755   6.463   5.157   0.684 -0.0142 -0.1532  0.0842
 9902W        W28756  16.217   4.559   4.200  0.2239  0.2342 -0.2726
 9903W        W28757   2.798   3.660  13.110 -0.1376  0.0126 -0.2859
 9904W        W28758   0.129   0.796  14.375 -0.2401  0.1322 -0.2800
 9905W        W28759   6.171  11.231   3.702 -0.0321 -0.0259 -0.2226
 9906W        W28760  15.231   3.480  11.689 -0.0419 -0.1883 -0.0920
 9907W        W28761  17.402   1.815   1.300 -0.4658  0.1181  0.2683
 9908W        W28762  15.191   2.510   4.483 -0.0227 -0.0051 -0.0104
 9909W        W28763  16.775   3.372   2.379 -0.3295 -0.1320 -0.0525
 9910W        W28764  14.366   1.654   3.935 -0.3189  0.2602 -0.0565
 9911W        W28765   2.254   5.470  12.568  0.1802 -0.0612 -0.0792
 9912W        W28766  17.093   3.796   3.101  0.1095 -0.1674 -0.0942
 9913W        W28767  11.872   4.205  11.971  0.2746 -0.2561  0.2115
 9914W        W28768   4.811  17.295   0.507  0.4793 -0.0332 -0.0216
 9915W        W28769   0.614   4.082   4.190 -0.0029  0.0094 -0.0762
 9916W        W28770   4.181   2.842   2.236  0.3517 -0.3005 -0.1872
 9917W        W28771   6.484   7.147  14.854  0.2408 -0.1492 -0.0334
 9918W        W28772  16.417   4.188  13.186 -0.0440  0.0015 -0.1246
 9919W        W28773  17.796   5.797   0.683  0.0727  0.0775  0.0324
 9920W        W28774   5.155  15.851   2.768  0.0584  0.1687 -0.4144
 9921W        W28775  15.145   0.207  11.818 -0.0573  0.1606  0.0244
 9922W        W28776   3.267   4.289   0.705  0.1922  0.0193 -0.1127
 9923W        W28777   4.330   1.148  12.947 -0.0732  0.3440 -0.2526
 9924W        W28778  11.713   5.716  14.653 -0.2181 -0.1761 -0.0807
 9925W        W28779  15.700  12.041   4.334  0.0671 -0.0149  0.1810
 9926W        W28780   7.668  18.534   0.092  0.1114  0.1884 -0.1357
 9927W        W28781   9.936   1.339  11.644  0.0272  0.1236  0.1562
 9928W        W28782   1.366   2.734   2.128 -0.3025  0.0062  0.1814
 9929W        W28783  10.869   7.965   1.524  0.2547 -0.2808 -0.1614
 9930W        W28784  10.090  14.006   3.576  0.2656 -0.1316  0.1220
 9931W        W28785  12.213   4.145   2.011 -0.2488  0.0429  0.1067
 9932W        W28786   1.261  16.599  11.000  0.2271 -0.1102  0.1274
 9933W        W28787   8.692  11.486   4.034 -0.1900  0.2371 -0.2755
 9934W        W28788   3.228  17.932  12.998  0.0953  0.0548  0.2119
 9935W        W28789  14.334   5.547  12.052  0.1231  0.0479  0.1047
 9936W        W28790   4.365  18.565  11.520 -0.0404  0.0227  0.0058
 9937W        W28791  14.739   7.610  12.921  0.1136  0.1240 -0.0368
 9938W        W28792   6.460  14.901  12.665  0.1378 -0.1068  0.2288
 9939W        W28793   0.431   6.150   2.806  0.0333 -0.0171  0.0155
 9940W        W28794  14.570   6.176   3.045  0.1299  0.3017 -0.0794
 9941W        W28795  10.230  11.834   3.208 -0.0622  0.2223  0.0801
 9942W        W28796   6.922   7.604   2.903 -0.0361  0.1526  0.1004
 9943W        W28797  17.912   1.861  14.068 -0.1329  0.0848  0.4178
 9944W        W28798  16.158   1.107   2.466 -0.0613 -0.0646  0.2325
 9945W        W28799   1.408  10.601  11.079 -0.1528  0.0575  0.0616
 9946W        W28800   4.498   3.077  13.610 -0.0842 -0.2686 -0.0829
 9947W        W28801   5.843   1.108   1.957  0.1166 -0.0598 -0.0419
 9948W        W28802   0.320  13.592  12.719  0.2668  0.3844 -0.1491
 9949W        W28803   2.757  13.651  13.891 -0.3855  0.1772 -0.2304
 9950W        W28804  12.747  15.201  15.007  0.0648  0.0258 -0.0452
 9951W        W28805   4.078   4.284   4.367 -0.2073  0.2508  0.0299
 9952W        W28806   2.362   4.558  12.269 -0.1756 -0.1317  0.1387
 9953W        W28807   3.493  12.104  12.494 -0.0704  0.3178 -0.4425
 9954W        W28808  10.160   6.698  14.673  0.0111 -0.2524  0.3358
 9955W        W28809   9.408   9.050  12.722 -0.2262  0.0122 -0.0331
 9956W        W28810   1.892   8.775   3.101  0.2347  0.0595 -0.1346
 9957W        W28811   5.457  15.172   4.589 -0.3083  0.0938 -0.1696
 9958W        W28812  16.450  15.832  12.782 -0.2351 -0.0159 -0.3788
 9959W        W28813  10.421  10.044  11.029  0.0994 -0.2870  0.0508
 9960W        W28814  11.838  10.278   1.206 -0.0321 -0.1107 -0.0787
 9961W        W28815  14.378  17.072   3.978 -0.3328 -0.0956 -0.2122
 9962W        W28816   2.583   7.057  12.965 -0.1293  0.0147 -0.0571
 9963W        W28817   6.969   1.686  10.277 -0.0228 -0.1822 -0.0019
 9964W        W28818  17.440  17.452   3.225  0.0709  0.1467 -0.2544
 9965W        W28819  17.347  13.135  13.819 -0.0728  0.2578  0.2664
 9966W        W28820  12.461  18.319  13.443 -0.2619 -0.1882 -0.0247
 9967W        W28821   4.759   7.406   4.156  0.1321  0.0909 -0.1096
 9968W        W28822  14.656   7.029   0.832  0.4972  0.2156  0.2560
 9969W        W28823  15.867   8.128  12.156 -0.0424  0.2645  0.1164
 9970W        W28824   8.868   1.711   1.240  0.1163 -0.0029 -0.0643
 9971W        W28825   2.157   3.308  14.807  0.3519  0.0332 -0.1732
 9972W        W28826  14.179   7.080   1.798 -0.3315 -0.2089 -0.2527
 9973W        W28827  14.948   1.720   9.940 -0.0271 -0.0859  0.1963
 9974W        W28828  14.803  17.333  12.675 -0.1974  0.2904  0.0177
 9975W        W28829   5.223  16.244   4.866 -0.3641 -0.2057 -0.1775
 9976W        W28830   4.622  13.713  12.558 -0.3290  0.0129  0.3384
 9977W        W28831   1.384  17.889  10.676  0.0553 -0.2888  0.5137
 9978W        W28832  16.398   8.064  14.764  0.2942 -0.1837 -0.2047
 9979W        W28833  10.651  10.346   4.851 -0.3022 -0.1009 -0.1842
 9980W        W28834   7.655   1.116   2.300  0.1472 -0.2296 -0.2053
 9981W        W28835   4.396   7.981  13.421 -0.2142 -0.0964  0.0291
 9982W        W28836   8.301  15.918   5.256 -0.2389  0.0599  0.0910
 9983W        W28837   4.781  17.898  11.234 -0.1385 -0.0347  0.4299
 9984W        W28838  13.769   4.191   2.304 -0.0103 -0.0622 -0.1245
 9985W        W28839  12.526   0.814  11.861  0.0696 -0.4691  0.3362
 9986W        W28840  13.189  18.502  14.744 -0.4095 -0.2186 -0.2691
 9987W        W28841   0.994   2.499   1.296 -0.2314 -0.0982  0.2243
 9988W        W28842   8.799   0.190   1.709  0.0030  0.3507  0.2780
 9989W        W28843   4.170  15.133   2.493  0.2240 -0.2065 -0.2495
 9990W        W28844  15.199   3.697  14.188 -0.1720 -0.1981  0.0897
 9991W        W28845   9.317  14.235   3.878 -0.1576 -0.0911  0.3778
 9992W        W28846   5.628   8.440   5.146 -0.2002 -0.0548  0.2448
 9993W        W28847   0.015  17.834  13.020  0.1295 -0.0157 -0.1005
 9994W        W28848   5.979  18.001  11.667  0.4187  0.2542  0.0335
 9995W        W28849  15.336   5.097  12.577 -0.0992 -0.3025  0.1555
 9996W        W28850  17.529   2.085  14.277  0.1014  0.2343 -0.0026
 9997W        W28851   1.648   1.207   0.599  0.0275 -0.0040 -0.0598
 9998W        W28852   6.556   9.851  13.067  0.3201 -0.3539  0.1014
 9999W        W28853  14.915   6.198   1.724  0.2040  0.2959  0.3598
10000W        W28854  15.655  14.422  11.591 -0.3555  0.1520 -0.2648
10001W        W28855  12.742  13.485  11.910  0.3949 -0.3479 -0.2292
10002W        W28856   3.919  17.736  11.397 -0.0277  0.0049  0.2870
10003W        W28857   8.648  10.674   2.655 -0.1075 -0.1683 -0.1434
10004W        W28858   4.521   2.303  14.117  0.3513  0.0426 -0.2148
10005W        W28859   2.496  14.291  15.062 -0.3290 -0.2895  0.3803
10006W        W28860  12.381   0.850   2.161 -0.0026  0.1942 -0.1734
10007W        W28861  11.741  16.213  14.649 -0.0758 -0.1034 -0.1647
10008W        W28862   0.130  16.335  10.987  0.2467 -0.0230  0.1923
10009W        W28863  10.403  17.115  12.418  0.1825  0.0593  0.0109
10010W        W28864  15.074  15.967   0.730 -0.0929  0.1666 -0.1336
10011W        W28865  12.642  12.498   2.682 -0.0833 -0.0689 -0.0457
10012W        W28866  17.436   6.614   0.722 -0.0895  0.0385  0.1717
10013W        W28867  10.114  11.239   2.820 -0.0847  0.0217  0.3761
10014W        W28868  10.000   3.049  13.826 -0.3904  0.1657 -0.0662
10015W        W28869   4.488  14.793   1.188  0.1842 -0.0414  0.0248
10016W        W28870  10.588   8.312  12.753  0.2157 -0.0894 -0.0292
10017W        W28871  10.466  18.009   4.265  0.1052  0.0939 -0.0267
10018W        W28872   5.716   3.219  14.516  0.0029  0.1545 -0.0218
10019W        W28873   3.996  16.280   0.379  0.1826 -0.0374 -0.3048
10020W        W28874  14.220  14.929   1.598  0.0111  0.4424  0.0248
10021W        W28875   4.115  10.352  12.210 -0.0930 -0.3495 -0.0274
10022W        W28876   3.895   8.824  12.498 -0.1271 -0.0530  0.1247
10023W        W28877  13.623   5.853   3.249 -0.0981 -0.0592 -0.2698
10024W        W28878   8.695  17.005  15.076  0.0980 -0.0731  0.1052
10025W        W28879   9.908  18.172   4.422  0.1252 -0.0753 -0.2609
10026W        W28880   1.692   4.063   0.391  0.1430 -0.2048 -0.0002
10027W        W28881   7.857   0.924  12.188 -0.2013  0.0556  0.0188
10028W        W28882   1.644  10.194   3.511 -0.0534  0.1947 -0.2021
10029W        W28883   6.783   9.610  10.728 -0.1064 -0.4466  0.0661
10030W        W28884   4.007  13.521   0.608  0.1921 -0.2003  0.1806
10031W        W28885  10.171   2.634  14.645 -0.0665  0.2202 -0.0077
10032W        W28886   3.435  10.596   3.683 -0.2503 -0.1412 -0.1026
10033W        W28887   5.127   1.481  12.925 -0.4406 -0.2583  0.0884
10034W        W28888  18.460  18.294  14.262  0.1668 -0.0786 -0.3545
10035W        W28889   3.858   3.998   2.381 -0.0866 -0.1963 -0.1205
10036W        W28890  13.423   5.592   0.239 -0.0715 -0.0242  0.1186
10037W        W28891   7.218  11.119   4.780  0.1012 -0.2292 -0.2083
10038W        W28892   2.815   2.334  12.582 -0.0688 -0.0403 -0.2940
10039W        W28893  14.969   1.420  11.051 -0.2362  0.0192 -0.2776
10040W        W28894  13.239   4.925  13.074 -0.1904  0.0560 -0.2846
10041W        W28895   4.804   9.722   4.190  0.1902 -0.2410  0.1670
10042W        W28896  13.525   0.676  11.042  0.2921 -0.2736 -0.1160
10043W        W28897  15.772   7.689  14.972  0.1797  0.1129 -0.1023
10044W        W28898  14.947  15.175   0.146  0.2293 -0.3107  0.2006
10045W        W28899   8.932   1.302  15.035 -0.1893 -0.2084 -0.0580
10046W        W28900   7.116   7.385   1.007  0.1272 -0.0246  0.1460
10047W        W28901  12.820  11.439   3.225  0.0579 -0.2401  0.1281
10048W        W28902   4.634  17.530   2.542 -0.1333 -0.0029 -0.4226
10049W        W28903   9.431  17.368  12.566  0.2870 -0.1129 -0.1247
10050W        W28904  15.778  15.755   5.264 -0.2213 -0.3407 -0.0411
10051W        W28905   2.754   4.539  11.280 -0.2309  0.1768 -0.0827
10052W        W28906   4.289  11.091   3.996 -0.1073  0.0059  0.1844
10053W        W28907  16.264  18.449   1.928 -0.3096 -0.0945  0.2406
10054W        W28908  13.299   6.091  15.441  0.3816 -0.0550 -0.0523
10055W        W28909  10.690   4.076   2.609 -0.1259  0.0204  0.2644
10056W        W28910   1.627   0.100   4.152  0.0175 -0.0533 -0.3108
10057W        W28911   1.036   3.979  11.422  0.0559  0.2507 -0.1335
10058W        W28912   4.334   1.145   0.864 -0.0456 -0.0989 -0.0092
10059W        W28913  12.086  18.542  10.488 -0.3931  0.2352 -0.3107
10060W        W28914  10.257   9.148  12.159  0.0297 -0.0273  0.2318
10061W        W28915  13.459  16.140   3.054 -0.3503 -0.2533  0.1061
10062W        W28916  14.888  16.848  13.046  0.1113 -0.1653 -0.0303
10063W        W28917   5.218  17.526  13.507 -0.1135 -0.0647 -0.0222
10064W        W28918  16.030   3.802   0.516  0.2146 -0.1590  0.1749
10065W        W28919  14.406   2.816   0.566 -0.1626 -0.1085  0.0173
10066W        W28920  16.551  14.588   2.974  0.0878  0.2311 -0.0415
10067W        W28921   0.516  17.328  14.131  0.0730 -0.2106 -0.0222
10068W        W28922  17.225   7.637   0.293  0.0701  0.0859 -0.0997
10069W        W28923  15.565   9.627   1.355  0.0005  0.2001 -0.0601
10070W        W28924   1.968   5.641  14.015  0.1503 -0.1368 -0.1483
10071W        W28925  15.972  17.730  15.254  0.1795 -0.1460  0.0102
10072W        W28926  14.471   2.150  14.520 -0.0262  0.1876 -0.0778
10073W        W28927  12.752  13.509   0.636 -0.2329 -0.1495 -0.2618
10074W        W28928  13.859  13.963   3.888 -0.0362 -0.1131 -0.0872
10075W        W28929  12.014  15.320  13.535  0.0483  0.1278 -0.0162
10076W        W28930  11.476  10.715  13.573  0.1281  0.1118  0.1042
10077W        W28931   9.701  11.567   0.115 -0.0169 -0.1212 -0.1126
10078W        W28932  16.161  17.721  11.670 -0.2521  0.1488  0.3168
10079W        W28933  14.893   5.477  15.423  0.1535 -0.2737 -0.0463
10080W        W28934  13.717   7.170  10.727 -0.0807 -0.1306 -0.1303
10081W        W28935  14.865  12.124  13.822 -0.2487 -0.2992 -0.1036
10082W        W28936   4.348  16.432  10.066 -0.0260 -0.0965 -0.2607
10083W        W28937  13.941  16.988  12.577  0.1145 -0.0698 -0.2827
10084W        W28938   3.758   0.622  11.301  0.3018  0.0543  0.0093
10085W        W28939  16.383  13.171  14.953  0.2783  0.0976 -0.2062
10086W        W28940   4.908   4.644  11.178  0.1316 -0.4334  0.3971
10087W        W28941  14.019   4.145   4.145 -0.3753 -0.0406 -0.0576
10088W        W28942  14.727  10.312  15.147  0.0449 -0.1087 -0.3176
10089W        W28943  17.543  17.669  11.586 -0.2722 -0.1073 -0.0036
10090W        W28944  16.181  15.439   2.473  0.2043 -0.1209  0.4687
10091W        W28945   8.835  17.262  10.031  0.1885 -0.2904 -0.1604
10092W        W28946   3.857  17.543   0.451  0.1514  0.1696  0.0350
10093W        W28947  16.922   2.932   3.437 -0.3357 -0.0662 -0.2816
10094W        W28948   8.714   9.110   1.017 -0.0137 -0.2495  0.0388
10095W        W28949   1.048  11.086  13.861 -0.2174 -0.2598 -0.3460
10096W        W28950   3.281   4.188  14.810 -0.1845 -0.3592  0.0008
10097W        W28951  18.158  16.713   1.549  0.1561  0.0942 -0.1347
10098W        W28952   1.595   9.378   3.780 -0.2709  0.0661  0.0711
10099W        W28953  17.917   7.310  12.098 -0.0542  0.0636 -0.1415
10100W        W28954   8.925   3.687  12.636 -0.1013  0.0853 -0.0030
10101W        W28955  14.155  13.294  14.603  0.2039  0.1361 -0.0569
10102W        W28956  10.214  15.842   2.995 -0.3213 -0.0457  0.1261
10103W        W28957   1.968  12.271  12.501  0.4286 -0.0436 -0.2422
10104W        W28958  10.430  18.404   4.572  0.1902 -0.0874 -0.1118
10105W        W28959  12.655  18.445   0.362  0.1398  0.1189  0.0830
10106W        W28960  16.673   9.390   2.548  0.0626 -0.1935 -0.0097
10107W        W28961  13.197   2.984  11.217 -0.4261 -0.1543 -0.0002
10108W        W28962  14.352   1.283   4.252  0.3703 -0.1340 -0.0471
10109W        W28963   7.846  12.571  14.788  0.2044  0.1904  0.0808
10110W        W28964  15.381   6.482   4.866 -0.1120  0.1651  0.2865
10111W        W28965   7.003  11.683   4.113  0.0917 -0.4566 -0.1223
10112W        W28966  11.612  11.294  15.266 -0.0984 -0.2170  0.2565
10113W        W28967   9.482   5.838   2.386  0.2667 -0.1864  0.1133
10114W        W28968  13.937   6.062  11.328  0.2861  0.1232 -0.0160
10115W        W28969   0.680  14.266   4.303  0.0053 -0.2537 -0.0506
10116W        W28970   7.646  12.092  14.647 -0.1250 -0.0869 -0.0757
10117W        W28971   6.648   0.138   0.386  0.2263  0.2034  0.1007
10118W        W28972  11.897  17.066  15.377  0.1125 -0.0246 -0.1822
10119W        W28973  18.369  13.818   2.083  0.2286 -0.2254 -0.1036
10120W        W28974   1.421   1.874   1.673 -0.1339 -0.0067  0.0347
10121W        W28975  15.383   3.162   5.576  0.0085  0.0468 -0.4245
10122W        W28976   8.037  17.190  10.618  0.2057 -0.2286 -0.0656
10123W        W28977   8.237   9.883   0.495 -0.1081  0.0900 -0.0670
10124W        W28978  13.617   7.495  13.632  0.0750  0.1440 -0.0683
10125W        W28979  16.961   4.440  14.742  0.1664 -0.1733  0.0525
10126W        W28980   9.215   6.539  13.285 -0.2730  0.0510 -0.0088
10127W        W28981  14.901   5.665   5.220  0.1721  0.0042 -0.2386
10128W        W28982  17.307  14.829  11.436  0.0464 -0.1816 -0.1332
10129W        W28983   1.362  14.167  15.292  0.2603 -0.2322 -0.0158
10130W        W28984   2.857   5.973   3.726 -0.0173  0.2003 -0.1010
10131W        W28985   2.374   3.798   4.278  0.0950 -0.2713  0.0855
10132W        W28986  14.616   7.801  11.495  0.0586 -0.1495 -0.1466
10133W        W28987  11.648   4.798   4.747  0.4868 -0.2248 -0.3668
10134W        W28988   6.821  13.320  14.324  0.0022 -0.0578 -0.1685
10135W        W28989  14.272  16.384  14.188  0.0303 -0.1303 -0.0804
10136W        W28990   8.137   4.089  13.977  0.3976  0.0020 -0.2009
10137W        W28991   4.304  18.253   2.985  0.0298 -0.1633  0.2634
10138W        W28992   5.551   4.044   2.434  0.1103  0.1787  0.0867
10139W        W28993   0.283   5.487  11.416 -0.0468  0.2003  0.2576
10140W        W28994  11.593   8.393  15.103  0.2130 -0.0490 -0.2223
10141W        W28995  12.475  14.257  13.431 -0.2231 -0.2488  0.3342
10142W        W28996   8.030  12.892   3.447 -0.1321 -0.0047  0.0132
10143W        W28997   3.764  16.029  13.481 -0.0563  0.0714  0.2492
10144W        W28998   4.342  11.222  11.950  0.0028  0.2697 -0.1566
10145W        W28999   2.252   2.397   1.764 -0.2560  0.2627  0.1350
10146W        W29000  16.957   2.110   5.169 -0.1498 -0.3984 -0.0151
10147W        W29001   6.469   7.278   3.223 -0.0170 -0.0565 -0.1259
10148W        W29002  11.374   6.177  13.255  0.1646  0.0359  0.2752
10149W        W29003  11.181  13.721   1.703 -0.2124 -0.1332 -0.1192
10150W        W29004  14.946   0.274   2.458  0.1483 -0.2552  0.0464
10151W        W29005   7.096   4.808   5.007  0.0876 -0.2042 -0.1668
10152W        W29006   1.582   7.454  12.373 -0.3266 -0.2566 -0.1955
10153W        W29007  15.475  17.194   0.114  0.0489  0.0399 -0.1377
10154W        W29008  15.423  17.995   3.929 -0.2861  0.0935 -0.0058
10155W        W29009   8.356   6.155  13.361  0.0162 -0.1967  0.2444
10156W        W29010   1.017  14.935   0.721  0.1873  0.1614  0.0108
10157W        W29011   6.366  15.504  13.457  0.3658  0.1619  0.1482
10158W        W29012   3.492  16.890  14.669 -0.1028  0.3380 -0.1416
10159W        W29013   8.006  11.858   0.914  0.0021 -0.2047 -0.2382
10160W        W29014   9.480  13.427   3.404 -0.0806 -0.1209  0.0129
10161W        W29015   3.433  12.511   1.294 -0.3222  0.1136  0.0401
10162W        W29016  14.557  13.512   3.336  0.0646 -0.1575  0.2722
10163W        W29017   3.316  15.494   2.898  0.0228  0.1230  0.1419
10164W        W29018   7.528  16.561   2.436  0.1810  0.1264  0.1812
10165W        W29019   3.678   1.650   2.505  0.0722 -0.3031  0.1836
10166W        W29020   5.876  16.776  15.256  0.2820  0.0568 -0.1321
10167W        W29021   6.865   2.989  12.640 -0.2730  0.0823  0.0031
10168W        W29022   3.451  10.395  11.183 -0.1608 -0.2018  0.0433
10169W        W29023   3.794   9.896  14.970 -0.0005 -0.1191 -0.2938
10170W        W29024  12.844   3.027  13.896  0.1965  0.1402  0.4240
10171W        W29025   3.267  14.446  11.822 -0.0267 -0.1878 -0.1108
10172W        W29026  17.504   7.063  12.409 -0.0762 -0.1060 -0.0410
10173W        W29027  13.183  10.220  14.288  0.0850  0.2647  0.2454
10174W        W29028  13.654   6.902   4.420  0.1513  0.1272 -0.1140
10175W        W29029   1.887   6.267  12.889 -0.3531  0.1061 -0.0882
10176W        W29030   3.279  16.224   2.427  0.3727 -0.3148  0.0900
10177W        W29031   2.341   8.771   4.131 -0.2474  0.2357  0.2477
10178W        W29032   6.863   9.236  14.094  0.0046  0.1326  0.2414
10179W        W29033  14.889   2.383   2.449  0.2555  0.1211 -0.0709
10180W        W29034   3.607   8.761  13.353  0.0427 -0.3464 -0.0315
10181W        W29035  10.265   1.373   0.949  0.3605 -0.1892  0.0752
10182W        W29036  14.903  11.907  11.578 -0.1290 -0.0362  0.0644
10183W        W29037   7.011   1.924  12.471  0.1478 -0.0637  0.1454
10184W        W29038   3.006  11.482  14.058 -0.3211 -0.2264 -0.0264
10185W        W29039  15.083   9.747  12.466  0.0378 -0.1406 -0.1050
10186W        W29040  14.207   5.129   0.766  0.2939 -0.1655  0.1942
10187W        W29041   3.812   8.623   3.531  0.1494 -0.0975 -0.0190
10188W        W29042  18.487   1.317   2.103  0.1003 -0.2146 -0.1864
10189W        W29043   1.764   2.365   2.697 -0.0612  0.1629 -0.1115
10190W        W29044  17.156   2.259  13.949  0.2460 -0.1139  0.2202
10191W        W29045  10.285  16.326   1.276  0.0656 -0.0359  0.2336
10192W        W29046   6.183  17.945   3.452 -0.2171 -0.1156 -0.0790
10193W        W29047   6.862   4.045  14.135 -0.0705  0.1091  0.2308
10194W        W29048   5.099  17.229  13.156 -0.0055  0.0139 -0.1579
10195W        W29049  13.534  15.202  11.800  0.2925 -0.0509  0.1918
10196W        W29050  13.954   0.909   0.111  0.1449 -0.0681 -0.0534
10197W        W29051  17.659   6.557   4.547  0.0967  0.0109 -0.3869
10198W        W29052   2.571  13.999  12.923  0.0903  0.3169  0.0401
10199W        W29053   3.829   0.117  11.616  0.1142 -0.1319  0.0706
10200W        W29054  16.769  11.719  13.809  0.4126  0.0232 -0.1289
10201W        W29055   6.888   8.293  14.201 -0.1355  0.0216 -0.1686
10202W        W29056   5.238  11.799  13.097 -0.3372  0.0258  0.0022
10203W        W29057  12.947  17.704   3.246  0.1341 -0.0891  0.2059
10204W        W29058   1.562  10.524   1.376  0.0107 -0.4574  0.0631
10205W        W29059   9.339   1.593  14.762  0.2027 -0.0033  0.0945
10206W        W29060   5.042   2.807   0.118 -0.3212  0.0621 -0.0789
10207W        W29061  11.166   9.646   2.945  0.0028 -0.0749 -0.1563
10208W        W29062   5.203   1.450   0.256 -0.1354 -0.2167 -0.5069
10209W        W29063   2.641   0.136   1.405  0.2756  0.0540 -0.1498
10210W        W29064  11.876  15.664   4.763 -0.1585 -0.0546  0.2028
10211W        W29065  12.946  13.994   3.172 -0.2442  0.3133 -0.2386
10212W        W29066  12.964  16.142   3.804 -0.0347  0.2449 -0.2458
10213W        W29067  12.762   0.226  12.248 -0.1239 -0.0398 -0.3248
10214W        W29068  18.524  12.306  10.837  0.0191 -0.0972 -0.3268
10215W        W29069  14.880  18.115  11.206 -0.3212 -0.0410  0.2458
10216W        W29070   6.528  12.892  14.489 -0.0005  0.0350 -0.0890
10217W        W29071  10.071   4.890   5.542  0.0835 -0.1556 -0.0250
10218W        W29072   4.199   7.031   1.177  0.1137 -0.0991 -0.0090
10219W        W29073   7.713   6.537  10.653  0.1082  0.2863  0.1144
10220W        W29074   6.415   0.185   3.341  0.1308  0.1862  0.0690
10221W        W29075  11.958  13.801  12.990  0.1188  0.0743 -0.3331
10222W        W29076  17.111  15.610  14.800  0.3378  0.3040  0.0526
10223W        W29077   6.496   4.274   4.290 -0.1684  0.4953  0.0489
10224W        W29078   9.531   8.245  14.167 -0.0609  0.1172 -0.0612
10225W        W29079  10.981  17.118   2.944 -0.1975  0.1088  0.1229
10226W        W29080  12.744   4.862  12.998  0.0074  0.1200  0.0861
10227W        W29081   4.464  10.492   2.921  0.0452 -0.1619  0.0182
10228W        W29082   0.195  13.614   1.669  0.3843  0.3912  0.0289
10229W        W29083   7.624  16.066   2.453  0.2358 -0.0261 -0.0634
10230W        W29084  17.278  15.280   3.442 -0.1654 -0.0381 -0.0137
10231W        W29085  16.535   9.233  10.985 -0.1669 -0.1520 -0.2591
10232W        W29086   5.278   2.775  12.700  0.0026  0.0416  0.2179
10233W        W29087   6.980  10.058  15.349  0.2941  0.2121 -0.2651
10234W        W29088   8.633   3.242   4.633  0.2894  0.1113 -0.1236
10235W        W29089   4.135  14.658  11.165  0.0977 -0.0198  0.0284
10236W        W29090   7.110  12.820  10.784  0.0419  0.1414 -0.0062
10237W        W29091  14.373  17.436   3.622  0.3032  0.1374  0.0458
10238W        W29092  17.191   3.884  13.290  0.0386  0.1197  0.2599
10239W        W29093  17.871  12.102  14.660  0.3476  0.0348 -0.0951
10240W        W29094  15.564  18.226  13.536 -0.0322  0.1779  0.0898
10241W        W29095   9.797  12.756   1.833 -0.1748 -0.0071 -0.1461
10242W        W29096  13.433  15.496   0.597  0.0282 -0.1824 -0.0398
10243W        W29097   3.521   1.797  11.175 -0.1263  0.1313  0.2231
10244W        W29098  16.950   5.459  13.064  0.0283 -0.0767 -0.2801
10245W        W29099  11.342   8.150  12.507  0.2195  0.0927 -0.1736
10246W        W29100  10.375  14.696  13.171  0.0538 -0.0044 -0.2081
10247W        W29101  10.842  18.282   0.335  0.0279 -0.0273  0.0830
10248W        W29102  12.651   5.254   1.329 -0.0150  0.2325  0.2763
10249W        W29103   6.723   8.625   0.136 -0.1021  0.0772 -0.2284
10250W        W29104   9.040   5.816   2.147  0.0409  0.0040  0.4140
10251W        W29105   3.981   1.508  13.243  0.0560 -0.1219 -0.0579
10252W        W29106  17.594   9.794   3.107  0.1747  0.0428  0.1400
10253W        W29107   0.661   1.646  13.922  0.2336 -0.4029 -0.1346
10254W        W29108   6.701   0.874   2.855 -0.1612 -0.3091 -0.1512
10255W        W29109   1.807  10.583   9.805 -0.2376 -0.0789  0.3577
10256W        W29110  11.369  18.120  13.358 -0.1444  0.0712  0.2060
10257W        W29111   6.941  14.141   0.894  0.1452  0.0948  0.1290
10258W        W29112  17.206   7.537   4.598 -0.1049  0.1215 -0.0110
10259W        W29113   9.470   5.683   0.833  0.1041  0.0308 -0.0599
10260W        W29114  13.086  13.864  13.393  0.2971  0.0009 -0.0679
10261W        W29115  11.869   9.443  14.386  0.1116 -0.1343  0.0018
10262W        W29116  15.738  12.353  14.264 -0.0212 -0.1730  0.0472
10263W        W29117   3.602  11.242   3.931  0.2050  0.1565  0.0012
10264W        W29118  12.210  16.446  11.633 -0.0528  0.0363  0.2057
10265W        W29119  18.443   5.421  14.666  0.0008  0.2039 -0.0193
10266W        W29120   1.966   1.630   1.683  0.3358 -0.4248 -0.1567
10267W        W29121   5.398   5.021   2.393  0.0630  0.1393 -0.1174
10268W        W29122   9.058   7.453   0.885 -0.0722 -0.0161  0.0820
10269W        W29123  18.465   6.036   4.043 -0.1822 -0.0515  0.0944
10270W        W29124   7.564  15.462  12.177 -0.4625 -0.1380  0.0923
10271W        W29125   8.178  10.568   2.820 -0.1525  0.0268  0.0468
10272W        W29126   9.010   4.012   2.505 -0.2766 -0.0355  0.2405
10273W        W29127  14.025   4.368  14.548  0.1818  0.0804  0.3378
10274W        W29128   1.088   5.570   1.222  0.4318  0.1112 -0.0770
10275W        W29129   3.402   0.155   1.679  0.1716  0.2120 -0.1026
10276W        W29130   0.024   5.460   3.489  0.2161  0.1601 -0.3710
10277W        W29131  13.845  10.349   0.212  0.1518 -0.1420 -0.1395
10278W        W29132   8.935   8.482   3.196  0.1349  0.0675  0.2050
10279W        W29133   5.312  15.728   3.363 -0.3446  0.0285  0.0331
10280W        W29134  11.387   8.694  11.706 -0.4067  0.2603 -0.0349
10281W        W29135  13.129  11.247  14.245  0.1450  0.1945  0.1177
10282W        W29136   9.354  15.231   9.940 -0.2209  0.1149  0.1517
10283W        W29137  17.808  13.508   0.045  0.0250 -0.2976  0.2130
10284W        W29138   2.051  17.124  11.976  0.2504  0.3437 -0.0308
10285W        W29139   3.332   3.585   0.782 -0.0150  0.1817  0.0264
10286W        W29140  10.501   6.002  13.559 -0.4920 -0.0597 -0.1800
10287W        W29141  10.780  14.294  15.188  0.1405 -0.2409 -0.2039
10288W        W29142   2.973   5.164   2.614  0.2289  0.2506 -0.1063
10289W        W29143   4.822   5.954   3.320  0.1224 -0.2983  0.1911
10290W        W29144  14.347   5.682   0.641 -0.2272 -0.0369 -0.3083
10291W        W29145   9.496  15.019   1.566 -0.0867 -0.0775 -0.3493
10292W        W29146  16.415  11.141  11.755 -0.0802 -0.0293  0.0906
10293W        W29147  16.008   9.517   1.582 -0.3216 -0.0389 -0.0798
10294W        W29148   8.522  10.373   4.119 -0.1637  0.2473  0.3943
10295W        W29149   6.919  13.251   1.923 -0.0333  0.0708 -0.0421
10296W        W29150   7.262  15.732   1.959  0.0029  0.0609 -0.1890
10297W        W29151   0.974  13.894  11.091  0.1683 -0.0652 -0.0408
10298W        W29152  15.270   3.853  12.798  0.0636 -0.1110  0.0895
10299W        W29153   6.529   6.302  13.639 -0.4285 -0.2978  0.0895
10300W        W29154   9.705   6.815   0.369  0.0214 -0.0966 -0.0043
10301W        W29155  13.981   4.831   4.469 -0.2266 -0.0938  0.0777
10302W        W29156   2.724  11.060   3.216  0.3493 -0.1590  0.1336
10303W        W29157  12.721  16.646  14.927  0.2553  0.2232 -0.4678
10304W        W29158   5.631   5.280   5.587  0.1287 -0.1464  0.0560
10305W        W29159  13.969  16.154  13.242  0.0558 -0.0120 -0.0815
10306W        W29160  16.651   3.545   5.449  0.2697 -0.0208  0.1256
10307W        W29161   0.170   9.523  11.050 -0.0229 -0.5022 -0.0661
10308W        W29162  10.768   4.278  13.458  0.0410 -0.2808  0.0754
10309W        W29163  10.486   9.997  12.700 -0.0347 -0.2641 -0.2122
10310W        W29164   0.716   1.986  13.010 -0.1959  0.0275 -0.1071
10311W        W29165   1.545  13.771  14.650 -0.1737  0.0445 -0.0907
10312W        W29166  15.458  16.546   3.002 -0.4112  0.1602 -0.1433
10313W        W29167   4.782   6.496   2.034  0.3961  0.1417  0.1178
10314W        W29168   6.357  12.392  14.380  0.0525 -0.0173 -0.1403
10315W        W29169   7.260  16.305  12.520  0.1378 -0.1038  0.0178
10316W        W29170  11.171   8.449   3.434 -0.0685 -0.3201 -0.0559
10317W        W29171  12.498  10.261   4.423  0.2675 -0.0187  0.0110
10318W        W29172  14.799   4.011   3.638  0.0354 -0.0787 -0.1591
10319W        W29173   6.063  10.823  14.452  0.3123 -0.2643 -0.3347
10320W        W29174   4.429  16.721  13.599 -0.2796 -0.1317 -0.0280
10321W        W29175   4.014   9.736   3.631  0.0396  0.0063 -0.1022
10322W        W29176   8.607  11.071  12.378  0.4565 -0.0772 -0.3826
10323W        W29177  15.967   2.609   6.058 -0.1942 -0.1474  0.2820
10324W        W29178   0.660  17.613  10.911 -0.0342  0.2764  0.2482
10325W        W29179   3.641   6.717  15.157  0.0664  0.1419  0.0122
10326W        W29180   0.477  12.084   3.722  0.0222  0.1149 -0.3357
10327W        W29181  18.566   1.616  11.754  0.1132  0.1258 -0.1897
10328W        W29182  13.728   0.683   3.645  0.0218  0.1380  0.0643
10329W        W29183  14.019   6.230   4.502 -0.3828 -0.0886  0.0844
10330W        W29184   7.240   3.327  12.691  0.0600  0.0929  0.0772
10331W        W29185  10.426   1.165  11.744  0.0061  0.2186  0.2407
10332W        W29186  11.988   4.838  11.363 -0.0259  0.3665 -0.1543
10333W        W29187   3.458   4.795   0.721 -0.2862  0.1424 -0.1746
10334W        W29188  11.829  13.980   5.257 -0.1727  0.1791 -0.3194
10335W        W29189   7.260   6.108  13.662  0.0456  0.4082  0.0797
10336W        W29190   5.202   7.188   3.636 -0.1386  0.1094 -0.2704
10337W        W29191   7.163   1.483   0.053 -0.1092  0.2042 -0.1340
10338W        W29192  18.489  14.161  14.124 -0.1351  0.1206 -0.3563
10339W        W29193  13.700  10.561  15.212  0.1753 -0.0379 -0.0593
10340W        W29194   1.481   6.191   0.946  0.0951 -0.2868  0.3528
10341W        W29195   2.716  15.377  12.298 -0.1405  0.0307 -0.0945
10342W        W29196   8.333   8.062   1.713 -0.1145  0.1226 -0.1000
10343W        W29197   7.855  17.512   1.458  0.3884 -0.1926  0.2163
10344W        W29198   8.277  11.156  15.366  0.0016 -0.0119  0.2681
10345W        W29199  13.839   2.605   1.215 -0.0382  0.0751  0.0632
10346W        W29200   2.604  14.910  12.477  0.0481  0.1078 -0.3073
10347W        W29201   9.473  12.469   1.559 -0.2178  0.1256 -0.1297
10348W        W29202  18.269  10.194   0.923 -0.1855  0.4117 -0.0806
10349W        W29203   4.584  15.931  15.009  0.3433 -0.0156 -0.2587
10350W        W29204  11.596   0.466  13.225  0.1263 -0.0118 -0.2098
10351W        W29205   5.601   0.603  14.517  0.3006  0.1065  0.1497
10352W        W29206  11.943  18.276  14.185 -0.1382  0.0369  0.1088
10353W        W29207  12.915   4.842   3.566 -0.1921 -0.0360 -0.1346
10354W        W29208   6.049   7.316  15.361  0.0490  0.1368 -0.0651
10355W        W29209  11.627   8.350   4.180  0.3118 -0.1168 -0.0276
10356W        W29210   6.225  10.599  11.728  0.1567  0.0240 -0.0959
10357W        W29211  18.316   0.283   0.757 -0.0100  0.2273 -0.2189
10358W        W29212   7.544   1.480   2.667  0.1061 -0.0535 -0.1824
10359W        W29213  10.140  15.232   2.257  0.1405 -0.0787  0.1087
10360W        W29214  12.779   6.299  15.419 -0.1145  0.2364 -0.0616
10361W        W29215  18.468   5.880  12.334 -0.2161 -0.1320  0.1128
10362W        W29216   7.044   3.626   1.662 -0.1125  0.2219  0.2114
10363W        W29217   4.002  16.947  14.730 -0.3601 -0.2484 -0.0492
10364W        W29218   5.479   9.334  12.003 -0.0504  0.0133  0.1201
10365W        W29219   8.107   8.679   0.205 -0.1870  0.2133  0.2622
10366W        W29220   5.253   4.049  14.992 -0.0253 -0.0249 -0.0561
10367W        W29221   9.623  15.985  13.606  0.2229  0.2320  0.1782
10368W        W29222   4.692  12.588  14.763 -0.0883 -0.0868 -0.0492
10369W        W29223  15.856  16.136   4.115 -0.1704 -0.0724 -0.0221
10370W        W29224   5.467   9.835   0.892 -0.2675  0.4783  0.3248
10371W        W29225   4.269  13.422  11.876 -0.2281  0.0837 -0.2687
10372W        W29226   9.039   3.557  13.135 -0.2144  0.0614 -0.0703
10373W        W29227  18.534  17.519  13.426  0.0193  0.0710  0.2048
10374W        W29228  12.612   0.491  15.245  0.1005  0.0985 -0.5469
10375W        W29229   0.454   2.207  11.186 -0.2087  0.2183  0.2553
10376W        W29230   7.892  18.376  13.627  0.1489 -0.0167 -0.0521
10377W        W29231   9.976  14.582  12.843 -0.1672  0.1047 -0.1458
10378W        W29232   4.136   5.597   3.820 -0.4952 -0.2409 -0.2375
10379W        W29233   5.168   3.953   3.757 -0.2811 -0.1344 -0.1408
10380W        W29234   2.799   2.065  11.070  0.3346  0.4154  0.3542
10381W        W29235   5.156  16.909   4.304  0.1706 -0.0944 -0.1084
10382W        W29236   9.579   8.350  12.037 -0.1511 -0.2109 -0.2966
10383W        W29237  13.459  11.379  14.615  0.0757 -0.0290 -0.2372
10384W        W29238   6.426   2.444  11.188  0.0238 -0.0332 -0.0676
10385W        W29239  15.347   1.620   3.522  0.1143 -0.1057 -0.1562
10386W        W29240   9.822  15.815  10.593  0.1200 -0.2293  0.1896
10387W        W29241  16.521   0.045   0.750 -0.0830  0.0584 -0.1306
10388W        W29242  10.721   1.525   1.144  0.0304 -0.1196 -0.0096
10389W        W29243  12.350   6.876   1.655 -0.1320 -0.1126  0.0653
10390W        W29244   9.899  17.099  11.617  0.0027 -0.0874  0.2656
10391W        W29245   5.210   2.940   3.178 -0.2979  0.3077  0.1891
10392W        W29246  18.287   4.073  12.182 -0.2485  0.0267 -0.1816
10393W        W29247  13.268   2.632   2.012 -0.1634  0.1411 -0.0963
10394W        W29248  13.453  18.326   3.278 -0.0155 -0.1721  0.0198
10395W        W29249   4.001  14.902   0.089 -0.0940  0.1629 -0.1648
10396W        W29250   0.203   6.308  12.384 -0.0873 -0.0816  0.1906
10397W        W29251  15.274   2.982   3.072 -0.0521  0.0338  0.0883
10398W        W29252   5.938  16.247  12.916  0.0636 -0.3382 -0.0010
10399W        W29253  10.726   6.709   0.199 -0.0216  0.1380 -0.0491
10400W        W29254  11.586  13.844   4.769 -0.0689  0.1059 -0.0771
10401W        W29255  18.172  15.871  15.346  0.4024 -0.1347  0.4375
10402W        W29256   2.340  17.566  15.176  0.0815  0.0706  0.2415
10403W        W29257  16.972   7.841  13.503 -0.0933 -0.0221 -0.0597
10404W        W29258  11.066  13.928  14.077 -0.2548 -0.1955 -0.0837
10405W        W29259   1.662  18.154   2.492 -0.1000 -0.0653  0.0363
10406W        W29260  17.603  12.698  12.328  0.1314 -0.0603 -0.0959
10407W        W29261   3.200   7.809  10.163  0.1278 -0.0742 -0.1383
10408W        W29262   8.154   4.628   0.859  0.2164 -0.1185  0.0517
10409W        W29263  10.279  15.876   0.898  0.0078 -0.1937 -0.0826
10410W        W29264  13.070   1.843  12.838 -0.0915  0.0314 -0.2597
10411W        W29265  14.630  14.455   1.504  0.0686  0.3467 -0.0720
10412W        W29266  18.324   9.464  11.845  0.2284 -0.1286 -0.0666
10413W        W29267  12.579  18.411   4.703  0.2206  0.0577 -0.1209
10414W        W29268  12.536  14.611  13.070  0.4733 -0.0891 -0.1288
10415W        W29269  11.315   8.379   2.851  0.1186 -0.2219 -0.1002
10416W        W29270   9.306   9.931   1.760  0.3248 -0.0516  0.1295
10417W        W29271   1.921   6.718   1.710 -0.2229 -0.2668  0.2168
10418W        W29272  15.012  12.215  11.213 -0.3338  0.2162  0.0634
10419W        W29273   8.178   2.125  12.999 -0.1292  0.1427 -0.1368
10420W        W29274  10.021  16.667   0.375 -0.1149 -0.1387  0.3124
10421W        W29275  15.664  14.667   2.589  0.2996  0.1623 -0.1356
10422W        W29276   4.205  18.569   0.518 -0.1168  0.1546  0.0884
10423W        W29277  12.767   6.508  12.995  0.0400 -0.4820  0.1541
10424W        W29278   8.756   9.290   0.456 -0.2941  0.0158 -0.0637
10425W        W29279   8.107   0.091  11.833  0.0919  0.0008  0.0218
10426W        W29280   3.983   3.121  13.328  0.2237 -0.0022 -0.3049
10427W        W29281   6.028   1.869  13.337  0.0405 -0.1281  0.1426
10428W        W29282   5.386  11.717   3.706  0.0119  0.0633  0.1828
10429W        W29283   7.547  14.927  12.032  0.1896  0.1163  0.0123
10430W        W29284  12.007   7.635  12.587  0.2456 -0.1302  0.1673
10431W        W29285   1.473  14.158  13.560  0.0135 -0.0571  0.2441
10432W        W29286  16.726  13.614  14.244 -0.0838  0.1299 -0.2778
10433W        W29287   3.927   3.088   1.839  0.0182 -0.0673  0.0607
10434W        W29288  16.491  16.442  15.117 -0.2964  0.1581  0.0147
10435W        W29289  18.437  17.244   2.928 -0.0118 -0.1711  0.1649
10436W        W29290   2.096   5.224   0.166 -0.0200 -0.0071  0.1373
10437W        W29291  11.383  12.499  14.113 -0.0736 -0.2418 -0.1275
10438W        W29292   7.608  16.888  13.003  0.0108  0.1961  0.0409
10439W        W29293   7.457  11.757   4.749 -0.2748  0.5556 -0.4596
10440W        W29294   3.424  13.437   4.271  0.0061  0.1629  0.0963
10441W        W29295  11.305  11.129   3.275  0.1450 -0.1407 -0.0979
10442W        W29296  13.404   0.330   2.595  0.1179 -0.0037 -0.0787
10443W        W29297  13.580  16.050  12.851  0.2123  0.2197  0.1872
10444W        W29298   9.850   7.562  14.868  0.3384  0.1512  0.0216
10445W        W29299   7.954   2.745  12.178 -0.1328  0.4565  0.0370
10446W        W29300  18.350   9.825   1.858  0.2577  0.0041  0.2198
10447W        W29301  12.440   8.320  12.363  0.1573  0.0986 -0.0377
10448W        W29302   8.701   8.204   1.413 -0.1626 -0.1660  0.2403
10449W        W29303  10.029   5.141  14.330  0.4200  0.0682 -0.2442
10450W        W29304  17.868   4.617   3.101 -0.0586  0.1120  0.2971
10451W        W29305   2.740   3.202  14.736 -0.1216 -0.0905 -0.0110
10452W        W29306   0.684   2.115   0.641 -0.2202  0.0164 -0.2791
10453W        W29307  10.951   4.728  13.258 -0.0018 -0.0157  0.0168
10454W        W29308   5.967  17.417   2.525 -0.1173  0.0107 -0.0897
10455W        W29309   1.721   2.253   3.168 -0.2776 -0.2109  0.1437
10456W        W29310  14.871  17.606   2.331 -0.1996 -0.3699  0.2006
10457W        W29311   9.763   2.307  10.924  0.1048 -0.0930 -0.1828
10458W        W29312   1.198  11.455   3.365  0.1297 -0.1170 -0.1708
10459W        W29313  10.536   4.032  14.251  0.1455 -0.0086  0.2060
10460W        W29314   3.635   3.029   0.746  0.0902  0.1513 -0.0840
10461W        W29315  17.119  13.302   0.633  0.0295 -0.1311  0.1184
10462W        W29316  10.331  12.860  15.348  0.0319  0.1048 -0.1508
10463W        W29317  14.050  16.722  10.574 -0.0103 -0.0099  0.0249
10464W        W29318   3.437   6.433  11.389  0.0414 -0.0521 -0.0646
10465W        W29319   2.420   2.406  11.031 -0.0461 -0.0578 -0.0903
10466W        W29320   1.637  11.054   1.798  0.0856  0.1194 -0.1333
10467W        W29321   9.662  14.322  15.285 -0.0518 -0.1394  0.0207
10468W        W29322   5.055   1.662  13.490 -0.0577 -0.1855 -0.0987
10469W        W29323   3.595  11.743  15.458  0.2116  0.2382 -0.1139
10470W        W29324   2.068   8.149  12.840  0.2138 -0.1456  0.1781
10471W        W29325   9.535   4.767  13.781 -0.1439  0.2210 -0.2453
10472W        W29326   7.075  10.651  14.263 -0.1026  0.2362  0.4381
10473W        W29327   9.039   7.656   5.451 -0.1867  0.0802  0.0342
10474W        W29328   0.676   6.858  11.399 -0.1585  0.1248 -0.1525
10475W        W29329   2.841   1.727   2.370  0.1100 -0.1562 -0.0470
10476W        W29330  14.032  10.104   1.906 -0.3344  0.0408 -0.1320
10477W        W29331   1.684  12.151  10.450 -0.6409  0.2120 -0.0069
10478W        W29332   8.045   1.571  13.050  0.6236  0.0084 -0.1905
10479W        W29333   9.791  10.835  11.754 -0.1852 -0.0566  0.1623
10480W        W29334  14.274   3.316   0.572 -0.2884  0.0963  0.1860
10481W        W29335  14.567   2.391   2.018  0.0019 -0.1572  0.0053
10482W        W29336   4.395  17.747  14.610 -0.2346 -0.1533  0.0499
10483W        W29337   7.636   9.589   3.500  0.4522  0.3952 -0.0593
10484W        W29338  15.355  14.464   0.923  0.1180  0.1984 -0.0136
10485W        W29339  10.860  15.431  10.980 -0.0520 -0.2243  0.0366
10486W        W29340   0.634   7.936  11.090  0.1899  0.0906 -0.1568
10487W        W29341  15.828  14.093  11.932  0.0977  0.0730 -0.1440
10488W        W29342  16.735   0.611   1.320 -0.1514 -0.0767 -0.1456
10489W        W29343  16.605   2.777   3.824 -0.2415  0.1056  0.2326
10490W        W29344  11.853  11.177   3.293 -0.3223 -0.2187 -0.1578
10491W        W29345   8.486  11.760  11.126  0.3003 -0.0870 -0.1056
10492W        W29346   9.187   9.462  12.784  0.3050 -0.1322  0.0598
10493W        W29347   1.395   1.588  14.715  0.1747 -0.2988  0.2213
10494W        W29348   0.214   9.290   1.199  0.2468 -0.1912  0.0755
10495W        W29349  13.592  13.752   1.913  0.0864 -0.1865 -0.0119
10496W        W29350  16.965   6.428   0.717  0.0032  0.4274  0.2456
10497W        W29351   7.473  13.288   1.835 -0.1231 -0.2171  0.0064
10498W        W29352  13.721   9.650  11.333 -0.2017  0.0355 -0.0375
10499W        W29353   0.983  11.909   9.408  0.1470 -0.0597 -0.0402
10500W        W29354   9.437  15.537   4.762 -0.0449  0.0424  0.1659
10501W        W29355   7.279   9.781   1.900  0.3501 -0.2910  0.0238
10502W        W29356   5.550   3.647   2.168  0.3231 -0.1708  0.0166
10503W        W29357  10.723  16.898  11.991  0.1168  0.0342 -0.0882
10504W        W29358   5.456  13.592  14.380 -0.1820 -0.0727  0.0756
10505W        W29359   6.601   6.107  11.263 -0.0564  0.2201 -0.0113
10506W        W29360   6.063  13.121   3.243 -0.3515 -0.1029  0.0586
10507W        W29361  15.706  13.604  10.990 -0.1756 -0.1987  0.5174
10508W        W29362  11.716  15.038   4.031 -0.0687  0.0190  0.0945
10509W        W29363   4.321  16.091   1.734  0.0336  0.0131 -0.0347
10510W        W29364  11.984   0.519   2.336 -0.4427 -0.0562  0.2240
10511W        W29365  10.802   6.366   2.333 -0.2395 -0.2238  0.0811
10512W        W29366   1.938  14.008  14.455  0.1034 -0.0844  0.0662
10513W        W29367   8.962   3.626  15.354 -0.1170 -0.0696  0.3292
10514W        W29368   1.179   9.257  13.225  0.0428 -0.0711  0.3980
10515W        W29369   9.690  14.982   4.165  0.1243 -0.3724 -0.0822
10516W        W29370   4.020  13.127  14.361  0.4049 -0.0817 -0.1791
10517W        W29371   3.890   2.481  11.581  0.0487 -0.0343 -0.2007
10518W        W29372   8.789  12.618   0.188  0.0155  0.2451  0.1896
10519W        W29373  13.247   2.869  15.461 -0.0068  0.0226 -0.0126
10520W        W29374   9.619   0.303   1.599 -0.0587  0.1422  0.0565
10521W        W29375   3.438  10.539   0.654 -0.2699 -0.0971  0.2947
10522W        W29376  12.277   2.187   2.221  0.1744  0.0781 -0.0628
10523W        W29377   0.845  17.762   2.092 -0.0471 -0.2338  0.0816
10524W        W29378   1.143  17.188   0.893 -0.0896  0.1223 -0.2081
10525W        W29379  12.603  16.266   2.683 -0.3006 -0.4574  0.0203
10526W        W29380  14.453  13.233  14.171  0.1095 -0.2314 -0.3118
10527W        W29381   1.587   1.553  12.418 -0.0509 -0.1157 -0.1470
10528W        W29382  18.285  11.389  15.440  0.2300 -0.0783  0.0675
10529W        W29383  16.544  17.692   1.972  0.1740 -0.1764 -0.1501
10530W        W29384  18.546  11.330  13.299  0.0400  0.0016  0.0693
10531W        W29385   5.932  10.425   3.658  0.1818 -0.2666 -0.0322
10532W        W29386  17.021   0.800   2.586  0.2028  0.1247  0.0119
10533W        W29387  15.716  10.431   0.709 -0.0220  0.1212  0.1871
10534W        W29388  10.327  15.561   4.582 -0.0025  0.1634  0.1689
10535W        W29389   5.588  13.533  15.193  0.1906  0.3238  0.1320
10536W        W29390   3.756   0.569  12.393  0.0846 -0.1980  0.1762
10537W        W29391  17.791  10.599  11.222 -0.1149 -0.0965  0.4640
10538W        W29392  10.806   9.783   2.638  0.2863  0.4032 -0.1504
10539W        W29393   9.649   1.892   3.264 -0.0376  0.0256 -0.0049
10540W        W29394  13.224  13.628   5.577 -0.1081  0.0625 -0.1546
10541W        W29395   2.213   3.933   0.028 -0.1949 -0.1231  0.0858
10542W        W29396   8.794  17.157   4.275 -0.0405 -0.2135 -0.1214
10543W        W29397   4.117   7.717  11.085 -0.0020 -0.2466 -0.1798
10544W        W29398   3.806  17.126  14.340 -0.0875 -0.1503  0.3091
10545W        W29399   9.348  15.746   2.152 -0.2629 -0.0860 -0.0895
10546W        W29400   0.126   6.436   4.236 -0.3860  0.1705 -0.1828
10547W        W29401   8.871   9.120  11.084 -0.1421  0.0551  0.1477
10548W        W29402  18.003  17.076  13.738 -0.0497  0.1342  0.1003
10549W        W29403   5.728   2.344   3.652  0.2512 -0.2869  0.0925
10550W        W29404  16.121   0.613  12.097 -0.1065 -0.0388  0.1710
10551W        W29405  11.498  12.917  11.997  0.0818 -0.2502 -0.1145
10552W        W29406   4.713   3.833  11.825 -0.3280 -0.2939  0.1151
10553W        W29407   3.682  13.317   0.086 -0.1561  0.1955 -0.0271
10554W        W29408   5.703   6.769  13.796  0.1728 -0.2627  0.0293
10555W        W29409   4.622   6.130   2.344 -0.0961  0.5114  0.2655
10556W        W29410  11.441   5.022  15.270  0.0664 -0.0329 -0.3087
10557W        W29411  17.137  16.480   0.597 -0.0390 -0.0677 -0.1201
10558W        W29412  14.864  11.683   4.495  0.3076 -0.0015  0.1459
10559W        W29413  17.181   1.996  14.576  0.3373  0.0909  0.0466
10560W        W29414   7.932   5.106   1.027 -0.1289 -0.1258  0.2041
10561W        W29415   7.567   3.037  11.998 -0.1182  0.0913  0.0354
10562W        W29416   3.511   5.327   0.779  0.2473 -0.0014 -0.0581
10563W        W29417   9.023  15.308  11.979  0.0735  0.1767 -0.2055
10564W        W29418  13.623  11.985  11.675  0.0032  0.0071  0.1313
10565W        W29419   5.277  18.364   2.075 -0.0596  0.1050 -0.1098
10566W        W29420   2.055   0.088   2.195 -0.0592 -0.0172  0.1007
10567W        W29421   8.264  17.267   2.329  0.0360 -0.2573 -0.2054
10568W        W29422  12.933   8.866   4.496 -0.0330 -0.0585 -0.1609
10569W        W29423   4.301   8.672  14.741 -0.1024  0.3657 -0.2585
10570W        W29424  13.391  16.975   2.880  0.1730  0.0173 -0.0346
10571W        W29425   3.397   6.253  15.331  0.2751  0.2682  0.1141
10572W        W29426  13.777  14.035   0.974  0.0210  0.1315 -0.4635
10573W        W29427   5.383  15.304   1.111  0.0339  0.1472  0.1667
10574W        W29428   9.684   2.786   4.226  0.0911  0.1293 -0.3026
10575W        W29429  16.538   6.758   2.548  0.0361 -0.1117  0.1658
10576W        W29430  12.786   0.326  11.732 -0.1754 -0.2389  0.0820
10577W        W29431   4.374   5.163  14.812 -0.0537 -0.0846  0.2366
10578W        W29432   5.149  16.152  12.357 -0.2190 -0.1975 -0.0369
10579W        W29433  18.524   8.537  11.704 -0.1192 -0.0006  0.0779
10580W        W29434  14.984   9.656   0.704  0.2031 -0.0344  0.1927
10581W        W29435   0.198  12.535  11.635 -0.3288 -0.2133  0.0125
10582W        W29436  15.362   5.942   2.467 -0.0768  0.1302  0.2451
10583W        W29437   0.938  16.116   1.918  0.0439  0.1002 -0.1217
10584W        W29438  11.389  16.167   3.213  0.0938 -0.0392 -0.0552
10585W        W29439  15.138   7.105  14.510 -0.3455  0.1165  0.3978
10586W        W29440  15.424   9.013  12.612 -0.0696  0.5242  0.1084
10587W        W29441   6.536  17.581  14.508 -0.1705  0.2594  0.2701
10588W        W29442   6.053   3.148   2.479 -0.2794  0.0371  0.2314
10589W        W29443  13.389   9.194  12.797 -0.0888 -0.4524  0.1108
10590W        W29444   9.099  11.955   0.845  0.0393 -0.2362  0.1017
10591W        W29445  14.657  10.745   3.575  0.3400  0.1224 -0.0419
10592W        W29446  13.852   8.030   2.934  0.2859  0.0327  0.0746
10593W        W29447  14.930   3.876   0.361  0.0712 -0.0449  0.1357
10594W        W29448   2.260   4.774   1.128 -0.2457  0.0203  0.4197
10595W        W29449   4.644  13.008  14.402 -0.1598 -0.2690 -0.2498
10596W        W29450  15.384   1.459   5.003 -0.1173 -0.0312 -0.2512
10597W        W29451   1.883  17.131   1.690  0.0155  0.2272 -0.1515
10598W        W29452  13.409   9.158  12.226  0.2404  0.2077  0.2686
10599W        W29453   8.086   5.126  12.776  0.1732 -0.2082  0.2881
10600W        W29454  18.236  17.705  14.430 -0.0095 -0.2565  0.2534
10601W        W29455   7.670  14.765   3.652  0.1596  0.2916 -0.3695
10602W        W29456   1.989  18.034  10.005  0.2745 -0.2843 -0.1118
10603W        W29457   5.561   4.291  11.912 -0.0305  0.3129  0.0297
10604W        W29458  15.438   7.857   1.231 -0.0073 -0.2196  0.0900
10605W        W29459   3.170  10.559  10.832  0.1748  0.2641  0.1132
10606W        W29460  12.156  12.106   4.397  0.3286 -0.2326  0.1389
10607W        W29461  14.620  13.177   2.268 -0.0811 -0.1429  0.0285
10608W        W29462   4.695   3.759   0.149 -0.0125 -0.2004 -0.0990
10609W        W29463  11.894  18.164   4.250  0.0410 -0.0052  0.2323
10610W        W29464   4.072   7.496   0.586 -0.1357 -0.1323 -0.0596
10611W        W29465  11.464   8.454  12.115 -0.2750  0.0765  0.2541
10612W        W29466   9.322   7.819  14.348 -0.1626  0.1791  0.0624
10613W        W29467   4.380  12.829  12.821 -0.2949 -0.2240 -0.0741
10614W        W29468   2.439  13.571  13.200 -0.0004  0.0428  0.3792
10615W        W29469  10.544  14.527  12.683  0.3224 -0.2915  0.0531
10616W        W29470   7.518  10.463  14.143  0.0871 -0.1332 -0.2166
10617W        W29471  16.577  15.179  12.040 -0.0036 -0.0781  0.1106
10618W        W29472  16.797   7.661   4.133  0.1108 -0.0661  0.2507
10619W        W29473  11.332   5.354   4.093  0.2249  0.0141 -0.1331
10620W        W29474  11.934  10.883  14.958  0.2394  0.2539 -0.1638
10621W        W29475  15.795  12.151  13.483  0.0965  0.0106 -0.1931
10622W        W29476  10.813   0.249   4.490  0.1326 -0.0630  0.0173
10623W        W29477  14.192   6.454  11.183 -0.2344  0.0362  0.0308
10624W        W29478  11.821  16.760   0.630  0.2057  0.3514 -0.3985
10625W        W29479   2.970  16.138  11.093 -0.0100 -0.0057  0.3309
10626W        W29480   3.537  15.719  12.905 -0.0230  0.2715  0.1017
10627W        W29481   2.688   6.856   2.072 -0.1939  0.0823  0.1546
10628W        W29482   4.495  18.199   0.992 -0.3060  0.2603 -0.2584
10629W        W29483  10.104   0.634  11.643 -0.0955 -0.1696 -0.1308
10630W        W29484  10.613  10.626  14.953 -0.2090  0.0676  0.3430
10631W        W29485  13.629  16.494  12.662 -0.2917 -0.2881 -0.1997
10632W        W29486   1.017   9.675   1.518 -0.0597 -0.1368 -0.2028
10633W        W29487  18.136  14.256   2.369  0.2513  0.0690 -0.0890
10634W        W29488   6.652  17.347  10.825 -0.0794 -0.4469 -0.2417
10635W        W29489   3.985  17.999   1.665  0.0136  0.1560  0.2589
10636W        W29490   3.095  14.730   3.507 -0.3545  0.1544 -0.1536
10637W        W29491   8.703   6.279  11.313 -0.1013  0.3858 -0.0732
10638W        W29492  12.026  14.766  11.771 -0.1938 -0.4321 -0.0489
10639W        W29493  16.111  16.423  11.046 -0.0121  0.0669 -0.1223
10640W        W29494  18.266   2.934   3.025 -0.0164 -0.0903  0.0750
10641W        W29495   9.188   2.691   2.159  0.2678  0.1873 -0.0069
10642W        W29496  14.673  16.093   4.145 -0.2223 -0.1982 -0.1280
10643W        W29497   5.950  16.553   3.716  0.1447 -0.1657 -0.0495
10644W        W29498   8.094   1.487   2.182 -0.4193  0.0090  0.0517
10645W        W29499   4.087  15.094   3.456  0.2000 -0.2251  0.1089
10646W        W29500   6.509  17.040  15.354  0.0865  0.1236 -0.1095
10647W        W29501   1.858   7.999  14.160  0.1242 -0.1554 -0.0081
10648W        W29502  15.758  11.589   1.167 -0.0494 -0.3565  0.0031
10649W        W29503   7.700  16.215  11.439  0.3394  0.0909  0.1760
10650W        W29504  15.689  15.453  12.764  0.2460 -0.3352 -0.1259
10651W        W29505   8.227   5.323  14.491 -0.0385  0.6517 -0.3036
10652W        W29506  18.103   0.686   3.817  0.4547  0.0162 -0.1734
10653W        W29507  10.762  17.361  12.195 -0.0124 -0.0009 -0.1486
10654W        W29508  11.693  12.386   2.963  0.1074  0.2774  0.2918
10655W        W29509  18.143   6.925  11.159 -0.2029 -0.0146  0.0758
10656W        W29510   9.061   3.109   0.818  0.0945 -0.1203  0.0587
10657W        W29511  15.102   4.048   2.237 -0.0536 -0.3021  0.1060
10658W        W29512   1.710   9.234   3.218  0.4290  0.0177  0.1740
10659W        W29513  17.866   8.111   3.378 -0.0461 -0.2298  0.1860
10660W        W29514  10.026   2.410   6.157  0.0283  0.1924  0.0913
10661W        W29515   1.143  17.666   2.884  0.1969 -0.1062 -0.0976
10662W        W29516   5.318   7.751   3.559 -0.0969  0.0907  0.1361
10663W        W29517   0.892   1.798   1.003  0.1502  0.2893  0.0943
10664W        W29518  13.294   3.402  14.655 -0.4011  0.3035  0.2609
10665W        W29519   3.726   3.927  11.519  0.0611  0.0566  0.0100
10666W        W29520  11.281  14.779   4.806  0.2198 -0.0414 -0.1296
10667W        W29521   3.264  17.175  13.489 -0.0757 -0.0963 -0.0178
10668W        W29522  15.060   4.726   2.909  0.3575 -0.0914  0.1167
10669W        W29523   3.212  14.116   2.348  0.0017 -0.0558 -0.0217
10670W        W29524  13.873   8.831   2.433 -0.4427 -0.0355 -0.4293
10671W        W29525   7.332   6.476   2.232 -0.0987  0.0228 -0.0235
10672W        W29526   3.719  15.513   4.081  0.1333 -0.0098  0.0035
10673W        W29527   3.370  15.115  11.864  0.4698  0.2951  0.1862
10674W        W29528  16.678  11.968  11.111 -0.2709 -0.1989  0.0381
10675W        W29529   2.970   0.518   1.509  0.2815  0.0104 -0.0938
10676W        W29530  17.357   4.102  14.580 -0.1062  0.1177  0.3159
10677W        W29531   9.411   2.928  12.539 -0.4107 -0.4136 -0.2033
10678W        W29532   6.153   8.429  12.109  0.1882 -0.2246 -0.0064
10679W        W29533   1.915  12.539   1.416 -0.0900  0.3194 -0.0052
10680W        W29534   2.952   8.831  14.662  0.2383 -0.1976 -0.2456
10681W        W29535   3.273   1.851  14.147 -0.2762 -0.0839 -0.3275
10682W        W29536   1.687   6.508   2.289  0.1638  0.3018 -0.2147
10683W        W29537   1.542  11.537   2.027  0.0164  0.0897 -0.0557
10684W        W29538  10.548   8.856   4.407  0.1607  0.3658 -0.0692
10685W        W29539   1.065   3.309  12.247  0.1402  0.0249 -0.0540
10686W        W29540   8.728   8.798  13.797 -0.1931 -0.0660 -0.0448
10687W        W29541   8.561  14.602  13.017  0.2814  0.0335  0.0913
10688W        W29542  14.280  17.952  11.899 -0.1676 -0.2346 -0.2588
10689W        W29543   3.240   5.900   0.784  0.3308  0.1411 -0.1504
10690W        W29544  13.815   5.291  12.018  0.1419 -0.1090 -0.0496
10691W        W29545   3.923  18.489   3.464 -0.1206 -0.0717 -0.0795
10692W        W29546  18.395   3.873  11.706 -0.0179  0.1039  0.0538
10693W        W29547  12.251  12.303  13.557  0.0831 -0.1541 -0.4727
10694W        W29548  10.945   7.069  14.036  0.0504 -0.0918  0.0089
10695W        W29549  14.770   9.570   1.856  0.1359  0.2994  0.0155
10696W        W29550   1.112  13.235   4.128 -0.1284  0.1455 -0.1475
10697W        W29551   3.194   4.596  14.526  0.0841  0.1148 -0.1432
10698W        W29552   0.739  10.120   1.365  0.1068 -0.2677 -0.1295
10699W        W29553   5.064  18.426   4.276  0.2229  0.2283 -0.3248
10700W        W29554  11.515  15.729  15.039  0.3110  0.0641  0.2570
10701W        W29555  10.879   1.067   3.580  0.1500  0.0099  0.0129
10702W        W29556  13.823   5.039   2.683  0.0604 -0.0019  0.0883
10703W        W29557  13.188   1.487  13.439 -0.1063  0.2810  0.2516
10704W        W29558   1.282   2.063   2.999  0.1144  0.2597 -0.2270
10705W        W29559  17.756  10.272   1.070 -0.2077 -0.2559  0.3372
10706W        W29560   1.911  18.128  12.462 -0.1344  0.0702  0.4226
10707W        W29561  13.192   1.223   0.147 -0.1910  0.2539 -0.0634
10708W        W29562  12.269  15.066   2.157 -0.0146 -0.1256  0.1820
10709W        W29563  16.545  18.278  12.379 -0.2597 -0.2490 -0.0707
10710W        W29564   6.075   0.857  15.366  0.0549 -0.0497 -0.2934
10711W        W29565   7.921   1.254  11.092 -0.2021  0.0553 -0.1868
10712W        W29566  15.571   8.302   3.181 -0.0755 -0.1128 -0.1220
10713W        W29567  14.475  15.335   4.493 -0.2449  0.1410 -0.1241
10714W        W29568   6.752   3.417  14.277 -0.2977 -0.3089 -0.0973
10715W        W29569   9.076  12.787   2.912 -0.0808  0.1622 -0.0561
10716W        W29570   4.231   5.986   1.953  0.0735  0.0667  0.0335
10717W        W29571   1.161   7.067  14.992 -0.2683 -0.0957 -0.0345
10718W        W29572  15.198   0.970  15.411  0.0779  0.1398 -0.2178
10719W        W29573  13.392   3.931  14.907 -0.1145 -0.0898 -0.0140
10720W        W29574  11.271   3.517  12.537 -0.1433 -0.1478  0.2838
10721W        W29575  10.767  17.496  11.210 -0.0197 -0.0269 -0.1514
10722W        W29576  12.638  16.454  15.387  0.2613  0.0598 -0.0349
10723W        W29577   3.502   8.606   0.531 -0.1272 -0.0473  0.1180
10724W        W29578   4.389   6.370   1.757 -0.1867 -0.0706  0.0730
10725W        W29579   9.880  15.776   4.764 -0.2232 -0.2655 -0.0256
10726W        W29580  16.392   7.107  13.900 -0.3086  0.1528 -0.1023
10727W        W29581  16.444   1.919   0.395 -0.0307  0.1350  0.1538
10728W        W29582  10.466  12.469   0.670  0.0629 -0.1211  0.2769
10729W        W29583  10.111   7.000   2.302 -0.0084  0.2041  0.0194
10730W        W29584   6.477   4.259   0.084  0.0510 -0.1273 -0.0243
10731W        W29585  12.236   5.577   0.034 -0.2455 -0.0287 -0.2666
10732W        W29586  11.631   9.938   3.142  0.0695 -0.0189  0.3186
10733W        W29587  14.199  16.180   0.840 -0.1122 -0.0352 -0.0865
10734W        W29588  13.068  12.619   1.334 -0.1771  0.2185  0.1071
10735W        W29589   4.789  14.943   5.125  0.1656 -0.0894 -0.0266
10736W        W29590   1.494  13.740  11.151 -0.2573 -0.1276 -0.1072
10737W        W29591   9.264   9.391   2.522  0.0668 -0.0841  0.2966
10738W        W29592   7.656   4.387  12.042  0.1683  0.2025 -0.1392
10739W        W29593   6.183  10.840  12.245  0.1546 -0.4213  0.0797
10740W        W29594  15.287  10.731  13.655 -0.0251  0.0344  0.1088
10741W        W29595   2.913  13.497   1.512  0.1507  0.0556 -0.1422
10742W        W29596   6.937   9.708   5.269 -0.1914 -0.0331  0.0397
10743W        W29597   4.024  18.037   3.651  0.1496 -0.1000  0.4103
10744W        W29598   8.611   7.951  13.703  0.0231 -0.0741  0.0326
10745W        W29599   5.451   1.266   3.268  0.0919 -0.3022 -0.2504
10746W        W29600  10.438  16.416   2.257 -0.3112 -0.0239  0.2023
10747W        W29601   0.631  17.899  14.279 -0.2029 -0.0148  0.0923
10748W        W29602   8.844   1.321  10.753  0.0682 -0.1437 -0.0291
10749W        W29603   5.463  17.029  15.068 -0.2428  0.1313 -0.0147
10750W        W29604   9.656  16.569  13.170 -0.1051  0.1340 -0.3620
10751W        W29605  17.071   2.452   3.295  0.1796  0.1271 -0.0251
10752W        W29606  14.999   5.901  10.822 -0.0965 -0.1432  0.2671
10753W        W29607   5.394   7.694  13.548  0.0452 -0.0795  0.1910
10754W        W29608   9.098  13.358   5.672  0.0548 -0.0563  0.1392
10755W        W29609  18.325  17.224   2.414  0.2056  0.0465  0.2223
10756W        W29610  17.269   2.694   1.708  0.1318 -0.0008 -0.0372
10757W        W29611   3.085  10.434   4.412 -0.0153 -0.2896  0.1652
10758W        W29612   9.892   3.095  11.519 -0.2742  0.0313 -0.2791
10759W        W29613   5.840   9.941  14.058  0.2696  0.0061  0.2163
10760W        W29614   1.482   8.984   0.163 -0.0875  0.1357 -0.4335
10761W        W29615  13.089  14.645  14.751 -0.0536  0.2216  0.2227
10762W        W29616  17.219   1.319   4.314  0.2311  0.4192  0.2769
10763W        W29617  10.038   5.735   4.389 -0.0129 -0.0315  0.0411
10764W        W29618  14.212  15.451   1.314  0.2913  0.1764 -0.1245
10765W        W29619   8.820  15.642   3.052 -0.0621  0.3603  0.0517
10766W        W29620   2.772  14.031   2.624 -0.1081 -0.0498  0.0759
10767W        W29621  11.295   1.527  13.267  0.2078 -0.1986 -0.0281
10768W        W29622   2.637  16.686   0.380  0.2630 -0.0592 -0.1115
10769W        W29623   3.114  13.448   3.843 -0.1107 -0.1544 -0.0681
10770W        W29624  16.363  12.692   3.333  0.1156  0.2804  0.1233
10771W        W29625  10.989   2.507   0.258  0.0075  0.2106 -0.0251
10772W        W29626   1.118   1.154  14.617  0.2410 -0.0292  0.1269
10773W        W29627  15.316  11.180   4.039  0.0667 -0.2915 -0.1399
10774W        W29628   8.194   7.855   2.208  0.0539 -0.1665  0.1156
10775W        W29629   1.528  15.804   3.398  0.4864  0.0318 -0.0357
10776W        W29630  16.977  14.228   4.611  0.0215 -0.1352 -0.2266
10777W        W29631  12.067  12.510   0.679  0.0600  0.2336  0.1612
10778W        W29632  15.085   1.092   4.829 -0.2716 -0.1319  0.0035
10779W        W29633   5.727  11.705   4.426  0.1729  0.5168  0.1115
10780W        W29634   5.563  16.993   0.661 -0.1106 -0.4228 -0.2144
10781W        W29635   2.214  14.385  12.790 -0.0370 -0.0075 -0.0362
10782W        W29636  17.021   6.801   0.024 -0.3825  0.0464  0.1250
10783W        W29637  14.511  11.603   3.624  0.0716 -0.2162  0.2555
10784W        W29638  12.231   1.553  12.947  0.0682 -0.0921 -0.1214
10785W        W29639   2.110   6.446  13.870  0.0074  0.2808 -0.2806
10786W        W29640  15.027   7.477   1.192 -0.1097  0.2400  0.1076
10787W        W29641  14.809   6.097  11.512 -0.1665 -0.0269  0.2019
10788W        W29642   9.634   9.731  12.956 -0.0095  0.0059 -0.0488
10789W        W29643  17.878   4.451   0.267 -0.2088 -0.4466 -0.2545
10790W        W29644   4.512   5.923   1.082 -0.0804  0.1174  0.1283
10791W        W29645  13.546  16.813   4.472 -0.1111  0.0838  0.0806
10792W        W29646   4.320   4.920  14.322 -0.0203  0.0857 -0.1319
10793W        W29647   5.625   0.150  14.870 -0.1075  0.0976  0.0613
10794W        W29648  18.282  13.520   4.638  0.1893  0.0201  0.0862
10795W        W29649   1.212   0.982   0.722  0.1110  0.0388  0.0282
10796W        W29650  11.295   9.060  13.042  0.0089  0.0550 -0.2710
10797W        W29651   4.194  17.092   3.302 -0.1715  0.1518  0.1314
10798W        W29652   9.509   9.652   2.130  0.2973  0.0950 -0.3689
10799W        W29653   6.014   7.927  14.234  0.0318  0.0868  0.1184
10800W        W29654  11.923   3.175   3.015 -0.1099 -0.5050 -0.1713
10801W        W29655  11.601   9.420   3.837  0.0551 -0.2281  0.0257
10802W        W29656  17.232   2.091  11.975 -0.2418 -0.0743 -0.2244
10803W        W29657  16.766  11.548  11.702 -0.3314  0.0938 -0.0370
10804W        W29658  15.691   9.974   3.437 -0.0509 -0.2253 -0.1430
10805W        W29659  18.274   0.787  11.451 -0.0121 -0.0903 -0.3053
10806W        W29660   7.975   7.746   1.210  0.0574  0.1355  0.1589
10807W        W29661   8.768  15.266  11.512 -0.1438 -0.0448  0.0789
10808W        W29662   2.406   2.672   0.047 -0.1790  0.0029  0.1115
10809W        W29663  14.522   6.581  14.959 -0.0130  0.3494  0.0811
10810W        W29664  17.629   8.880   0.289 -0.1100 -0.0956 -0.1938
10811W        W29665   0.809   1.797   1.979 -0.1785 -0.0084 -0.1427
10812W        W29666  10.755   4.208   3.701  0.2318 -0.2209 -0.0767
10813W        W29667  15.092   0.738   1.585 -0.3693 -0.3523 -0.0021
10814W        W29668   4.804  17.691  15.154 -0.1461  0.3242  0.1837
10815W        W29669   8.678   1.595  12.187 -0.2810  0.3727 -0.2639
10816W        W29670   1.410  10.091   0.671 -0.1649  0.1054 -0.3197
10817W        W29671   8.426   0.068  11.101 -0.0107 -0.3688  0.0854
10818W        W29672  10.237  10.743  14.197  0.1947 -0.0280 -0.2423
10819W        W29673  14.275  14.119   1.344  0.1752  0.2008 -0.1214
10820W        W29674   8.839   9.138  14.128 -0.3429 -0.0532  0.0240
10821W        W29675   2.813   5.765  13.430 -0.1735  0.1028 -0.1357
10822W        W29676  12.216  15.972  14.435  0.1275  0.0379 -0.0429
10823W        W29677   2.025   2.137   0.478 -0.0442 -0.3699  0.2348
10824W        W29678   3.077  14.214  12.219 -0.0406  0.0426  0.0372
10825W        W29679  10.369  11.687  13.397  0.0663 -0.2211  0.0654
10826W        W29680  13.366   0.151   4.045  0.1071 -0.2945  0.0843
10827W        W29681   6.132   5.498   0.471 -0.0208  0.1201  0.0880
10828W        W29682  17.531   3.662   3.433  0.2823 -0.0563  0.2689
10829W        W29683   1.314  17.129  11.155  0.0935  0.0158 -0.0230
10830W        W29684  16.390  13.343  15.446 -0.0706  0.0761 -0.2340
10831W        W29685   1.689   1.548  11.689  0.0048  0.0794 -0.0652
10832W        W29686   1.756  12.594  11.488  0.0735  0.0673  0.1998
10833W        W29687  14.647   0.481  13.580  0.0555 -0.1193  0.0855
10834W        W29688  13.637  17.147   2.485  0.2518 -0.3198 -0.0680
10835W        W29689  13.981  13.582  15.071  0.0985  0.0511  0.1865
10836W        W29690   7.537   8.622  11.140 -0.0066 -0.1223 -0.2686
10837W        W29691   3.345  13.376   2.243 -0.0153  0.0018  0.1184
10838W        W29692  15.162   0.626  10.837  0.0257 -0.0099  0.1942
10839W        W29693   1.145  14.069  14.871 -0.0770 -0.0139  0.0498
10840W        W29694  11.661  15.491  12.536  0.2031 -0.2492 -0.0685
10841W        W29695   1.081  10.529   3.532 -0.0849 -0.1170 -0.0968
10842W        W29696  11.126   0.216   1.810 -0.0794 -0.0270 -0.2381
10843W        W29697   9.912   5.482  12.202 -0.0433  0.2417  0.1065
10844W        W29698  12.332   2.769   2.969  0.0446 -0.0688  0.1977
10845W        W29699  13.678   6.996   1.714 -0.2553  0.0419 -0.0159
10846W        W29700   3.444  15.203  13.401 -0.2521  0.2123 -0.0856
10847W        W29701  17.336  10.370   3.301  0.1177 -0.1758  0.0595
10848W        W29702  14.816   6.719   2.965 -0.0481 -0.0988 -0.1310
10849W        W29703   5.395   6.732   0.006  0.1318 -0.0212 -0.0859
10850W        W29704  13.968  11.648  13.850  0.4305 -0.0879 -0.0610
10851W        W29705  10.277  16.123   4.780  0.0042  0.1349 -0.0715
10852W        W29706  15.743   5.225   4.282  0.0022  0.1493  0.1428
10853W        W29707  11.198  10.585   2.477 -0.1450  0.1741  0.3435
10854W        W29708   1.089   2.617  14.848  0.0876 -0.0109  0.0030
10855W        W29709  16.040  17.690   2.873  0.0508  0.0798 -0.4154
10856W        W29710   4.597  11.354   0.853  0.1461 -0.0091 -0.1002
10857W        W29711   2.783  14.479   0.872 -0.0823 -0.0834  0.1505
10858W        W29712  16.878   6.025  15.110 -0.1607  0.0210 -0.0727
10859W        W29713   2.645   5.007  11.353  0.0892  0.0798  0.0812
10860W        W29714  11.492   3.195  14.857 -0.2796 -0.1784  0.0395
10861W        W29715  10.855  14.745   2.566 -0.2511 -0.0211  0.2656
10862W        W29716   5.743  16.923  10.994  0.2249  0.0103 -0.0973
10863W        W29717  17.059  11.663   0.494 -0.1189 -0.0535 -0.0674
10864W        W29718  12.218   9.287   3.321  0.1085  0.1487 -0.1935
10865W        W29719  15.145   5.987   0.023  0.0110 -0.0355 -0.0109
10866W        W29720   1.416  11.639  12.154 -0.0455 -0.1824  0.0445
10867W        W29721   9.315  10.795   4.765 -0.0008 -0.3293 -0.3386
10868W        W29722   6.795   6.905  11.006  0.0771  0.1945  0.0505
10869W        W29723   6.908  10.563  14.686  0.3112 -0.0388 -0.0182
10870W        W29724  16.699   3.649   4.161 -0.0736 -0.0978  0.2031
10871W        W29725  16.490   1.308  15.319 -0.1135  0.1141 -0.1639
10872W        W29726  16.922  14.534  11.753  0.0691 -0.3199 -0.1943
10873W        W29727  12.199  11.336   3.732  0.1171  0.0803 -0.0818
10874W        W29728   6.908  14.148  14.288  0.5254  0.1402  0.0477
10875W        W29729  14.839  16.050  14.153  0.1752  0.1233 -0.0861
10876W        W29730  17.846   6.970   0.856 -0.2193  0.1387  0.3812
10877W        W29731  14.561   7.971   0.305  0.1114 -0.0550  0.3268
10878W        W29732   3.499  12.945  11.802  0.0311  0.0797 -0.1379
10879W        W29733  14.471  17.604  13.784  0.3775 -0.0544 -0.0452
10880W        W29734   6.584  16.893  14.872  0.0763 -0.1252 -0.1740
10881W        W29735   9.626   8.882  13.504 -0.0450  0.4053  0.0059
10882W        W29736  15.901   8.397  13.678  0.0514 -0.0065  0.1568
10883W        W29737   4.556   8.757   1.880  0.1225  0.1034 -0.1676
10884W        W29738   3.934  14.588   0.541 -0.0424  0.5194  0.2424
10885W        W29739  16.474   4.594   1.995  0.1707 -0.2316  0.1061
10886W        W29740  13.193   1.009   4.942 -0.2625  0.0338 -0.0347
10887W        W29741  14.353   6.048  10.953  0.2239 -0.2572  0.1654
10888W        W29742  18.396   7.840   2.791  0.1589  0.0435  0.3338
10889W        W29743   8.607  10.293  12.124  0.0021 -0.0311  0.0531
10890W        W29744   2.207  13.637   2.850 -0.3910 -0.1877 -0.0403
10891W        W29745  13.289  11.337   2.337  0.1226 -0.0650  0.0968
10892W        W29746  17.570   7.295  13.671  0.1124  0.0215  0.4126
10893W        W29747   7.363   7.077  13.026  0.0217 -0.1862 -0.0294
10894W        W29748  18.271  16.550   4.160 -0.1141  0.2045 -0.2142
10895W        W29749   0.575   2.287   1.089 -0.0927 -0.1023 -0.1304
10896W        W29750   1.925  10.532   0.228  0.0651 -0.1459  0.1538
10897W        W29751   0.898   0.180   1.518  0.1214  0.1078 -0.3043
10898W        W29752   9.275  12.555  13.632 -0.3971  0.0024  0.1688
10899W        W29753  14.940   7.406  13.310  0.2213  0.0815  0.0617
10900W        W29754   9.768   3.983   4.997 -0.2649 -0.3804 -0.0912
10901W        W29755   6.270   7.787   5.554  0.1063  0.2440 -0.1803
10902W        W29756   8.172  13.768   5.629 -0.2755 -0.2564  0.2231
10903W        W29757  14.185   9.110  14.961  0.0554 -0.1522 -0.2732
10904W        W29758   2.824  13.671  10.845  0.0107  0.0068 -0.0394
10905W        W29759  13.941   4.826  11.716  0.0488 -0.0562  0.5290
10906W        W29760   2.562  10.433   4.132 -0.1590  0.1986  0.0559
10907W        W29761   8.561   7.129   2.147 -0.0253 -0.0589 -0.0026
10908W        W29762   2.035  14.128  10.916  0.2277  0.1065  0.1723
10909W        W29763  17.269   9.618  13.265  0.0149 -0.1154  0.2237
10910W        W29764   5.947  11.383  15.222 -0.0943  0.0107  0.0310
10911W        W29765  17.201   7.316  13.276 -0.1225 -0.0915 -0.1224
10912W        W29766   0.536  15.501  11.496 -0.0661 -0.1719  0.1173
10913W        W29767  16.182   3.009   2.468 -0.1269 -0.0088  0.0860
10914W        W29768  10.678   8.537   3.890 -0.1077  0.1133 -0.0404
10915W        W29769  17.054   6.026   3.967  0.2318  0.0114 -0.3328
10916W        W29770   9.800   1.174   2.133 -0.2482 -0.3478  0.1790
10917W        W29771  13.985  13.858  13.809  0.1656 -0.0297 -0.0844
10918W        W29772  10.704  12.200  12.741  0.0289 -0.3296 -0.3689
10919W        W29773  12.149   6.904   3.195  0.1087 -0.1752 -0.0017
10920W        W29774   8.924   5.026  11.358  0.0734 -0.0428  0.1853
10921W        W29775   6.456  16.666   2.211  0.1241  0.0997  0.1062
10922W        W29776   9.006   7.967  15.107  0.0297 -0.0240  0.0721
10923W        W29777   3.032   5.048   4.274 -0.2610 -0.2065 -0.0461
10924W        W29778   1.335  17.158  14.778 -0.0876  0.5997 -0.0858
10925W        W29779  13.040   9.761   2.274 -0.3397  0.2774  0.1586
10926W        W29780   1.532  11.019   9.690 -0.3699  0.0590 -0.2605
10927W        W29781  10.312  16.102  11.347 -0.1680 -0.0120 -0.1556
10928W        W29782  16.263  15.727  14.298  0.2789 -0.0885 -0.1163
10929W        W29783   8.667  11.626   2.071  0.0736 -0.0471  0.0600
10930W        W29784  12.376   3.426   1.275 -0.2503 -0.1114  0.3824
10931W        W29785   3.047  12.904   0.652 -0.0373  0.0252  0.1473
10932W        W29786   0.777   5.524  12.508 -0.2856  0.0109  0.0412
10933W        W29787   2.144   4.275   2.895  0.0553 -0.0636 -0.0608
10934W        W29788  15.790  14.891   1.712  0.1474 -0.0383 -0.1636
10935W        W29789   5.627   4.392   1.560  0.1597  0.0669  0.1719
10936W        W29790   9.777  10.581  12.841  0.4241  0.1899 -0.1308
10937W        W29791   7.770  12.635  12.181  0.2777  0.0901  0.1532
10938W        W29792  17.653  17.330  13.533 -0.0702 -0.1144  0.2886
10939W        W29793   2.222  16.001   1.114 -0.0816 -0.1018  0.2695
10940W        W29794   4.346  17.113  11.764  0.0777 -0.1781 -0.0138
10941W        W29795   8.378   4.279  11.531 -0.1317  0.0575  0.1042
10942W        W29796  10.989  11.262  12.518 -0.0743 -0.1141  0.0067
10943W        W29797  17.404  10.871  12.222  0.2413  0.0415  0.0359
10944W        W29798   3.083   2.449  10.795  0.0647 -0.1636  0.0657
10945W        W29799  12.621  16.282  11.860  0.0837 -0.2642 -0.1073
10946W        W29800   0.025   5.346   2.416  0.0209  0.1095  0.0039
10947W        W29801   6.093   5.652  10.638  0.0871 -0.2498  0.1134
10948W        W29802   4.660  15.589  15.360 -0.1080  0.0016  0.0829
10949W        W29803  18.026   3.366  10.942 -0.3524  0.1288  0.0120
10950W        W29804   8.223  10.194  11.232 -0.3140  0.3010 -0.1264
10951W        W29805  16.398  16.625   0.476 -0.5907 -0.0058 -0.0120
10952W        W29806  11.295   7.455  10.969  0.0028 -0.1031 -0.3636
10953W        W29807   9.346   0.685  12.902  0.1551  0.0464 -0.0171
10954W        W29808   5.965   8.624  10.580  0.0410 -0.1910  0.5053
10955W        W29809  16.181   3.599   1.166  0.2123 -0.2203  0.2139
10956W        W29810  13.656   5.534   2.027 -0.3553 -0.0712 -0.1247
10957W        W29811  14.982   2.133   4.225  0.2807  0.0122 -0.0524
10958W        W29812  15.570  15.175  12.171 -0.3018 -0.2243  0.0387
10959W        W29813   4.973   3.178   1.831  0.0331  0.2934 -0.0103
10960W        W29814  11.978  17.239   0.369  0.1967  0.0859 -0.1693
10961W        W29815   4.391  14.011  14.361  0.1154 -0.0977  0.2488
10962W        W29816   3.470  18.066  11.379  0.3786 -0.0444  0.1399
10963W        W29817  11.824  12.871  10.372  0.1775  0.0113 -0.0831
10964W        W29818  12.846  17.175   3.002  0.1911  0.0305 -0.0738
10965W        W29819  15.827   6.578   3.982  0.1234 -0.3057 -0.0544
10966W        W29820   3.030   9.074   3.863  0.1689 -0.1600 -0.0689
10967W        W29821   2.868  14.731  15.200 -0.0175 -0.0016 -0.3737
10968W        W29822   9.896   8.258   3.347  0.1892  0.1264 -0.1079
10969W        W29823   6.491   9.180  13.741 -0.0984 -0.0364  0.1961
10970W        W29824   8.338  15.404  12.835 -0.0069  0.0180  0.3033
10971W        W29825   6.241   4.761  15.449 -0.1742  0.0417  0.1741
10972W        W29826  10.154   6.979   1.296  0.3983 -0.0458  0.0040
10973W        W29827  12.688   9.308  11.535  0.1591  0.0430 -0.0839
10974W        W29828   4.696   8.151   0.585  0.3843  0.0047 -0.1364
10975W        W29829   8.053   2.921   0.875 -0.3356  0.1311 -0.0181
10976W        W29830   8.601   4.043   4.474 -0.1053 -0.1681  0.1185
10977W        W29831  12.321  14.481   1.600 -0.2195  0.0155 -0.0652
10978W        W29832   2.455  15.453  13.595 -0.1618  0.1504 -0.0381
10979W        W29833   8.318   0.028   1.060  0.0269  0.0920 -0.2023
10980W        W29834   0.623  10.280   3.288 -0.2182  0.3227  0.1032
10981W        W29835   0.619   9.776   3.228 -0.0036  0.0575  0.0082
10982W        W29836  18.387   1.678  12.784 -0.1723 -0.1378 -0.0146
10983W        W29837  11.449  15.704  12.152  0.2750 -0.1654 -0.0778
10984W        W29838   2.464   2.005  12.435  0.0246 -0.2917  0.2812
10985W        W29839  15.900  14.716  14.591 -0.0480  0.2518  0.3046
10986W        W29840  10.877  13.709  15.049  0.0262  0.2833  0.0743
10987W        W29841   5.710  15.334   2.011 -0.1614  0.0643  0.2124
10988W        W29842   6.441   1.278  13.714  0.0887 -0.0265  0.0096
10989W        W29843   8.168  10.389  15.172  0.0423  0.0276  0.0272
10990W        W29844   9.570  10.559   3.623 -0.0270  0.0102 -0.0819
10991W        W29845   5.858  16.243  15.107 -0.0175  0.0088 -0.1301
10992W        W29846   5.033   1.980   0.720  0.1663  0.1316 -0.1838
10993W        W29847  13.426  18.361   4.547  0.1280 -0.0923 -0.6724
10994W        W29848   8.064   0.392   1.369  0.1138  0.2639  0.0185
10995W        W29849   2.803  10.989   1.062 -0.0332  0.0103  0.2500
10996W        W29850   7.593  15.018  14.241  0.2704  0.0010  0.0591
10997W        W29851  13.639   0.855   4.604 -0.2428 -0.0337  0.0240
10998W        W29852   6.732  10.955  13.837 -0.0731 -0.3458  0.1018
10999W        W29853  10.629  15.251  12.030 -0.0970  0.1343 -0.2598
11000W        W29854   0.441  13.822  10.474 -0.1022 -0.2823  0.1443
11001W        W29855  18.468   1.113  11.846  0.0055  0.1435  0.1279
11002W        W29856   8.096   7.105   1.777  0.1244  0.0190 -0.0171
11003W        W29857  16.783  13.636   2.985  0.2280  0.2363  0.2014
11004W        W29858   6.810   3.172   3.542 -0.3851  0.1812 -0.2257
11005W        W29859   2.221   0.542   3.091  0.0363 -0.0222 -0.1273
11006W        W29860   0.038  11.813   3.160  0.2049  0.3507 -0.0109
11007W        W29861  16.742  14.125  11.105  0.0742 -0.1044 -0.0231
11008W        W29862  11.269   0.702   1.733  0.2416  0.0057  0.0293
11009W        W29863  14.166   6.290   0.886  0.1782  0.0756 -0.1970
11010W        W29864  11.237   8.791   2.677  0.2723 -0.0740 -0.0063
11011W        W29865   4.117   2.654   1.614  0.0910 -0.1134 -0.3157
11012W        W29866   9.621   5.641  11.393  0.0922  0.0928 -0.0580
11013W        W29867   7.889   8.216  15.370  0.0924 -0.0628  0.1311
11014W        W29868   3.265  18.527  11.693  0.2305 -0.1774  0.0531
11015W        W29869   7.816  16.527  14.268  0.2500  0.0504 -0.0125
11016W        W29870   4.958   4.464   3.044 -0.0761 -0.0222 -0.2692
11017W        W29871  10.502  14.171  14.731  0.0099  0.0943 -0.2499
11018W        W29872  14.740   5.843   0.918  0.5018 -0.3096 -0.3565
11019W        W29873   5.824  11.231  12.197 -0.1343 -0.0730 -0.2638
11020W        W29874  16.280   4.964   1.729  0.0182 -0.0629 -0.0098
11021W        W29875  10.576   2.237  12.783  0.0864  0.0228  0.0011
11022W        W29876   6.320   0.595   2.519  0.1332 -0.1666 -0.0021
11023W        W29877  13.093   6.619  15.135 -0.2817 -0.0380  0.2801
11024W        W29878  12.136   7.893  14.502  0.2122 -0.2342 -0.2220
11025W        W29879  10.663   2.153  14.931 -0.1772  0.0997  0.1733
11026W        W29880   4.212   2.845  11.767 -0.0042  0.1641 -0.0467
11027W        W29881   0.882  17.256  12.641  0.0220 -0.0232 -0.0019
11028W        W29882  15.686   4.774  12.231  0.0305  0.1083 -0.0047
11029W        W29883   1.959   6.753   3.004  0.3018  0.2205 -0.0844
11030W        W29884   0.556   0.698   1.288  0.4111  0.0317 -0.2177
11031W        W29885   8.286  12.583  10.638  0.1662 -0.0784 -0.1225
11032W        W29886  17.579   5.086  10.778  0.1567 -0.0635  0.0793
11033W        W29887   0.931  17.742  12.475 -0.2217  0.0931  0.2148
11034W        W29888   1.291  13.640  15.057 -0.4786 -0.0152 -0.0873
11035W        W29889   5.166   4.232  12.571 -0.0665  0.0135  0.1696
11036W        W29890  15.308  17.057   2.907 -0.3182 -0.0934 -0.1504
11037W        W29891  14.074   6.284   3.888 -0.0309  0.0711  0.0050
11038W        W29892  10.875   3.913   1.749 -0.2297  0.4132  0.1013
11039W        W29893   5.132   6.692   4.489 -0.0018 -0.0191  0.0814
11040W        W29894   9.301   1.732   0.933  0.2372 -0.3147  0.2599
11041W        W29895  14.884   2.279  11.112 -0.2014  0.0325 -0.0165
11042W        W29896  11.388  15.518   3.896  0.0009  0.0719 -0.1293
11043W        W29897  13.964   6.591   0.322 -0.1381  0.0121 -0.3614
11044W        W29898   8.677  15.081  13.066 -0.1580 -0.0844 -0.0033
11045W        W29899   3.159   0.327   3.820  0.0549 -0.0050  0.0317
11046W        W29900  17.456  18.026  14.260  0.2019 -0.0642  0.1871
11047W        W29901   7.079   8.035  15.084  0.2791 -0.2722  0.0304
11048W        W29902   8.767  18.241   1.881  0.0316 -0.1975  0.0776
11049W        W29903   8.841  16.206  14.384 -0.2078  0.2463  0.0495
11050W        W29904   3.398  14.056   2.848  0.0655 -0.2045 -0.0426
11051W        W29905   7.493  15.305  14.699  0.0111 -0.0313  0.0218
11052W        W29906  12.935  11.518  14.751 -0.0644 -0.1600 -0.1192
11053W        W29907  18.557  13.389  11.362 -0.0223  0.3050  0.3966
11054W        W29908   9.755   5.389   0.600 -0.0388  0.0664 -0.1698
11055W        W29909  12.758  13.785   5.285  0.0338 -0.0932 -0.1495
11056W        W29910   7.116   8.238   0.085 -0.1743  0.2425  0.0088
11057W        W29911  14.134   4.247   1.788 -0.2299  0.3718 -0.2822
11058W        W29912  16.666   6.548  12.880 -0.3110 -0.2615 -0.3397
11059W        W29913   3.268   2.222  11.187  0.2125 -0.2632  0.1444
11060W        W29914   1.753  15.128  11.000 -0.3345  0.0381 -0.1684
11061W        W29915   1.278   5.736  13.504  0.1403 -0.1383 -0.0039
11062W        W29916  17.969   6.062   3.088 -0.1498 -0.1625  0.0447
11063W        W29917   5.930   1.601  13.757  0.1054 -0.0827 -0.3712
11064W        W29918  16.063   7.464  12.743 -0.2347  0.2912  0.0286
11065W        W29919   5.612   3.718  10.809  0.3453 -0.2179  0.0735
11066W        W29920   7.096   9.114   3.106 -0.2240  0.1000 -0.0249
11067W        W29921   9.282  10.516  14.537 -0.0871  0.2673  0.1946
11068W        W29922   4.105   7.482  13.926  0.1062 -0.1958  0.3352
11069W        W29923  11.482   5.744  13.696  0.0566 -0.0306  0.0556
11070W        W29924   1.302   9.190   1.604  0.0646 -0.3000 -0.1084
11071W        W29925   6.068   4.518   1.356  0.0180  0.1510  0.0494
11072W        W29926  17.721   3.012   3.086 -0.2005  0.2615 -0.4775
11073W        W29927  18.283   2.375   0.984 -0.1694  0.0802 -0.2388
11074W        W29928   9.238  17.867   1.187 -0.0619 -0.0883 -0.0497
11075W        W29929   2.228  11.798  14.397 -0.2220  0.2369  0.3259
11076W        W29930  12.000   0.158  11.704  0.2363  0.0049 -0.0329
11077W        W29931   3.105  10.128  11.422  0.1113  0.0551 -0.1767
11078W        W29932   7.885   8.821  11.674  0.0299 -0.0819  0.1771
11079W        W29933  15.415   3.945   3.082  0.2550  0.2017 -0.0631
11080W        W29934   5.200   6.330  13.130 -0.0748  0.0121  0.0252
11081W        W29935  13.427   6.418   3.865  0.0425 -0.2763 -0.0499
11082W        W29936   9.559  10.175  13.078  0.1352  0.3537 -0.0550
11083W        W29937  11.014  15.913   0.370  0.2741  0.1580 -0.0904
11084W        W29938   2.595   0.111  11.849 -0.0474 -0.0894  0.0523
11085W        W29939  16.946  10.178   2.031 -0.0763 -0.0587 -0.1601
11086W        W29940  10.654  15.338  12.935 -0.0064 -0.1117  0.2227
11087W        W29941   5.229  15.395   3.742  0.0676 -0.1297  0.2240
11088W        W29942   6.559   3.194  14.714  0.1196  0.0159  0.2092
11089W        W29943  12.761  17.833   0.386  0.1049  0.3037 -0.2272
11090W        W29944   1.437   6.648  11.864 -0.0994 -0.1611 -0.1843
11091W        W29945  14.975   6.740   4.660  0.1035  0.1807  0.0200
11092W        W29946  12.743  12.837  12.675  0.0903 -0.0616 -0.2957
11093W        W29947  10.270   6.936   3.991  0.0329 -0.0086 -0.0241
11094W        W29948   0.207  15.317  13.511  0.0238 -0.2379 -0.1293
11095W        W29949  11.964  10.819  11.238 -0.1562  0.0886  0.0920
11096W        W29950   7.852   2.805  15.027 -0.0904 -0.4015 -0.1594
11097W        W29951   6.848  17.005  11.995 -0.0923  0.1769  0.2632
11098W        W29952   4.823   8.158   1.739 -0.0136  0.0112 -0.0223
11099W        W29953   4.168   0.137   1.044  0.1459 -0.2966 -0.1874
11100W        W29954   1.405   5.007  11.337 -0.0989 -0.3697  0.2269
11101W        W29955   3.721   9.654   0.484  0.3081 -0.2773  0.5288
11102W        W29956   2.793  14.474  11.853 -0.2410  0.0559  0.0416
11103W        W29957  16.634  14.346   0.256 -0.1122  0.0261  0.0602
11104W        W29958   5.193  12.669  14.878  0.1374  0.0273  0.1215
11105W        W29959   6.594   8.187   0.825 -0.0849  0.3585  0.2982
11106W        W29960   5.000   7.665   0.575  0.2878 -0.2035  0.2045
11107W        W29961  15.409  10.611  10.004  0.1704  0.2519 -0.2117
11108W        W29962   6.298   1.617  14.961 -0.1734  0.0532  0.0285
11109W        W29963  10.890   2.970  13.358  0.0876 -0.1144  0.2382
11110W        W29964  12.140   7.007  15.456 -0.1911 -0.0445  0.0739
11111W        W29965   6.496   5.094  14.231 -0.1820  0.0515  0.1741
11112W        W29966   8.365  10.781  11.126 -0.3244 -0.0692 -0.1803
11113W        W29967   5.784   3.833  15.249 -0.1157 -0.1589 -0.0487
11114W        W29968   4.703  11.319  15.018  0.3233 -0.0039  0.0972
11115W        W29969  18.284  15.419   0.018  0.0755 -0.1217 -0.0891
11116W        W29970   9.496  11.839  14.973 -0.1291  0.0407  0.0078
11117W        W29971   3.652  16.372  13.814  0.0760  0.2195  0.1831
11118W        W29972  14.668  16.385  14.490  0.0290 -0.2235 -0.2335
11119W        W29973   7.629  18.018  13.871 -0.0743 -0.1148  0.1057
11120W        W29974   8.867   5.051  15.418  0.2091  0.1620 -0.2342
11121W        W29975  16.832   2.853  11.093  0.1735 -0.1743  0.1404
11122W        W29976   4.508   7.455  13.557 -0.1653  0.2854  0.1094
11123W        W29977   4.254  16.596   1.650  0.1389  0.1989 -0.0351
11124W        W29978  13.176  12.002   2.114  0.0437  0.2775  0.1392
11125W        W29979   9.380  13.020  13.295  0.0865 -0.2126  0.2420
11126W        W29980   6.750   1.352   2.490 -0.0897 -0.0787 -0.0617
11127W        W29981  12.132  14.896  13.166  0.0758 -0.0625 -0.0188
11128W        W29982   4.053  14.885   3.962  0.0147 -0.1234 -0.0034
11129W        W29983   6.544   4.499  12.004  0.1769 -0.0179 -0.1558
11130W        W29984   5.693  16.484  10.685 -0.2388 -0.3373  0.0703
11131W        W29985   4.664   8.376  12.248 -0.4043 -0.0250 -0.4271
11132W        W29986  17.722  17.090  12.991  0.1197  0.2115 -0.2392
11133W        W29987  12.346   3.101  11.997 -0.2287 -0.1089 -0.0322
11134W        W29988   8.870  12.844  13.584  0.2134 -0.1310  0.0272
11135W        W29989   6.061   3.208  11.985 -0.2341  0.2817 -0.0535
11136W        W29990  10.374  11.086   0.491 -0.1773  0.0672 -0.0012
11137W        W29991   8.537  18.137   1.069 -0.1854  0.1380  0.1081
11138W        W29992   6.008   9.214   1.916 -0.3893  0.2672  0.2526
11139W        W29993   7.178  15.995   2.980 -0.0122 -0.0278 -0.3456
11140W        W29994  10.256   5.933  13.051  0.0833 -0.1521  0.4157
11141W        W29995  13.156   7.806   4.333 -0.2684 -0.3694  0.1970
11142W        W29996   0.202  10.069   3.242  0.1794 -0.3981 -0.0078
11143W        W29997   4.337  14.190   1.968  0.1799  0.0268  0.1253
11144W        W29998   5.563   7.751  10.178  0.1891  0.1703 -0.2490
11145W        W29999  13.279  10.516  14.738  0.0143  0.1206  0.2397
11146W        W30000   0.859  11.228  11.280  0.3306 -0.2203 -0.0168
11147W        W30001  10.662   6.118  14.426 -0.1439  0.0548 -0.0923
11148W        W30002   0.298  10.548   3.592  0.1987  0.3622  0.0875
11149W        W30003   0.930   8.095  13.942  0.0079 -0.1675  0.0420
11150W        W30004  10.879   6.533   1.345 -0.0923 -0.1095  0.1351
11151W        W30005  17.654   0.664  11.610 -0.2617  0.2913 -0.0015
11152W        W30006   8.708   2.244   2.071  0.0563 -0.0959 -0.1871
11153W        W30007  12.212   7.853   2.605  0.3260 -0.0071  0.1234
11154W        W30008  11.488  10.821   3.813  0.1295  0.0376  0.0160
11155W        W30009   7.941   9.467   4.009  0.0773  0.1294 -0.0200
11156W        W30010   3.574   0.672   2.656 -0.1894  0.2020  0.0908
11157W        W30011  13.655   7.000   0.429  0.1437 -0.1686  0.0734
11158W        W30012  18.230  15.704  11.610  0.3097 -0.2119 -0.2765
11159W        W30013   0.438   0.811   4.129  0.2840  0.1157  0.1702
11160W        W30014  10.046   1.382  15.177  0.3428  0.2522 -0.2081
11161W        W30015   0.403  17.492   0.249 -0.1388 -0.0390  0.0286
11162W        W30016   1.602   7.279  14.768  0.0933 -0.4050 -0.2723
11163W        W30017   0.496  10.013  11.703  0.1391  0.3105 -0.3184
11164W        W30018  17.096  13.649  10.350  0.4422 -0.1915  0.2492
11165W        W30019  15.421   6.567   4.320 -0.3517 -0.0183  0.0821
11166W        W30020  10.900   8.862   4.804  0.1536 -0.1276  0.0990
11167W        W30021  18.231   4.235   3.111  0.0208  0.3082 -0.1732
11168W        W30022   6.226   8.256   1.844 -0.0690  0.1340  0.0824
11169W        W30023   2.977  12.594   1.033 -0.0665 -0.1498 -0.0735
11170W        W30024   1.878  13.605  15.097  0.2578  0.0140 -0.4166
11171W        W30025  12.144  14.063   3.677 -0.2431 -0.0992 -0.1467
11172W        W30026  14.124  12.056   4.457 -0.1278  0.4535  0.2641
11173W        W30027  14.132   0.888  12.664 -0.1917 -0.3723 -0.3016
11174W        W30028  12.299  17.260   3.258  0.1358 -0.1230 -0.0367
11175W        W30029   8.769  14.265   1.017  0.3275  0.3521 -0.0258
11176W        W30030  16.036   0.179   1.561  0.0158  0.1514 -0.1805
11177W        W30031  11.248  12.155   4.126  0.3230  0.0314 -0.2752
11178W        W30032  16.323   0.260  12.415 -0.0524  0.1361  0.1473
11179W        W30033   5.848   7.646   3.904 -0.0955  0.0413  0.1134
11180W        W30034   0.083   4.702  12.041  0.3914  0.0024  0.3622
11181W        W30035  12.627  10.181   3.493 -0.2044 -0.0499  0.0336
11182W        W30036   8.754  14.286  15.052  0.2075 -0.1087 -0.0092
11183W        W30037   6.833   3.132   1.750 -0.0438  0.1619 -0.1345
11184W        W30038   1.914  13.577   1.178  0.1054 -0.0670  0.0480
11185W        W30039   6.641  18.149   3.408 -0.1907  0.1053 -0.1484
11186W        W30040   5.593  17.536   4.679 -0.4422 -0.0033  0.1747
11187W        W30041  13.587   5.889   2.307  0.2200  0.1809 -0.4511
11188W        W30042  10.773  13.985   5.214  0.0315  0.0528  0.0815
11189W        W30043   8.043  12.879  13.420  0.1809 -0.3248 -0.2191
11190W        W30044   2.069  13.274   0.181  0.2110  0.0569 -0.0140
11191W        W30045   4.583   9.013  10.869 -0.3437  0.0260  0.2574
11192W        W30046  11.957   0.822  13.324  0.2030 -0.0882  0.1937
11193W        W30047  17.064  12.585  14.878 -0.3215  0.3989 -0.3539
11194W        W30048   2.903   8.349   3.138  0.0409  0.2414 -0.1164
11195W        W30049   0.227   2.351   3.992 -0.2196  0.0415 -0.0359
11196W        W30050   5.423  15.480   4.221 -0.4237  0.0850 -0.2675
11197W        W30051  16.672   5.065  12.727 -0.0500  0.0944 -0.0368
11198W        W30052  17.901   2.790   3.598  0.2147 -0.2529  0.3147
11199W        W30053  12.629  17.748  13.141 -0.3081 -0.2889 -0.2023
11200W        W30054   7.925  12.264   0.586  0.3292 -0.1106  0.1234
11201W        W30055   5.303   5.061  12.498  0.0866  0.1406  0.4326
11202W        W30056  10.252   3.506  12.265  0.2126  0.1215 -0.2292
11203W        W30057   5.619   2.570   3.196 -0.0078 -0.1421  0.0586
11204W        W30058   9.603   9.377  11.735  0.2165  0.1318 -0.1480
11205W        W30059  15.726  10.373  14.389  0.0412  0.1368 -0.0793
11206W        W30060  12.168   2.455  11.333 -0.0730 -0.0359 -0.1624
11207W        W30061   0.846   9.417  13.708  0.1322 -0.3343  0.2425
11208W        W30062  14.671   3.421   1.805 -0.0310 -0.0182 -0.0192
11209W        W30063  16.959   2.187  10.399 -0.2854 -0.0473 -0.1291
11210W        W30064   2.989   6.987  11.851 -0.0474 -0.1244  0.1337
11211W        W30065   3.060   3.249   2.828  0.0184  0.2524  0.0866
11212W        W30066   2.330  10.102  14.587  0.3117 -0.0502  0.2350
11213W        W30067   3.815   8.030  11.646  0.2396 -0.2893  0.4512
11214W        W30068  11.127  18.184   2.678 -0.0738 -0.0734  0.0430
11215W        W30069   4.744   8.004  11.896 -0.0665  0.1015 -0.0765
11216W        W30070   5.359  14.062  13.596  0.1684 -0.1663 -0.2384
11217W        W30071  12.400  10.569  14.855  0.4181  0.0252 -0.4978
11218W        W30072   6.674   9.419  12.154 -0.1396 -0.1443  0.1334
11219W        W30073  13.740   3.877  14.481  0.1878  0.0733 -0.0051
11220W        W30074  10.044  12.163  12.915 -0.1064  0.0053  0.3119
11221W        W30075  17.569   2.143  13.258 -0.1964  0.1361 -0.1261
11222W        W30076   5.078   3.996   2.330 -0.1588  0.2196 -0.0675
11223W        W30077   9.307  15.917   3.075 -0.1711 -0.3495  0.3779
11224W        W30078   4.022  17.420  13.859  0.1587 -0.0027  0.1743
11225W        W30079  12.774  10.200   1.251 -0.2049  0.0677 -0.3223
11226W        W30080  12.926   4.975   1.019  0.1486  0.1209  0.0902
11227W        W30081   0.687   6.410   0.708  0.1166  0.1009  0.2714
11228W        W30082  14.757  16.821   1.154  0.1680  0.1348  0.0307
11229W        W30083  18.109  10.544  13.776 -0.4613  0.0306 -0.1595
11230W        W30084  13.094   5.493   0.617  0.0400  0.0373 -0.0605
11231W        W30085   3.592   9.523   4.411 -0.1677 -0.0093 -0.1836
11232W        W30086  10.300  16.684  12.090  0.0872  0.1508 -0.1257
11233W        W30087   3.554  17.749   2.650  0.0650  0.0926  0.1887
11234W        W30088  17.972   1.690   3.827  0.2393  0.0173 -0.2211
11235W        W30089  12.426   2.405  13.177  0.0369  0.1242  0.0540
11236W        W30090  12.397  10.932   3.947 -0.0392  0.0441 -0.1217
11237W        W30091  17.773  16.789   4.071 -0.0484 -0.1656 -0.2972
11238W        W30092   0.561  13.075  10.797  0.0175 -0.2920 -0.2121
11239W        W30093  16.859  11.883  12.077 -0.1343 -0.0714 -0.0498
11240W        W30094   8.678  11.686   2.749  0.0016 -0.1876  0.2671
11241W        W30095  14.457   2.575  15.311 -0.1215 -0.0425  0.1180
11242W        W30096  10.555   6.783  14.989  0.1773  0.0110  0.1201
11243W        W30097   7.493  10.862   4.449  0.0010 -0.2596 -0.1039
11244W        W30098   2.564  11.877  15.376 -0.1047 -0.0544  0.0300
11245W        W30099  13.490  13.546   3.788 -0.3268  0.1140 -0.0110
11246W        W30100   3.103   1.370   1.098  0.3205  0.0818  0.0260
11247W        W30101  10.304  15.037  12.726 -0.0464 -0.1606 -0.2470
11248W        W30102   3.409  12.710   1.839  0.2211  0.0140 -0.1189
11249W        W30103  11.535   6.817   3.865 -0.0706  0.0994  0.0634
11250W        W30104   8.262   1.541   3.112  0.0691 -0.1424 -0.0932
11251W        W30105  11.037  10.595   0.080 -0.3272  0.1716  0.1372
11252W        W30106   0.969  11.583  10.974 -0.0853  0.0238 -0.0466
11253W        W30107  16.903  13.215  15.168  0.0296  0.0773  0.1022
11254W        W30108  12.647   2.173  15.047 -0.1573  0.2350  0.1206
11255W        W30109   8.202   4.652   4.023  0.1011  0.0462 -0.0760
11256W        W30110  14.132   8.658  12.817 -0.1663  0.1292  0.0635
11257W        W30111   9.031   6.703  11.300  0.1310  0.0346  0.2534
11258W        W30112  10.897   4.258   0.218 -0.0666 -0.0119  0.0635
11259W        W30113   1.169  17.722   4.774 -0.0684 -0.0185 -0.2112
11260W        W30114  15.821  15.916   0.859  0.2610  0.0022  0.1556
11261W        W30115  16.350  13.015  13.094 -0.0964 -0.1701  0.2898
11262W        W30116  13.520   1.272   1.121 -0.0339  0.1701 -0.0637
11263W        W30117  10.772   0.189   0.185 -0.0374  0.0411  0.0550
11264W        W30118   4.541  11.015  15.377  0.2039 -0.0296  0.0207
11265W        W30119  10.751   5.060  12.187  0.1108  0.3888  0.0171
11266W        W30120  10.755  14.875  12.979 -0.0715  0.1598 -0.1946
11267W        W30121   8.788  17.968  15.304 -0.2584  0.3181  0.0416
11268W        W30122   5.634   7.562  11.268 -0.0858  0.0009 -0.3441
11269W        W30123   5.067  18.407   0.379  0.0263 -0.1979  0.0995
11270W        W30124   1.544   5.385   1.428 -0.0390 -0.0262 -0.0609
11271W        W30125   3.909   4.629  11.030  0.0231 -0.0090 -0.1125
11272W        W30126   3.354  11.214  10.296 -0.1011 -0.0524  0.3009
11273W        W30127  10.204   3.728   1.237 -0.3210 -0.3384 -0.0048
11274W        W30128  16.028  17.731  13.381  0.1361  0.1096  0.0625
11275W        W30129  10.389  14.370  11.084 -0.0901 -0.1123 -0.1337
11276W        W30130   7.794  12.688   5.744  0.0461  0.0629 -0.0668
11277W        W30131   5.851  13.099  14.154 -0.2491 -0.2806  0.3500
11278W        W30132  10.376   9.297  12.720  0.0277  0.0698 -0.1212
11279W        W30133  12.198   6.409   1.347  0.2577  0.1038  0.0439
11280W        W30134  14.252  17.169  13.486 -0.2127  0.3190 -0.0127
11281W        W30135  16.002   6.287  14.951 -0.0866 -0.0368 -0.0616
11282W        W30136   2.367   8.035  15.450 -0.0687 -0.0557  0.2632
11283W        W30137  11.868  11.324   1.594  0.0924 -0.1035 -0.0882
11284W        W30138  17.215   9.154  13.462 -0.0349  0.0026 -0.1833
11285W        W30139   5.233  18.130  11.345 -0.0992  0.0066  0.1365
11286W        W30140   0.226  16.262   0.314 -0.1682 -0.0444 -0.0417
11287W        W30141   6.521  10.284  12.115  0.2229 -0.1993 -0.2385
11288W        W30142   5.612  10.154   4.185 -0.1466 -0.0617 -0.2752
11289W        W30143  15.934   4.518  15.197 -0.1578  0.0714 -0.0044
11290W        W30144   0.784   7.679   4.322 -0.1894 -0.2378  0.2976
11291W        W30145  16.757  15.407   2.244  0.0962  0.0945 -0.0511
11292W        W30146   5.702   1.885  11.430  0.0728 -0.2093  0.1051
11293W        W30147   6.735  13.779   1.233 -0.1886 -0.1461 -0.3514
11294W        W30148   7.747   7.380  15.230 -0.4098 -0.0599  0.1442
11295W        W30149   3.116   6.523  12.242 -0.2491  0.1868 -0.1485
11296W        W30150   1.329   4.168   4.328 -0.0183 -0.0823  0.3380
11297W        W30151   6.627  11.481   2.377 -0.2393 -0.1568  0.2449
11298W        W30152   8.789  14.337   0.167 -0.1988  0.1385 -0.3296
11299W        W30153   8.766  16.660  14.666  0.0392 -0.0231 -0.1606
11300W        W30154  16.029  12.777  13.546 -0.0399  0.2649  0.0403
11301W        W30155   5.505   4.196  15.371  0.2165 -0.2244 -0.3072
11302W        W30156  13.681   0.326   1.657  0.3608  0.1276  0.1829
11303W        W30157   0.401  16.757  12.064 -0.0360 -0.1896  0.2785
11304W        W30158   0.579   9.648   4.496  0.3073 -0.2569 -0.0785
11305W        W30159  13.422   2.372   5.938  0.0677 -0.1976 -0.1097
11306W        W30160  10.926   3.246  11.577 -0.1170 -0.0251  0.1177
11307W        W30161   2.266  11.978   4.205  0.0213 -0.0126  0.1683
11308W        W30162   5.684  12.458   1.313 -0.1856  0.0036  0.2116
11309W        W30163  13.651  12.030   4.241 -0.0069  0.0784  0.0326
11310W        W30164  13.603   9.779   1.257 -0.4596  0.0887 -0.0886
11311W        W30165   3.779   0.549  12.961  0.1089  0.0917 -0.0760
11312W        W30166  13.579   2.778   4.464 -0.1194 -0.2747  0.1227
11313W        W30167  16.722  13.683  15.088 -0.0114  0.0883  0.0338
11314W        W30168   4.084   0.078   2.492 -0.0626  0.2092 -0.0797
11315W        W30169   2.639  17.103  14.862 -0.0092  0.0386  0.1546
11316W        W30170  17.052  17.325   1.657 -0.1777  0.0574 -0.2897
11317W        W30171  14.010   4.426  13.284 -0.1027  0.2739 -0.0109
11318W        W30172  13.103  15.575  15.042  0.0417 -0.2410  0.1087
11319W        W30173   3.272  15.555  12.072 -0.4102  0.1117  0.0231
11320W        W30174   9.868   5.166   1.671 -0.1486 -0.0989 -0.0410
11321W        W30175  12.035  13.090   1.292 -0.1579 -0.0509 -0.1427
11322W        W30176  18.562  11.735   0.273  0.0034  0.0138  0.1210
11323W        W30177  18.568   0.479   4.681 -0.1141  0.1294  0.2870
11324W        W30178  12.366  18.340   2.200  0.3528  0.1265  0.0676
11325W        W30179   1.422   1.625   3.953 -0.1342 -0.0641  0.0046
11326W        W30180   8.634   3.037   3.694 -0.0373  0.2004 -0.1752
11327W        W30181   0.310  10.970  12.347  0.5331 -0.0381 -0.0840
11328W        W30182   6.948  14.346  15.347  0.2224  0.0944 -0.1211
11329W        W30183   6.815   0.832   2.317 -0.1878 -0.2074 -0.1263
11330W        W30184   1.094  18.153   1.424  0.1603 -0.1139  0.1640
11331W        W30185  17.237  15.754  10.772  0.2907  0.2045  0.2784
11332W        W30186  14.007   0.488  12.910  0.1879 -0.0976 -0.2093
11333W        W30187   8.844   8.115  12.002  0.1272  0.3202 -0.0272
11334W        W30188   1.634  11.970   9.950 -0.1189  0.1019  0.0343
11335W        W30189   1.195   3.237   2.963 -0.1331 -0.1027 -0.2575
11336W        W30190   2.825  11.837  10.924  0.3745 -0.0585 -0.0993
11337W        W30191   3.715  17.479   2.257  0.0747  0.2876 -0.0193
11338W        W30192  15.628   9.141   5.158  0.0301  0.1590  0.0391
11339W        W30193  14.012  13.537  12.997  0.2776 -0.1370 -0.1432
11340W        W30194  13.894   0.599  11.534 -0.2719 -0.2917  0.4596
11341W        W30195   3.515  11.772   4.172  0.1642  0.1510  0.1365
11342W        W30196  15.376  16.811  11.966 -0.2891  0.1146  0.1217
11343W        W30197   1.009   6.095  13.227 -0.2420  0.3037  0.2655
11344W        W30198  10.216   1.429  12.120 -0.0636  0.1833 -0.0570
11345W        W30199   2.297  12.211   1.775 -0.0964 -0.3106  0.0976
11346W        W30200  18.252   2.540   5.185  0.0169  0.2567  0.0688
11347W        W30201   3.278   4.708  11.799  0.0568  0.2223 -0.1192
11348W        W30202   0.302  18.230  12.713 -0.0779 -0.1938 -0.0836
11349W        W30203  15.906  15.024  13.671  0.0867 -0.1733  0.1218
11350W        W30204   5.960  15.747  13.324  0.1236 -0.1774 -0.0634
11351W        W30205  17.342   6.942  10.640 -0.3005 -0.0791  0.3242
11352W        W30206   0.383   2.931   0.718  0.1081  0.0046  0.1546
11353W        W30207  17.113  15.211   2.647  0.3384  0.1011  0.0031
11354W        W30208   0.126   3.727   2.220  0.4039  0.0214 -0.0867
11355W        W30209   3.102   3.995   1.740 -0.5323 -0.0877 -0.0595
11356W        W30210  15.017   3.845   1.103  0.2015 -0.0226 -0.3401
11357W        W30211   5.865   3.306   0.146 -0.1031  0.1158 -0.0137
11358W        W30212   7.370  17.556   1.570  0.1180  0.0321 -0.1537
11359W        W30213   3.019  17.891  11.487  0.1275  0.3193  0.0324
11360W        W30214   5.333  13.878  14.869  0.0938 -0.0901 -0.1305
11361W        W30215  17.204   3.550  13.682  0.0266  0.1549  0.4122
11362W        W30216   7.108  13.801   3.097 -0.1398  0.1682 -0.1408
11363W        W30217   1.678  16.618  10.627  0.2297  0.0636 -0.5644
11364W        W30218   0.090  16.965   2.206 -0.2093  0.1394  0.2205
11365W        W30219  14.245   2.869  13.690 -0.1750 -0.0563 -0.0975
11366W        W30220  11.351  11.026  14.889  0.2228  0.1995 -0.0192
11367W        W30221   5.050   3.479  11.963  0.2020 -0.2539  0.3488
11368W        W30222   9.328   7.367   0.174 -0.1245  0.1049  0.0274
11369W        W30223  10.521  11.339   4.532  0.0134  0.1910 -0.0713
11370W        W30224  11.089   8.463  12.836 -0.0601  0.4256  0.3630
11371W        W30225   8.747  10.039  12.549 -0.2388 -0.2328 -0.1584
11372W        W30226   5.738   6.173  14.425 -0.0353 -0.6034 -0.0874
11373W        W30227   6.259  14.175   0.990  0.0497  0.1988  0.3669
11374W        W30228   7.132  15.101  11.760 -0.3177 -0.2107  0.1102
11375W        W30229   0.206  16.611   3.962  0.0899 -0.4142  0.2253
11376W        W30230   8.055  15.480   4.183 -0.0308  0.0197  0.1218
11377W        W30231  18.494  13.410  14.630  0.2070 -0.1988  0.2122
11378W        W30232   0.866   8.814   3.607 -0.0230 -0.1348 -0.1380
11379W        W30233  14.391  18.094  13.764  0.2331  0.0956 -0.1502
11380W        W30234  17.937   7.304   3.907  0.0079 -0.1049 -0.2412
11381W        W30235   3.057  10.312   3.915 -0.2442  0.1334 -0.2905
11382W        W30236   3.120  17.847   4.582  0.1939 -0.3161 -0.2577
11383W        W30237   1.814   4.641   4.457  0.4559  0.2201 -0.1355
11384W        W30238  16.409  10.743   5.563 -0.2319  0.1263 -0.0109
11385W        W30239  14.798   4.766  14.745 -0.2562 -0.0557 -0.0196
11386W        W30240  17.810  11.116  12.517  0.1382 -0.2305 -0.1147
11387W        W30241  14.973   5.357   3.299 -0.0153  0.1391  0.0393
11388W        W30242  12.580   4.189   1.472 -0.0842  0.2884  0.0027
11389W        W30243  17.788   3.451  11.719 -0.0490 -0.0472 -0.0498
11390W        W30244  10.447   9.035   2.976  0.2517  0.0813 -0.3403
11391W        W30245   6.048  15.389   3.323 -0.0452 -0.1137  0.1699
11392W        W30246   2.581   5.356   2.254 -0.3025 -0.0827 -0.0821
11393W        W30247  15.080  16.126   4.494 -0.0668 -0.1395 -0.0234
11394W        W30248  17.516   6.881  13.435 -0.0994 -0.1616 -0.1456
11395W        W30249  12.985   5.546  15.263  0.1909 -0.1136 -0.1302
11396W        W30250   9.045   4.120  15.459  0.1012 -0.2530  0.3135
11397W        W30251  11.334   1.590   4.516 -0.4009  0.2891 -0.1313
11398W        W30252  15.303   5.245   2.859 -0.0718  0.1423  0.1206
11399W        W30253  16.145  17.308   3.832  0.1656 -0.1592 -0.3021
11400W        W30254   8.334  13.243   9.556 -0.1018  0.3454 -0.3742
11401W        W30255  16.954   9.354   3.747 -0.1655  0.0914 -0.3706
11402W        W30256   9.787   4.123  11.364 -0.1353  0.4995  0.1183
11403W        W30257   8.228   0.837   0.121  0.1562 -0.1837 -0.1431
11404W        W30258   8.016  12.200  12.019 -0.0634  0.1665  0.2152
11405W        W30259   3.923   4.922   0.325  0.1615  0.0047 -0.1494
11406W        W30260   7.826  10.909   3.619 -0.0498  0.1066  0.0652
11407W        W30261  10.277   1.472   4.083 -0.0498  0.0023 -0.0690
11408W        W30262   8.295   9.466  13.217 -0.0060 -0.1331  0.2384
11409W        W30263   2.541  10.441   2.573 -0.1116 -0.1377 -0.3204
11410W        W30264   5.178  16.355   1.520  0.0925 -0.0113 -0.0768
11411W        W30265  13.600  18.126   0.851 -0.0321  0.0393 -0.3608
11412W        W30266  14.302  16.675  14.730  0.0336  0.0676  0.3871
11413W        W30267   9.109   5.807   2.720 -0.2684  0.0859 -0.1909
11414W        W30268  10.993   1.212   4.617  0.1242 -0.0966  0.2054
11415W        W30269   8.313  11.385  12.750 -0.0280 -0.1090 -0.2349
11416W        W30270   0.653   9.620  11.180 -0.0324  0.2268 -0.0814
11417W        W30271  18.314  14.209   4.014  0.3449 -0.3373  0.0371
11418W        W30272  16.766  14.342  12.218  0.0858 -0.1624  0.0836
11419W        W30273   7.043  18.477   4.170  0.0229 -0.2745  0.0371
11420W        W30274   5.407   9.319  14.480 -0.4023  0.2864  0.1155
11421W        W30275   1.290  15.167  12.618  0.0698  0.1355 -0.2529
11422W        W30276   4.737  16.344  13.712 -0.1816  0.2613  0.1315
11423W        W30277   0.409  16.873   5.257 -0.1049 -0.0830  0.1973
11424W        W30278   4.787  12.550   2.684 -0.3323  0.2241  0.2081
11425W        W30279   1.953   8.893  13.439  0.1823  0.0225 -0.1488
11426W        W30280  12.718   3.319  14.719 -0.2724  0.2022 -0.1860
11427W        W30281   8.760  12.521   3.169 -0.1214  0.0180  0.0248
11428W        W30282  13.539  16.259  12.146 -0.0553  0.0985 -0.0376
11429W        W30283  13.364   7.485  12.232  0.0253 -0.2150  0.1464
11430W        W30284  17.517   2.314  15.332 -0.3600 -0.1152  0.1452
11431W        W30285   7.638   1.638   0.978 -0.1839  0.1588 -0.0099
11432W        W30286   1.751   6.042  14.804  0.0126  0.0217  0.2099
11433W        W30287  12.448   0.062   1.672 -0.1492  0.1178  0.3250
11434W        W30288   9.993   5.272  10.851  0.2186  0.4307  0.1643
11435W        W30289   3.808   6.994   0.055 -0.0997 -0.0044 -0.1906
11436W        W30290   0.591  10.842   5.871 -0.0312 -0.0435  0.1597
11437W        W30291   7.051   3.728   3.461 -0.0087  0.3406  0.1740
11438W        W30292   7.867   6.924  14.385 -0.3223 -0.5785 -0.0776
11439W        W30293   2.652   4.445   1.209  0.0659  0.0585 -0.0811
11440W        W30294   6.575  17.826  13.772 -0.0320  0.0197  0.2179
11441W        W30295  12.157  18.224  11.878 -0.0466 -0.4893  0.0240
11442W        W30296   2.274   9.050  11.911  0.1308 -0.0731  0.1799
11443W        W30297  16.252   8.426   5.095  0.0788 -0.0974  0.2268
11444W        W30298   7.942   2.347   1.580  0.1813 -0.2037  0.1213
11445W        W30299  13.424  17.839  12.633 -0.1365  0.2997 -0.0568
11446W        W30300   1.504  12.658  11.909 -0.2913  0.1195 -0.2938
11447W        W30301   3.420  15.959   2.844  0.1995 -0.0415 -0.1843
11448W        W30302  17.166  15.038   3.865 -0.0766 -0.0306 -0.2262
11449W        W30303   1.828  16.423  11.784  0.0656  0.4092  0.2310
11450W        W30304  14.250  17.254  14.154 -0.2153 -0.3670  0.0244
11451W        W30305   8.715  12.903  10.528  0.2469  0.3570 -0.1403
11452W        W30306   2.369   1.621   4.012 -0.3222  0.0848 -0.0030
11453W        W30307   9.379   2.605  13.602 -0.1693  0.0963 -0.1503
11454W        W30308  14.239  10.741   3.257  0.0456  0.0491  0.0459
11455W        W30309  15.936  16.931   0.860  0.3524  0.1450  0.5350
11456W        W30310  13.019  15.513   3.832 -0.0795  0.0196 -0.1641
11457W        W30311  10.199   5.504   3.561  0.2490  0.0129  0.4454
11458W        W30312   2.628  10.184  14.165  0.0523  0.0828 -0.0495
11459W        W30313   2.344   2.739  11.404 -0.0459  0.2274  0.0997
11460W        W30314   0.321  15.668   2.660  0.2895  0.3448 -0.3291
11461W        W30315   9.818   9.609  12.186 -0.0979 -0.0087 -0.1968
11462W        W30316  16.518  13.492   2.582  0.0380 -0.0058  0.0463
11463W        W30317   3.016  15.057  14.878 -0.0905 -0.2652 -0.1153
11464W        W30318  10.109  11.521  12.545 -0.2608  0.2038  0.1241
11465W        W30319   7.376  15.105  12.512  0.0845  0.1102  0.2780
11466W        W30320  18.173   2.757  15.090 -0.4166 -0.1734  0.1280
11467W        W30321   6.719  12.726   4.427  0.0830  0.0073  0.1049
11468W        W30322  13.587   6.606  14.803  0.2666  0.0070  0.1900
11469W        W30323  10.878  15.167  14.842 -0.2113 -0.1844  0.0358
11470W        W30324  17.012  10.992  11.065  0.0577  0.0305 -0.0981
11471W        W30325  16.130  15.489   2.951  0.0316  0.1954 -0.0970
11472W        W30326   7.321   5.531   3.893  0.2744  0.0722  0.0525
11473W        W30327   7.567  15.643   1.487  0.1051  0.2861 -0.0576
11474W        W30328   0.838   2.796  12.906 -0.0400 -0.2167  0.2059
11475W        W30329   5.811   2.050   2.444 -0.2106 -0.2216 -0.2454
11476W        W30330  10.643   9.660  13.061 -0.1941  0.0514  0.0924
11477W        W30331  11.745   2.653   3.648 -0.0027  0.0356  0.0626
11478W        W30332  16.766   7.395   3.630  0.1024  0.1169  0.1231
11479W        W30333   5.976  16.717   0.375  0.2002 -0.1528  0.0238
11480W        W30334  17.615   3.581   9.360  0.1219 -0.0191 -0.0846
11481W        W30335   3.312   2.568   2.813 -0.1771 -0.0446  0.0721
11482W        W30336   8.408  16.644   0.396 -0.4335 -0.0844 -0.0848
11483W        W30337  12.873   4.113   3.144 -0.2131  0.0021 -0.1878
11484W        W30338  11.743   9.907   1.746 -0.0980 -0.0261  0.0520
11485W        W30339  15.333  17.615   1.132 -0.0055 -0.4412 -0.1377
11486W        W30340   4.565   6.191  13.877 -0.2276  0.2259  0.1575
11487W        W30341  17.030   4.219  11.104  0.0308 -0.0012 -0.0597
11488W        W30342  17.598  16.286   0.634 -0.1145  0.0578  0.4078
11489W        W30343   1.171  10.519  13.029  0.1882 -0.2581  0.3150
11490W        W30344   8.965  12.780  13.100  0.1375  0.1492 -0.3070
11491W        W30345  13.455   6.460  12.338  0.1198  0.2611 -0.1149
11492W        W30346   8.314  12.689  14.998 -0.0346  0.2044  0.0270
11493W        W30347   4.626  17.697   0.231 -0.2273 -0.0809  0.1761
11494W        W30348   9.530  15.554  15.361  0.3548 -0.0601  0.1423
11495W        W30349  17.778  17.658  14.167 -0.0182  0.3070  0.1263
11496W        W30350  14.980   3.205  12.597  0.0745  0.0074  0.1748
11497W        W30351   1.461  18.534  13.240 -0.3104  0.3636 -0.0697
11498W        W30352  18.342   1.572  13.888  0.0486  0.1434 -0.0495
11499W        W30353   0.647  14.201   2.363 -0.1699 -0.0406 -0.1522
11500W        W30354  13.906   9.466  13.217 -0.0746 -0.0556 -0.2865
11501W        W30355   3.148  12.894  13.668 -0.1065 -0.0061 -0.2862
11502W        W30356   8.542   8.700  10.075  0.1862 -0.0340 -0.2286
11503W        W30357   9.968   7.802  12.423  0.2124  0.1270  0.0848
11504W        W30358   7.436  11.295   0.542 -0.0856  0.0037  0.0261
11505W        W30359  16.556  11.310  13.516 -0.1526  0.1274  0.2171
11506W        W30360   1.384   4.956   0.088  0.1524 -0.2039  0.1560
11507W        W30361   5.696   2.038   1.032 -0.2422 -0.0829  0.4277
11508W        W30362  18.106  10.565   0.207  0.0146 -0.0181  0.2564
11509W        W30363  13.821   5.869   0.845  0.1580 -0.1866 -0.1345
11510W        W30364  17.964  15.457  11.295  0.0996  0.1181 -0.2798
11511W        W30365  16.500   3.743   3.696  0.0654 -0.0580 -0.0518
11512W        W30366   1.299   5.718   1.716  0.1321 -0.4520  0.0621
11513W        W30367  10.318   0.994  10.776 -0.0280  0.0212  0.1241
11514W        W30368   4.384  12.150   0.992 -0.1587  0.0343 -0.2660
11515W        W30369   5.851  16.225   4.104  0.0557  0.3224  0.1158
11516W        W30370  11.948   2.007   0.993 -0.0944  0.3671 -0.0041
11517W        W30371  18.166  13.151   0.114  0.2064  0.1495 -0.0829
11518W        W30372  12.847   1.455   2.750 -0.0275  0.1126 -0.1070
11519W        W30373  13.659  13.541   0.443  0.1892  0.0228  0.1176
11520W        W30374  10.754  17.567  13.755 -0.3503 -0.0634 -0.3063
11521W        W30375   3.678  15.498   1.188 -0.0431  0.1065  0.1295
11522W        W30376  12.921  16.750   4.875  0.0608 -0.1007 -0.4638
11523W        W30377  16.363  10.309  11.466  0.3536  0.2697 -0.0889
11524W        W30378  15.323  15.404  11.222 -0.0685 -0.3439 -0.0932
11525W        W30379   1.603  11.178  11.816  0.0248  0.0049  0.1957
11526W        W30380  17.200   3.036  13.637  0.0341  0.0870 -0.0988
11527W        W30381  10.268   9.687  12.400  0.2503 -0.1532 -0.0565
11528W        W30382  11.064   6.507   0.638 -0.1240 -0.0826 -0.1843
11529W        W30383  18.438   1.124   3.950  0.2308  0.3538  0.2776
11530W        W30384  18.320   5.236   0.547 -0.0747  0.1565 -0.0089
11531W        W30385   4.368   3.141  12.529 -0.2088 -0.1982  0.1817
11532W        W30386   7.623   5.836  13.886  0.0860 -0.0518 -0.0086
11533W        W30387  16.555  12.581   1.092  0.1169 -0.2175  0.1587
11534W        W30388  17.416  12.466  12.755 -0.1495  0.0567 -0.1683
11535W        W30389   5.194   6.277  11.457  0.3181  0.0179  0.3769
11536W        W30390  15.587   3.208  13.537  0.3360  0.3616  0.0697
11537W        W30391  10.641   4.252   2.016 -0.0545 -0.0551 -0.0112
11538W        W30392  16.446  15.395   1.226  0.3587 -0.0505  0.2326
11539W        W30393  11.406   9.909  13.038 -0.2510  0.0969  0.2333
11540W        W30394   4.236  16.086  13.566  0.1295  0.0138 -0.0853
11541W        W30395   0.348   9.486   2.580 -0.0508  0.2314  0.0690
11542W        W30396   3.903  14.033   3.856 -0.2661 -0.2127 -0.1101
11543W        W30397   4.020   6.228   0.951  0.1124  0.1177  0.0598
11544W        W30398   8.123  17.466   0.979  0.3296 -0.0329  0.0404
11545W        W30399  14.039   4.607   2.623  0.3058 -0.1356 -0.0133
11546W        W30400   5.213  16.988  11.833 -0.0910 -0.3053  0.1566
11547W        W30401  14.015  11.110  13.493  0.0185  0.1518  0.0466
11548W        W30402   9.124   7.488  13.080  0.2347 -0.1140  0.0640
11549W        W30403  11.363   5.853   1.198  0.1418  0.1867 -0.1154
11550W        W30404   8.492  12.671  12.648  0.0536 -0.0096  0.0487
11551W        W30405   6.397   4.842  14.677  0.0074  0.1797 -0.1621
11552W        W30406   8.648   0.572  11.991  0.1736 -0.0847  0.1478
11553W        W30407  13.784   4.090  15.328 -0.0136 -0.1983  0.1226
11554W        W30408   8.611   5.530   1.148  0.3916 -0.0383 -0.1647
11555W        W30409  12.582   3.022   2.579  0.2335  0.0063  0.0123
11556W        W30410   5.704  17.822  14.837  0.0732 -0.1424  0.3175
11557W        W30411  10.469  17.739  10.800  0.0116 -0.0105  0.2049
11558W        W30412   1.193  10.979  13.387 -0.0762  0.1287  0.2967
11559W        W30413   0.848   5.799  11.587 -0.1737 -0.1153 -0.1545
11560W        W30414   7.420  17.147   2.518 -0.1107  0.0906 -0.3743
11561W        W30415   3.816  13.514  13.988  0.0020 -0.0615 -0.1522
11562W        W30416   2.725   1.233   2.556 -0.1935  0.3843 -0.1780
11563W        W30417   3.144  12.309  12.859  0.1590  0.1230  0.0724
11564W        W30418  15.341  11.912  11.890  0.0442 -0.0642 -0.1686
11565W        W30419   9.052  10.389  11.766  0.0199  0.2564 -0.1684
11566W        W30420   9.547   9.216   0.923 -0.0963  0.0911  0.0191
11567W        W30421  17.055  11.421  12.199  0.3518  0.1019  0.0184
11568W        W30422  15.072   4.163  10.060  0.0438 -0.0237 -0.1434
11569W        W30423   2.522  16.097   1.482  0.1196  0.0141 -0.1027
11570W        W30424   7.089   4.540  11.199  0.0995 -0.1232 -0.0780
11571W        W30425  16.637   4.801   3.854 -0.3386 -0.3637  0.1013
11572W        W30426   4.120  17.055  12.936 -0.0341 -0.3369  0.2584
11573W        W30427   2.276   0.435  10.844  0.2526  0.0807 -0.0102
11574W        W30428   0.760  12.839  13.166  0.2863 -0.1276 -0.1332
11575W        W30429   5.280  10.479   3.946  0.1968  0.0499  0.0545
11576W        W30430   9.369   2.380  13.161 -0.0446  0.0694  0.0966
11577W        W30431   4.014   5.035  12.645 -0.0115  0.4525  0.2291
11578W        W30432  15.715  11.974   2.597 -0.2241  0.2207  0.1599
11579W        W30433  14.092   3.359   2.916  0.3869 -0.1292  0.0673
11580W        W30434   0.181  18.047  13.472  0.2055 -0.1522  0.1095
11581W        W30435  12.163   6.465   5.140 -0.1241 -0.0854 -0.1939
11582W        W30436   4.414   0.436  15.445 -0.1712 -0.1207 -0.0405
11583W        W30437   6.605   2.255  12.764 -0.1683  0.0681 -0.2495
11584W        W30438   6.195   9.488   4.487  0.1976  0.0928 -0.1303
11585W        W30439   8.824  13.471   1.678 -0.3574  0.1331  0.0309
11586W        W30440   6.305   4.936   3.519  0.2454  0.3633  0.1179
11587W        W30441   6.511  12.271  13.941 -0.0477  0.0163 -0.0716
11588W        W30442   5.042   7.533  12.533  0.2709 -0.3342  0.3154
11589W        W30443   5.143   3.345   1.174 -0.1832  0.0340  0.0781
11590W        W30444   3.589  12.585  12.863  0.1119 -0.0293  0.1924
11591W        W30445  13.491  14.552   2.535  0.1291  0.1659  0.1329
11592W        W30446   8.642  11.932  14.280  0.0518  0.2813  0.0207
11593W        W30447  16.685   0.209   2.037 -0.1331  0.0307  0.0036
11594W        W30448   6.803  12.565   0.243 -0.1617 -0.1956  0.1141
11595W        W30449   3.559   9.973  13.988  0.2069 -0.2197  0.2098
11596W        W30450   1.177   0.310  14.811 -0.3344 -0.0581  0.0315
11597W        W30451  11.743  17.900   3.344 -0.0539  0.4597  0.1599
11598W        W30452   6.365  16.788   3.628 -0.1026 -0.0098 -0.3271
11599W        W30453  11.312  15.269   1.818 -0.1709 -0.0633  0.0576
11600W        W30454   2.708   4.721  11.765 -0.0815  0.0435 -0.2072
11601W        W30455  16.314   8.822  10.836  0.2751 -0.2177  0.3389
11602W        W30456  16.155   5.523   2.711 -0.1819  0.0328 -0.0560
11603W        W30457  12.511   8.023   5.512 -0.2129 -0.1800  0.0960
11604W        W30458   4.124   2.191  13.817 -0.2493  0.6358 -0.0751
11605W        W30459  12.610   9.119   3.659  0.0006 -0.2271  0.2386
11606W        W30460  15.688   1.257   2.587  0.1686 -0.0448  0.1479
11607W        W30461  11.418  13.306   0.503 -0.2548 -0.3513 -0.0866
11608W        W30462  12.997   3.644  14.987  0.2136  0.1739  0.1398
11609W        W30463   7.959   3.864  11.202 -0.6450  0.1477  0.1577
11610W        W30464  12.523   4.111  13.293  0.0480  0.1051  0.0288
11611W        W30465  11.279  16.390  14.798 -0.0983  0.0814  0.1311
11612W        W30466  14.768   6.257  12.768  0.0051 -0.1427 -0.0237
11613W        W30467   7.516   0.454   0.234 -0.0658  0.0059 -0.2259
11614W        W30468  17.869   4.533   1.367 -0.1409 -0.1034  0.0940
11615W        W30469   5.399   2.160  10.116 -0.0711  0.1310 -0.0277
11616W        W30470   7.475  11.785   0.542 -0.0163 -0.2435  0.3191
11617W        W30471  10.456  11.972  14.457 -0.0991 -0.1725  0.0993
11618W        W30472  16.928   4.902   1.129 -0.0549  0.2373 -0.2026
11619W        W30473  16.034   2.152   2.852  0.0545 -0.0515  0.3159
11620W        W30474   1.867  15.704  12.423  0.0277 -0.1772 -0.1209
11621W        W30475   8.890  10.956   3.157  0.3868 -0.0908 -0.1929
11622W        W30476  11.565   9.444  14.848 -0.0526  0.1487 -0.1084
11623W        W30477   5.072  15.434   2.425 -0.0801 -0.0161  0.2402
11624W        W30478  12.317  13.206  15.269 -0.0766  0.0032 -0.1395
11625W        W30479  15.208  15.280  12.662  0.1915  0.1153  0.1100
11626W        W30480   9.603  17.047   1.783  0.1223 -0.1451 -0.0332
11627W        W30481   2.394   1.485  11.145  0.0275  0.3532  0.0030
11628W        W30482  16.425  15.139  10.139 -0.1310 -0.0052 -0.1521
11629W        W30483   4.129   8.503   2.739 -0.0285  0.0839  0.0105
11630W        W30484  13.035   1.788   3.676  0.0676  0.1016 -0.1361
11631W        W30485  10.154   6.753   3.391  0.2315 -0.0866  0.1298
11632W        W30486  12.147   8.707  11.180  0.0163  0.0765 -0.2848
11633W        W30487   2.096   9.156   2.367 -0.0977 -0.2579 -0.3770
11634W        W30488  10.853   1.547   4.115  0.1651  0.1025  0.4274
11635W        W30489   0.106   4.337  12.420 -0.0425 -0.0233 -0.0198
11636W        W30490  10.108  13.902  10.387  0.1677 -0.2196 -0.0425
11637W        W30491   3.543  13.222   1.759  0.1517 -0.0522  0.2674
11638W        W30492  12.312   1.235  11.690 -0.2920  0.1075  0.1297
11639W        W30493   9.692  13.910  13.601  0.0178  0.1757  0.1465
11640W        W30494   2.671   1.985   0.862  0.0862  0.0846  0.1123
11641W        W30495  14.065   5.867   4.122  0.1367  0.0203  0.1205
11642W        W30496  18.053   9.310  14.279  0.0427  0.0184  0.1792
11643W        W30497   5.863  13.264  13.688 -0.2920  0.1416 -0.2386
11644W        W30498   6.344   3.747  10.292 -0.2235 -0.2015  0.0446
11645W        W30499  15.363  18.389   3.183  0.0704 -0.1696  0.2760
11646W        W30500   6.117   8.205  10.845 -0.0515  0.3028  0.1906
11647W        W30501  12.013   4.619   2.287 -0.1249  0.1625 -0.1759
11648W        W30502   7.023  14.841   3.600  0.3161  0.1122  0.0692
11649W        W30503  17.725  15.899   1.600  0.5055  0.1483  0.0830
11650W        W30504   2.493  12.221   0.299  0.0022 -0.0542  0.0192
11651W        W30505  12.593   0.113  12.987  0.0070 -0.0377 -0.1817
11652W        W30506  18.363   9.804   2.832  0.4884 -0.0871  0.2409
11653W        W30507   3.459  12.492  10.983  0.3023  0.1224 -0.1920
11654W        W30508   9.278   3.585  11.974  0.3496 -0.0886 -0.1959
11655W        W30509   9.565  17.996   3.454  0.2247  0.3647 -0.0524
11656W        W30510  12.073  15.400  13.011  0.2442 -0.0907 -0.2090
11657W        W30511   4.736  15.149   0.534 -0.4006  0.2913  0.1604
11658W        W30512  10.602  15.980   3.635 -0.1518  0.0222 -0.3363
11659W        W30513  13.601  11.591  15.284 -0.1111 -0.0715 -0.2272
11660W        W30514   3.985  15.313   1.651  0.1533 -0.4695  0.3838
11661W        W30515   8.427   2.371   1.630 -0.2615  0.2402  0.2081
11662W        W30516   4.674   1.914  15.181  0.1905 -0.2050  0.0866
11663W        W30517  10.210   8.601  13.833 -0.0218  0.1489  0.0215
11664W        W30518   9.911   7.989   4.699  0.0312  0.3376  0.0173
11665W        W30519  11.616   6.515   0.545  0.4250  0.3295 -0.4002
11666W        W30520   6.449  15.415   2.421 -0.0563  0.1852 -0.1204
11667W        W30521   3.931  11.152  11.291 -0.0994  0.0813  0.3026
11668W        W30522  11.879   5.556  14.090 -0.0852 -0.0434  0.4035
11669W        W30523  10.181   2.127  11.316 -0.1721  0.1108  0.2125
11670W        W30524   8.612   7.158   1.667  0.1302 -0.0928 -0.1089
11671W        W30525  13.954  14.379  13.783 -0.0454  0.1261 -0.0049
11672W        W30526   3.297   9.290   1.276 -0.0630 -0.1908  0.0462
11673W        W30527   0.467  12.132  12.998  0.4251  0.1556  0.0193
11674W        W30528  16.656  18.102  13.437  0.0172 -0.1892  0.5189
11675W        W30529  16.752  17.375  12.418 -0.1003 -0.3305 -0.3139
11676W        W30530  11.637  15.790   0.614 -0.2476  0.1987 -0.0193
11677W        W30531   4.154  11.420  12.404 -0.0043  0.0920  0.1197
11678W        W30532   5.821  14.572   0.094  0.1087 -0.0449 -0.0127
11679W        W30533  17.744  10.409   2.379 -0.1137  0.1491 -0.0158
11680W        W30534   3.528  16.768   3.828 -0.2027  0.2325 -0.1635
11681W        W30535   5.651  14.822  12.495  0.0822  0.1506 -0.0460
11682W        W30536   9.125   6.638  12.253  0.2851  0.2301  0.3530
11683W        W30537  11.902   9.903  11.231 -0.1635  0.2750 -0.1017
11684W        W30538  17.768   2.011  11.754 -0.0640  0.0362 -0.0088
11685W        W30539   2.995   7.855  15.182  0.0775 -0.4860  0.0585
11686W        W30540   6.026   4.856   2.852  0.3458  0.2447 -0.0236
11687W        W30541  11.693  14.334  11.716  0.2275 -0.2585  0.4059
11688W        W30542   7.977   9.481   5.668  0.1285 -0.0772  0.0127
11689W        W30543  18.041   1.455   0.845  0.3918  0.1415 -0.1387
11690W        W30544  10.704   8.333  13.720 -0.2172 -0.2797  0.0981
11691W        W30545  16.411  17.392  15.088 -0.4451 -0.0366  0.0095
11692W        W30546   4.451  17.561   1.620 -0.1245 -0.0693  0.1795
11693W        W30547   1.445  12.416   0.173 -0.3106  0.0429  0.2086
11694W        W30548  13.164  11.617   1.327 -0.1113 -0.1369  0.0562
11695W        W30549  13.954  11.881   1.314  0.0289 -0.1607 -0.1363
11696W        W30550  15.477  12.849  15.428 -0.1495 -0.2653 -0.2249
11697W        W30551  13.923   2.825  12.981  0.0571  0.0457  0.0778
11698W        W30552   1.814  13.994   5.336 -0.0149  0.2088  0.0813
11699W        W30553  11.972   6.823   2.669  0.0550 -0.1893 -0.1789
11700W        W30554   8.253   9.982   3.938  0.2029 -0.0497 -0.0483
11701W        W30555  15.150  14.379  13.341 -0.1443  0.1147 -0.0665
11702W        W30556  14.836  16.302   1.604 -0.3659  0.0978  0.1767
11703W        W30557  18.027   8.058  14.407  0.2915 -0.1511 -0.1295
11704W        W30558  12.963  13.337  14.598  0.0227 -0.2364 -0.1029
11705W        W30559  15.891   8.121   0.288 -0.4664 -0.1211 -0.1828
11706W        W30560  11.577  10.395   2.964  0.1588  0.0182 -0.1255
11707W        W30561   0.722  16.064   1.440  0.2587  0.2189 -0.1632
11708W        W30562  10.388   2.453   3.785 -0.2524  0.0708 -0.0876
11709W        W30563   5.003   0.493  12.533 -0.1374  0.0325 -0.1106
11710W        W30564   2.055  13.357  13.510 -0.1189  0.0547  0.1924
11711W        W30565   3.417  18.296  12.380  0.2931 -0.0566 -0.0778
11712W        W30566  15.504   1.868   4.505  0.1302 -0.2239 -0.5289
11713W        W30567  16.412   8.113   1.784 -0.1631 -0.1516  0.0345
11714W        W30568   8.169  10.949  12.785  0.0536 -0.0402 -0.3231
11715W        W30569  15.563  14.585   1.430  0.2056 -0.1830 -0.2046
11716W        W30570  18.344  15.154  13.813 -0.0716 -0.0221 -0.1336
11717W        W30571   8.580   1.253  10.350  0.1421  0.1466 -0.0376
11718W        W30572  13.640   6.274  15.138  0.0710 -0.0556 -0.0124
11719W        W30573  13.971  12.536   4.377 -0.0038  0.1798 -0.1125
11720W        W30574  12.686   0.594   3.781  0.1826  0.1827 -0.1494
11721W        W30575  15.484   7.194   1.881  0.1970  0.1434  0.1891
11722W        W30576  13.037  13.275   4.554  0.2570 -0.2719 -0.0418
11723W        W30577  15.738  17.189  15.149 -0.2345 -0.1047 -0.0125
11724W        W30578  10.361  13.392  10.597  0.3095  0.0212  0.1288
11725W        W30579  13.980  14.756   2.082  0.0272 -0.0095 -0.1194
11726W        W30580   0.111   7.185   1.014  0.2041  0.2853  0.0577
11727W        W30581   7.413  10.612  13.249 -0.0199 -0.2484  0.0898
11728W        W30582   8.772   0.388   0.840  0.3001  0.1495  0.0064
11729W        W30583   5.242   4.505   9.973 -0.2290 -0.1082  0.2176
11730W        W30584   6.237  18.508   0.097 -0.3517  0.2037 -0.1273
11731W        W30585   8.188  17.129   5.320  0.0191  0.0856  0.2256
11732W        W30586  10.719   7.392   3.199  0.0790 -0.1955  0.2000
11733W        W30587  12.230  10.146  15.100 -0.0564  0.0657  0.0349
11734W        W30588  13.306  14.471   1.465  0.2583 -0.3034  0.1872
11735W        W30589   1.399  12.934   3.635 -0.1312  0.0378 -0.0688
11736W        W30590  14.513  12.345  12.264  0.1321 -0.1506  0.0606
11737W        W30591  15.696   9.951  14.863 -0.0131  0.1573 -0.0004
11738W        W30592   5.086  11.843  15.258 -0.2877  0.0655 -0.0493
11739W        W30593   9.575   7.844  12.048  0.0494  0.1356 -0.0126
11740W        W30594   4.016  17.056   2.327 -0.0650  0.0078  0.3399
11741W        W30595  11.102  11.103  15.417 -0.1194  0.0420 -0.2014
11742W        W30596   0.864   3.760  12.702  0.0391  0.0332  0.1522
11743W        W30597  12.077  17.592   1.520  0.1558 -0.1414 -0.1238
11744W        W30598   2.384  15.972  13.568 -0.1766  0.1169 -0.0911
11745W        W30599   6.193   6.560  10.448 -0.2057 -0.1096  0.3094
11746W        W30600  17.261   1.493  11.120  0.2315  0.1408  0.0649
11747W        W30601  11.874  12.143  15.216  0.1621  0.1979 -0.0185
11748W        W30602   5.129  18.363  12.599  0.0102  0.0394  0.1691
11749W        W30603   6.538  10.276   3.419  0.0792 -0.5735  0.0846
11750W        W30604  18.291   4.432   9.534 -0.0097 -0.1986  0.0711
11751W        W30605   5.157   2.179   4.404  0.0919 -0.1026  0.0178
11752W        W30606   5.023  11.937  12.312  0.1096  0.0329 -0.0260
11753W        W30607   1.781   7.241   2.030 -0.2252  0.2694 -0.0110
11754W        W30608   3.587  10.247  14.523 -0.1905 -0.2081  0.0299
11755W        W30609  10.585   8.866  14.128 -0.1932  0.2110  0.2695
11756W        W30610  16.894   8.873  14.096  0.0405 -0.2905  0.0488
11757W        W30611   4.128  15.332   2.990 -0.0274  0.0209 -0.1665
11758W        W30612   9.967  15.318  11.027  0.1245  0.1024  0.0243
11759W        W30613   9.202  15.797  12.955  0.0215 -0.0223  0.2345
11760W        W30614  10.346   0.283  13.293  0.0581  0.1755 -0.2663
11761W        W30615   6.885   2.178   2.849  0.0478  0.1104  0.1579
11762W        W30616   6.265   1.904  12.874  0.1080 -0.0235 -0.2633
11763W        W30617  11.607  18.224   2.724  0.0816  0.1460 -0.0492
11764W        W30618   1.970  18.529   1.512 -0.0913 -0.0703 -0.0119
11765W        W30619   0.152   8.666  14.368  0.0594 -0.0066 -0.1486
11766W        W30620  14.344  13.970   1.824  0.2226 -0.2129  0.2259
11767W        W30621   5.161  14.928  12.706 -0.0778  0.0711 -0.1246
11768W        W30622   5.689   6.299  12.900 -0.0558  0.0884 -0.3670
11769W        W30623   8.527   1.178  14.251 -0.0630  0.1519 -0.3876
11770W        W30624   9.112   0.061   0.012 -0.0416  0.1599 -0.2048
11771W        W30625  11.911   1.429   4.639 -0.0065  0.0822 -0.1561
11772W        W30626  15.044   4.231   1.430 -0.1056  0.0280  0.0216
11773W        W30627   9.186   5.450  11.652 -0.0345 -0.2185 -0.0208
11774W        W30628  13.619  10.421  11.132  0.3170  0.0477  0.2536
11775W        W30629   0.528  13.192   3.348  0.4218  0.0732  0.2974
11776W        W30630  16.093   5.480   2.145  0.3272  0.0306  0.1310
11777W        W30631  13.255   0.193  14.080 -0.3172  0.3337 -0.2118
11778W        W30632   4.553  14.288   0.713  0.4509 -0.3499 -0.0022
11779W        W30633   7.930  14.307   3.565  0.0189 -0.2103 -0.0713
11780W        W30634   2.620  16.770  12.882  0.2551  0.0365  0.1340
11781W        W30635  15.236  18.344   0.917 -0.0719  0.1801 -0.0817
11782W        W30636  14.031   9.957  13.006 -0.1144  0.0324  0.0635
11783W        W30637   5.655  17.844  11.276 -0.1077 -0.2627  0.0529
11784W        W30638   2.004  13.865  11.888  0.2471  0.0829  0.1668
11785W        W30639   5.357  18.112   3.558 -0.0566  0.1247 -0.3106
11786W        W30640   7.074   2.660   2.634  0.0292 -0.2501  0.0734
11787W        W30641   2.291  13.377  14.851  0.1046 -0.0451 -0.2326
11788W        W30642  14.165  16.584  12.478 -0.0486  0.0005  0.1948
11789W        W30643  11.063   0.403  11.726 -0.0096 -0.1684  0.0661
11790W        W30644  11.322  17.751  11.304  0.1036  0.1241  0.0316
11791W        W30645  17.017   5.410   1.386  0.1110  0.1463  0.2393
11792W        W30646  14.484   6.128   4.170  0.1104 -0.2805 -0.0013
11793W        W30647   6.599  10.551   0.363 -0.1483 -0.0221  0.0587
11794W        W30648  14.075  14.102  11.560 -0.2833  0.0671 -0.0357
11795W        W30649  15.638   5.911  11.311  0.0401 -0.0350 -0.0999
11796W        W30650  14.780  17.761   3.756 -0.1244 -0.1208  0.1375
11797W        W30651  13.180   4.854   2.226  0.2164 -0.0261  0.3069
11798W        W30652  12.943   2.318  13.392  0.1356  0.1139  0.4073
11799W        W30653   5.393  13.915   1.122 -0.1780 -0.3473 -0.1081
11800W        W30654  16.538   8.834  14.975  0.1539 -0.2265  0.0011
11801W        W30655  11.571  10.887   2.843  0.2418 -0.1026 -0.1482
11802W        W30656   4.125  14.295  12.158  0.1651  0.0707 -0.0598
11803W        W30657   9.538   9.300   3.589  0.0469 -0.0723  0.0469
11804W        W30658  10.494  10.324  12.265 -0.0865 -0.1045 -0.0028
11805W        W30659  12.852  18.351   1.460  0.0058 -0.1552 -0.0279
11806W        W30660  13.901   2.557   3.666  0.0265 -0.1295 -0.1151
11807W        W30661   3.967  13.628   4.363  0.1658 -0.1021  0.1281
11808W        W30662   8.384  13.417  12.687 -0.1219 -0.2271 -0.1624
11809W        W30663  16.299  14.670   3.490 -0.0767  0.0731  0.1192
11810W        W30664  14.175   0.521   4.458 -0.1376  0.1977 -0.3342
11811W        W30665  13.222   0.233  11.504 -0.0024  0.2467 -0.1467
11812W        W30666  14.098  13.872   0.552 -0.0075  0.2063 -0.1231
11813W        W30667   5.367   1.912  13.207 -0.0812 -0.2973 -0.1762
11814W        W30668   5.799  17.240   3.002  0.2372  0.0388 -0.0855
11815W        W30669   3.296   1.124   3.172  0.0173  0.1875  0.0955
11816W        W30670  12.322   7.184   2.154 -0.3168  0.1015  0.3777
11817W        W30671   5.148  14.441  12.648 -0.2552  0.0050 -0.2349
11818W        W30672   9.655  13.556   0.766  0.1701  0.1921 -0.1980
11819W        W30673  16.211  17.235  10.896  0.1310 -0.3298 -0.1889
11820W        W30674  13.276   1.781   2.240  0.1575  0.3844  0.1572
11821W        W30675   5.641  13.663   0.652  0.1752  0.1097 -0.0815
11822W        W30676   6.768  17.809   0.802  0.1723  0.1956 -0.1669
11823W        W30677   5.397  11.830   2.829 -0.1626  0.2658 -0.1239
11824W        W30678   8.826   2.469   2.550 -0.0287  0.0405 -0.1814
11825W        W30679  12.089   6.725   0.413  0.0135 -0.1322 -0.3021
11826W        W30680  15.682  13.359   4.497  0.1745  0.1033 -0.2235
11827W        W30681   1.857  15.364  14.352 -0.0576 -0.0369 -0.0764
11828W        W30682   2.784  12.424  14.884  0.3070 -0.2634  0.3613
11829W        W30683   5.020   2.537   3.422  0.1475 -0.2526 -0.1635
11830W        W30684   0.112   3.940  14.646  0.0780  0.1030 -0.0036
11831W        W30685   8.978   1.339  11.788  0.0760 -0.2188  0.0362
11832W        W30686  15.035  15.018   3.768 -0.0638  0.2662 -0.0161
11833W        W30687   2.409   7.557   2.663 -0.2608 -0.1284 -0.0528
11834W        W30688  15.903   1.855  14.732  0.0090 -0.2772 -0.0806
11835W        W30689  18.562   3.000   3.982 -0.1386  0.1399 -0.2077
11836W        W30690  12.250  11.606   2.916 -0.0702  0.1303  0.2491
11837W        W30691   9.119  17.158  14.870 -0.4141  0.0412 -0.3008
11838W        W30692   8.686   4.438  12.094 -0.1024  0.2209 -0.2310
11839W        W30693   3.373  17.526   3.058 -0.1978  0.1646  0.2036
11840W        W30694   1.976  10.273   2.447 -0.1550  0.2662 -0.2422
11841W        W30695  15.380  11.319   2.328 -0.0945  0.0641 -0.0495
11842W        W30696   3.167   3.506   1.881 -0.2192  0.1019 -0.0494
11843W        W30697  11.592   6.786   4.632 -0.3187  0.0740 -0.0538
11844W        W30698  16.262  12.771   3.962  0.0335  0.1034 -0.0395
11845W        W30699  10.734  14.042   4.210  0.1817 -0.3218 -0.1446
11846W        W30700  10.572   5.219  12.855  0.2367  0.0171  0.1958
11847W        W30701  13.411   0.737   2.238 -0.1389  0.2256  0.1411
11848W        W30702   9.835   8.665   2.250 -0.0956 -0.1227  0.1177
11849W        W30703   1.662   8.866  12.446 -0.1156  0.2612  0.1331
11850W        W30704  18.564   3.238   0.883 -0.0663 -0.0935  0.1488
11851W        W30705  13.132   0.896  12.610 -0.0059  0.3223 -0.1008
11852W        W30706   2.896   2.759  14.518  0.2271  0.0447 -0.0667
11853W        W30707  11.255   3.255   2.312 -0.0134 -0.0864 -0.0784
11854W        W30708   8.884   6.723   1.640  0.3510  0.0534  0.1342
11855W        W30709  17.959  17.529   2.046  0.0551 -0.1332  0.2135
11856W        W30710   3.771  11.296  12.137  0.0425 -0.0501  0.1261
11857W        W30711   1.107   1.556   3.307  0.0938 -0.3347 -0.1909
11858W        W30712  13.293   1.206  11.639  0.0537 -0.1502 -0.1540
11859W        W30713  10.937   6.494  10.954 -0.1516  0.0652 -0.2547
11860W        W30714   9.670  14.856  14.392  0.0846 -0.1472 -0.0420
11861W        W30715  15.123  11.895  15.306 -0.1789 -0.0087  0.0636
11862W        W30716   5.333  11.732  14.771  0.0124 -0.0295  0.1375
11863W        W30717   2.446   5.103   2.687 -0.1073  0.0759 -0.0460
11864W        W30718  18.294  14.608  13.954 -0.1196  0.0720 -0.2224
11865W        W30719   4.512   3.202  11.207 -0.1260  0.0384 -0.0118
11866W        W30720   8.457   9.032   0.037 -0.0163 -0.2768  0.0665
11867W        W30721   1.964  15.148   2.266  0.0355 -0.2666  0.0716
11868W        W30722   5.586  10.897  14.492  0.3597  0.1199 -0.0474
11869W        W30723   7.341  16.333   4.061  0.0497 -0.0116 -0.0126
11870W        W30724   7.601   1.793  13.762 -0.0082 -0.0265 -0.0420
11871W        W30725  12.047   1.896   2.700  0.0118 -0.4325 -0.1458
11872W        W30726   5.172  16.225   3.445  0.1095 -0.0980 -0.3493
11873W        W30727  15.307  16.410   2.550  0.0613 -0.2633  0.1981
11874W        W30728   8.221  14.382  13.344 -0.2088 -0.0826  0.0966
11875W        W30729  12.962   8.439  12.314 -0.2745  0.1741  0.0373
11876W        W30730   4.379   9.012   0.698 -0.1853 -0.3372 -0.0745
11877W        W30731  12.718  12.154  14.198  0.0518 -0.0042 -0.2976
11878W        W30732   5.606  18.456   1.682  0.4105 -0.0798  0.3919
11879W        W30733  11.195   5.486   2.188 -0.0635 -0.2664  0.0932
11880W        W30734  13.015  12.178  12.896 -0.1844  0.2521 -0.0763
11881W        W30735  15.187  13.504  14.829 -0.1258 -0.0947 -0.0754
11882W        W30736   7.599   1.617  13.265  0.0066 -0.3036  0.0503
11883W        W30737   6.911   5.296  12.095  0.1312 -0.3946 -0.3582
11884W        W30738  10.324   7.934  11.527 -0.3150  0.1398 -0.0234
11885W        W30739   4.848   8.355  14.179 -0.0089  0.3334 -0.0336
11886W        W30740   5.715  16.075   3.586 -0.1398 -0.3639 -0.0280
11887W        W30741   8.833   0.013   2.280 -0.0467 -0.0154 -0.1589
11888W        W30742   8.324  15.267   3.085 -0.2957  0.0839 -0.1662
11889W        W30743  17.039   2.953   3.986  0.0807  0.1330  0.0119
11890W        W30744   7.766   4.676  13.554 -0.2602 -0.1363 -0.1807
11891W        W30745  10.969  12.824  13.379  0.0300 -0.0877  0.0308
11892W        W30746  11.010   9.205  13.622 -0.1346  0.1174 -0.0908
11893W        W30747  14.826  13.164  12.821 -0.1471 -0.0170 -0.1464
11894W        W30748   5.518   5.537  15.408 -0.3239  0.1590  0.4815
11895W        W30749  17.897   3.235   1.730  0.0862 -0.3258 -0.3640
11896W        W30750   5.938  17.205  12.646  0.0692 -0.2126  0.1080
11897W        W30751   9.216  12.320  11.467  0.0236  0.0338  0.1229
11898W        W30752   1.152  15.906   2.414 -0.1533 -0.0042 -0.0443
11899W        W30753   1.343   3.396   1.852 -0.0586  0.2008  0.0174
11900W        W30754  14.349   9.849  14.193  0.1794  0.1841 -0.0184
11901W        W30755  14.129   5.363  13.017 -0.2386 -0.0026 -0.0967
11902W        W30756   9.366   4.510   4.981 -0.0956  0.3444  0.0573
11903W        W30757  10.219   2.647  11.445  0.1209 -0.2220 -0.2710
11904W        W30758  10.825  15.435  11.526 -0.2870  0.1172  0.1101
11905W        W30759   9.352   4.250  14.625 -0.0919  0.1583 -0.1504
11906W        W30760   0.248   5.746   3.190 -0.1232  0.1088 -0.1742
11907W        W30761  17.444  13.831   5.503 -0.1584 -0.0952 -0.2390
11908W        W30762   4.533   2.762  11.310  0.0907 -0.2763  0.0556
11909W        W30763   1.653   4.183   4.715  0.1120 -0.2066 -0.0709
11910W        W30764   2.930   1.268   0.468 -0.1134 -0.1053  0.3202
11911W        W30765   8.810   3.395   1.254  0.3273  0.0227 -0.0682
11912W        W30766   1.873   1.438   0.978 -0.0707 -0.1563 -0.0067
11913W        W30767  11.767   0.398  14.785 -0.0394  0.0583  0.1889
11914W        W30768  12.176  15.876   0.738 -0.4983  0.1362  0.1839
11915W        W30769  10.369   3.626   0.763 -0.1250 -0.3705 -0.2695
11916W        W30770  15.426  12.752  11.711 -0.0318  0.1332 -0.0224
11917W        W30771   3.940  18.493  12.341  0.3288 -0.3111  0.1902
11918W        W30772   7.330   7.088   4.833  0.2782  0.3020  0.1290
11919W        W30773   8.301  14.010  15.185 -0.0553 -0.0964  0.2417
11920W        W30774   2.502   9.541  11.132  0.0839 -0.0566 -0.1018
11921W        W30775  14.447   2.114   2.449 -0.0419 -0.1584  0.0143
11922W        W30776  17.842   7.137  15.321 -0.1194 -0.1969  0.0750
11923W        W30777   7.905   4.673   5.387 -0.1550  0.2307  0.2155
11924W        W30778  11.208  16.401  10.202  0.0030  0.0095  0.1291
11925W        W30779  11.031   9.122   0.599  0.2855 -0.0540  0.0322
11926W        W30780   8.543   2.143  11.725 -0.1209 -0.3871  0.0430
11927W        W30781   0.731   5.977   2.412  0.1200 -0.3648  0.1806
11928W        W30782  14.226   6.779  11.616 -0.0390 -0.0439  0.2737
11929W        W30783  17.420  13.364   1.886  0.0958  0.1241  0.1712
11930W        W30784  17.574  11.890  12.715  0.3829  0.0314  0.3056
11931W        W30785  11.555   3.171   5.193  0.2760  0.3813  0.0355
11932W        W30786  17.597   1.176   2.775  0.2826  0.0907  0.0610
11933W        W30787   0.384   7.123  14.336 -0.1348  0.1140 -0.0383
11934W        W30788  13.158   7.399  10.208 -0.0161 -0.0280 -0.2721
11935W        W30789  11.849  15.202   3.558 -0.1545  0.3000 -0.5602
11936W        W30790  15.290   9.095  13.524  0.1083 -0.0101  0.1580
11937W        W30791   1.774   3.271   4.227 -0.1110  0.0325  0.2548
11938W        W30792  14.272  17.552   0.433  0.4213 -0.2099 -0.2275
11939W        W30793   9.211  14.123   2.273  0.0518 -0.3947  0.1215
11940W        W30794   3.930   4.019  12.916  0.1427 -0.1349 -0.2080
11941W        W30795  15.353   9.460  12.821  0.2274  0.0400  0.0541
11942W        W30796  16.426  12.612  12.787 -0.0363  0.0577 -0.1132
11943W        W30797   7.336   3.616   4.019  0.0406  0.2685  0.1590
11944W        W30798  12.652   8.239  13.169 -0.2681  0.3212  0.0500
11945W        W30799  15.244   0.289   4.447 -0.0378  0.1797  0.0500
11946W        W30800  13.608   0.091   0.096  0.0283 -0.1175 -0.0217
11947W        W30801   5.652   3.147  12.802 -0.3735 -0.0692  0.0564
11948W        W30802  10.676  13.299  14.258 -0.3431  0.0659  0.1443
11949W        W30803   8.111   7.372  14.814  0.0086  0.0218  0.1631
11950W        W30804  17.211   7.323   3.452 -0.0430 -0.2663  0.0729
11951W        W30805   3.069  13.962   4.172  0.2749 -0.1670 -0.1273
11952W        W30806   4.428  11.036  11.488  0.1536  0.0080 -0.0172
11953W        W30807   8.654   6.730  14.965  0.0531  0.6482  0.1993
11954W        W30808   7.223  17.488   2.088  0.0930 -0.0068 -0.1116
11955W        W30809   2.225   1.529  15.205 -0.0358 -0.1670 -0.1561
11956W        W30810   1.410   1.942  15.047 -0.1017 -0.0020 -0.3734
11957W        W30811  12.269   1.775   1.821  0.0618  0.1396 -0.0874
11958W        W30812   4.122  16.332   1.261 -0.4111  0.0259 -0.0369
11959W        W30813  11.563   6.686  11.481 -0.2310 -0.0126 -0.0655
11960W        W30814   6.665   3.933   1.379 -0.0574 -0.0520 -0.1312
11961W        W30815   1.214  18.521   1.062 -0.1299 -0.0204  0.0161
11962W        W30816   9.518  16.575   4.159 -0.0782  0.1779  0.2061
11963W        W30817   3.839  16.435   2.142 -0.0619  0.0833  0.1217
11964W        W30818   1.278   8.812  12.936  0.0869 -0.1721  0.0628
11965W        W30819   6.426  10.595  15.343  0.0910 -0.0051 -0.0669
11966W        W30820  12.591   6.735   0.241 -0.1505  0.1889  0.0034
11967W        W30821   6.851   8.659   0.636 -0.0233  0.1949 -0.0323
11968W        W30822   2.370  17.640  14.030  0.2547  0.3051 -0.3036
11969W        W30823  13.111   6.229  12.631  0.0655  0.1550  0.1620
11970W        W30824  17.730  15.512   3.299  0.2946  0.0970 -0.1575
11971W        W30825  11.902  10.475  13.442 -0.0851  0.0633 -0.1561
11972W        W30826  17.066  15.949   2.196  0.1576  0.0659 -0.2348
11973W        W30827  13.821   7.813  11.233  0.0292 -0.0952  0.0545
11974W        W30828   8.238   5.281  11.877 -0.1954  0.2726 -0.0897
11975W        W30829  11.160  15.419  10.354  0.0757  0.1484  0.1798
11976W        W30830  10.191   1.481   2.327 -0.2422  0.2931  0.4421
11977W        W30831   1.265   9.353  14.722  0.0446 -0.1020 -0.3295
11978W        W30832   8.731   1.271  12.554  0.0279 -0.0211  0.0777
11979W        W30833  13.097   6.231   2.580  0.0875  0.1343  0.0984
11980W        W30834   2.210  11.212   1.603  0.1812  0.0927  0.2700
11981W        W30835   5.228   3.290   3.539  0.0680  0.1267 -0.1681
11982W        W30836   7.957  16.546  11.672  0.0983 -0.0397 -0.3516
11983W        W30837  10.124   4.253  11.899 -0.0391 -0.0385 -0.1064
11984W        W30838   3.333  13.486   0.382  0.0946  0.1180 -0.0435
11985W        W30839   1.287   6.337   3.220 -0.2333  0.0690  0.0077
11986W        W30840   6.904   8.717  11.016 -0.0355  0.0005 -0.2040
11987W        W30841   6.733   2.637  11.551  0.1625 -0.1210 -0.1720
11988W        W30842   6.416  16.364  12.558 -0.1002  0.0899 -0.0794
11989W        W30843   8.169  10.403   0.548  0.3471 -0.2623  0.4715
11990W        W30844   4.069  11.625   1.165  0.0487  0.1555 -0.0316
11991W        W30845  16.770   0.953   4.512  0.0169 -0.0192 -0.4209
11992W        W30846  15.091   2.751   1.398 -0.0825 -0.1774 -0.0117
11993W        W30847  15.614  14.399  14.759  0.2641 -0.0711 -0.2900
11994W        W30848   5.068  16.204   1.003 -0.1645 -0.1671 -0.1826
11995W        W30849  14.755   8.165   3.026  0.0079 -0.3087 -0.2729
11996W        W30850  14.375  13.276  15.177 -0.0886 -0.1261  0.5376
11997W        W30851  16.469   1.468  11.697  0.1965  0.0232 -0.1790
11998W        W30852  13.015  16.685  11.822 -0.1656  0.0815  0.0178
11999W        W30853   5.508   8.391  11.329 -0.0109  0.1314  0.1851
12000W        W30854   6.733  18.319  11.691  0.1659  0.0130  0.2383
12001W        W30855  17.835  14.852   0.926 -0.2592 -0.1343 -0.0763
12002W        W30856  16.703  17.477  10.897  0.2885 -0.1370 -0.2340
12003W        W30857   2.218   8.487   2.181 -0.2909 -0.1047 -0.0047
12004W        W30858  16.198  12.177   1.860  0.0895  0.1069 -0.2460
12005W        W30859   3.654  14.039   1.182  0.0824  0.1548  0.1203
12006W        W30860  18.116   7.211   3.369 -0.0686  0.1366 -0.3430
12007W        W30861  12.323   9.755   4.352  0.0035 -0.0073  0.0682
12008W        W30862   2.081   0.006  14.022 -0.0994 -0.1310 -0.2084
12009W        W30863  10.170   9.835   4.041  0.0324  0.2753 -0.0427
12010W        W30864  12.878  11.133  12.475 -0.2550  0.1163 -0.2126
12011W        W30865   8.236  14.711  12.258 -0.1539 -0.1964 -0.2688
12012W        W30866  13.613  15.642   1.609  0.0903 -0.1840  0.0617
12013W        W30867  11.447   7.895   4.113 -0.0508  0.1642  0.0277
12014W        W30868   6.313  13.643   0.989 -0.2036 -0.1019  0.0517
12015W        W30869   1.757  17.839   2.866 -0.0396  0.0940 -0.0921
12016W        W30870  11.587   8.145   1.969 -0.0706  0.0030  0.2833
12017W        W30871   4.358   1.176  13.448  0.1028  0.3917  0.2129
12018W        W30872  14.499  15.074   1.026  0.1653  0.1771 -0.0825
12019W        W30873   8.440   3.844   3.425  0.2316 -0.0962 -0.2482
12020W        W30874  13.436  17.352  13.169 -0.0220  0.1750  0.2938
12021W        W30875  18.189   9.211  13.808  0.0779  0.0890 -0.6405
12022W        W30876   8.179   1.693   4.634  0.1128  0.0190 -0.0772
12023W        W30877  14.753  16.655  14.894  0.1539 -0.0766 -0.0916
12024W        W30878   4.290  15.358   1.260  0.1985 -0.0090  0.2428
12025W        W30879   4.489   2.125  12.846 -0.3621 -0.2517 -0.0879
12026W        W30880   1.960  15.646   3.591  0.0099 -0.2254  0.0157
12027W        W30881   9.281   6.118  14.442 -0.2239 -0.1575 -0.1168
12028W        W30882  16.428   4.934   1.134  0.0070  0.0403 -0.2817
12029W        W30883  16.317  11.587   1.994 -0.2548 -0.1059 -0.1661
12030W        W30884   5.200  17.084  14.587 -0.2735 -0.0752 -0.0299
12031W        W30885   9.926  17.843  13.833  0.4174 -0.0502  0.0973
12032W        W30886  14.638   2.970  12.360 -0.0358 -0.0043  0.1864
12033W        W30887  10.136  11.043   1.907  0.2322  0.0602 -0.0909
12034W        W30888  15.399  11.686   3.301 -0.2502  0.1532  0.0427
12035W        W30889  12.717  14.280  11.742 -0.0068  0.0538  0.1913
12036W        W30890   9.989   6.762   2.717 -0.0022  0.1998  0.2145
12037W        W30891   7.393   3.644   0.229 -0.2590  0.3614  0.0241
12038W        W30892   1.108  16.404   1.218 -0.4833  0.0631 -0.0126
12039W        W30893  14.367   5.168  10.654 -0.0698 -0.2146  0.0382
12040W        W30894   1.150  16.102  11.043 -0.1579 -0.1044 -0.0938
12041W        W30895   3.885  12.640  12.402 -0.0089 -0.0374  0.0825
12042W        W30896   1.659   7.553   1.646 -0.1620 -0.0039  0.0194
12043W        W30897  17.579  12.669  14.694  0.2519  0.1641 -0.2702
12044W        W30898   2.957   0.916   4.866 -0.0050 -0.2149  0.3861
12045W        W30899  16.249  11.696  12.811  0.0957 -0.1102  0.0571
12046W        W30900  15.659   9.535   2.511  0.1701 -0.0756 -0.2134
12047W        W30901  18.494  14.683   2.170  0.1584 -0.1102 -0.0018
12048W        W30902   7.029   6.528   1.771 -0.2542  0.2323  0.1317
12049W        W30903  15.535   8.103   2.334 -0.1738  0.0077 -0.0655
12050W        W30904   0.379  11.358   0.665 -0.2799 -0.2895  0.2432
12051W        W30905   9.558  13.240  11.363 -0.1147  0.1956 -0.0512
12052W        W30906   8.037   6.860   1.334 -0.1624  0.0198  0.1180
12053W        W30907   5.276  15.663   5.472 -0.1984  0.1576 -0.2496
12054W        W30908   4.239   1.452  14.112 -0.1242 -0.1623  0.0728
12055W        W30909   1.650  10.773  13.726 -0.4461  0.1950 -0.0332
12056W        W30910   3.468   6.512   2.242 -0.1552  0.2953  0.1325
12057W        W30911   3.397   2.382   1.353 -0.0075  0.2790 -0.0383
12058W        W30912   3.537  16.844   2.232  0.0411 -0.0925 -0.0954
12059W        W30913  16.887  10.717  13.015 -0.0968  0.2027 -0.0329
12060W        W30914  11.377   0.056   2.798  0.5063 -0.0349 -0.0754
12061W        W30915   5.218  17.406   4.363  0.4600 -0.0242  0.2936
12062W        W30916   2.752   1.822  13.888  0.0125  0.0135  0.1504
12063W        W30917   0.447   1.005  12.642  0.4220 -0.2072 -0.0442
12064W        W30918   8.954   6.414  11.795  0.0356  0.0323 -0.2819
12065W        W30919   9.261  15.401   2.912  0.1191 -0.0646 -0.0742
12066W        W30920  11.069  18.013   1.299 -0.1123  0.1417  0.2749
12067W        W30921   9.583   6.023  14.873 -0.0269  0.0458  0.0175
12068W        W30922   1.621   9.502   2.421 -0.0258  0.1424 -0.0742
12069W        W30923  16.116   7.568  14.064 -0.1056 -0.0024  0.0570
12070W        W30924   8.724  12.424  11.709 -0.1754  0.0775  0.1578
12071W        W30925   5.287   5.082  13.574  0.2140  0.1775  0.0978
12072W        W30926  11.370  14.226   3.201 -0.0357  0.3538 -0.1231
12073W        W30927  10.416   6.993  12.627  0.1476 -0.2936  0.2087
12074W        W30928   0.784  12.461  12.669 -0.1169 -0.0302  0.0459
12075W        W30929  15.572   4.452  14.320  0.2253  0.1582  0.0061
12076W        W30930   6.850  11.139   1.494  0.0739 -0.1643 -0.0479
12077W        W30931  11.947  16.999  12.681  0.0776 -0.3124 -0.3345
12078W        W30932  17.356  17.746   1.729  0.2906 -0.1867 -0.0538
12079W        W30933  17.345  17.522  13.884 -0.0414  0.0293  0.1476
12080W        W30934  14.004   1.155   3.762 -0.0621 -0.2225  0.0061
12081W        W30935   4.835  18.338  14.541  0.0462 -0.2816 -0.0762
12082W        W30936  16.517  13.791   1.731 -0.0552 -0.1664 -0.1672
12083W        W30937   1.621  15.217   3.752 -0.0332  0.0902 -0.0439
12084W        W30938  14.544  14.365  11.496 -0.0789  0.2305  0.2467
12085W        W30939   3.835   9.513  13.737 -0.1193  0.1377 -0.0121
12086W        W30940  11.000   8.965   2.217 -0.0405 -0.0958 -0.4387
12087W        W30941  13.740  10.284   2.593 -0.1023  0.2548  0.2039
12088W        W30942  18.014  10.576  14.284 -0.1434  0.0940  0.2020
12089W        W30943   7.942  17.846   0.696 -0.2235 -0.3562 -0.1679
12090W        W30944   9.613   2.353  10.437 -0.1665  0.3153  0.2980
12091W        W30945  16.325   0.356   1.226  0.0113  0.1063  0.4552
12092W        W30946  13.051   2.949  14.574  0.3756  0.1825 -0.1890
12093W        W30947   0.723  15.594   0.814 -0.0382  0.1041  0.0659
12094W        W30948   3.511  12.683  13.341  0.2452  0.0102 -0.1786
12095W        W30949   8.888   1.568   1.724  0.0550 -0.0406  0.0913
12096W        W30950   8.113   2.358   2.985  0.1724  0.0788 -0.1814
12097W        W30951   7.807   4.702  12.811 -0.1603 -0.1002  0.3894
12098W        W30952   4.265  15.034   0.789 -0.0827  0.0494 -0.3548
12099W        W30953   0.266  18.472   0.258  0.0335 -0.0442 -0.0289
12100W        W30954  12.033  17.681  14.897  0.1185  0.1304  0.0621
12101W        W30955   2.528   3.964   1.086 -0.2174  0.1559 -0.0199
12102W        W30956   3.773   3.915   4.269  0.0672  0.1677 -0.1034
12103W        W30957  14.129  11.651  13.414 -0.0243  0.2285  0.0570
12104W        W30958  13.788   3.693   4.092 -0.0422  0.0228  0.0450
12105W        W30959  14.611   9.119  13.881  0.0606 -0.0874 -0.1296
12106W        W30960   3.635  13.800   0.056 -0.0114  0.0527  0.1425
12107W        W30961  13.033  12.464   0.481  0.1556 -0.1201 -0.0693
12108W        W30962   2.893   1.725   9.641  0.1971 -0.1260  0.1879
12109W        W30963   7.309   5.804   4.368  0.1500 -0.2173  0.0937
12110W        W30964  18.140  15.091  10.988 -0.0747  0.0594 -0.2245
12111W        W30965   1.617  16.909   2.169 -0.2486  0.3871 -0.1406
12112W        W30966   1.525  15.538   0.115  0.4308  0.0886 -0.3259
12113W        W30967   4.200   7.476   0.060  0.2017  0.2748 -0.0755
12114W        W30968  10.879  15.426  14.356  0.0262 -0.0913 -0.0467
12115W        W30969   2.307   9.633  12.662  0.2262 -0.5311 -0.0052
12116W        W30970  13.794   3.806  13.863  0.2294 -0.3227 -0.2837
12117W        W30971   2.285   4.962   2.194  0.0243 -0.0284  0.3392
12118W        W30972   9.671   2.075   2.777 -0.2711 -0.2977  0.0500
12119W        W30973   1.025  14.546  14.723  0.2277 -0.1690  0.0268
12120W        W30974   5.237  13.822  11.612  0.1280 -0.0779  0.2109
12121W        W30975  10.053  11.765   2.725 -0.0296  0.0445  0.1580
12122W        W30976  16.724   1.554   4.297  0.1038  0.4004 -0.0554
12123W        W30977   0.567   5.376   3.307  0.0979 -0.2565 -0.2757
12124W        W30978   4.880   1.341   3.930 -0.3347  0.1304 -0.2637
12125W        W30979   5.526  13.607   2.230 -0.0487 -0.3572  0.0623
12126W        W30980  14.935  13.063  14.919  0.2405 -0.0621 -0.2614
12127W        W30981   3.565  17.263   1.788  0.1046 -0.1155 -0.0895
12128W        W30982   7.790  10.037   3.665 -0.1154  0.0429 -0.1762
12129W        W30983   4.700   7.242   3.701 -0.0258  0.0712  0.2610
12130W        W30984  18.013  17.554  13.213 -0.2701  0.0718  0.1504
12131W        W30985   0.987  12.200   0.334 -0.3653  0.0039  0.0132
12132W        W30986  12.581   2.443   2.627  0.1025  0.0808  0.0363
12133W        W30987   8.397  17.798   0.090 -0.1362 -0.2893 -0.1840
12134W        W30988  18.043  11.893  10.967  0.0104 -0.0028 -0.0169
12135W        W30989   5.469  12.310   2.165 -0.1238  0.0620 -0.1191
12136W        W30990  16.573  15.038  10.600  0.0336 -0.0550  0.0736
12137W        W30991   4.272  17.280  14.430 -0.0560 -0.1276  0.0503
12138W        W30992  12.228   8.475   0.522  0.2427 -0.2550  0.3632
12139W        W30993  11.776   8.914  12.936  0.0166  0.3104  0.3806
12140W        W30994   1.670  11.354  12.845  0.3821  0.0894  0.2095
12141W        W30995  17.369   7.663   0.803 -0.0099  0.1342  0.0849
12142W        W30996   4.756  12.400   0.318  0.1055  0.0940  0.0971
12143W        W30997   8.086   0.216  13.778  0.0191 -0.1568 -0.0179
12144W        W30998   3.594   4.888  11.409 -0.2325  0.2952 -0.1135
12145W        W30999  17.071   4.963  13.020 -0.1800 -0.0516 -0.0173
12146W        W31000   5.549  17.162  11.439  0.0475  0.0791  0.2379
12147W        W31001  15.131   5.301   4.285 -0.2083 -0.2164  0.0140
12148W        W31002  15.387  12.311   1.308  0.1555  0.0541  0.0151
12149W        W31003   4.222  17.698  13.564  0.3503 -0.1777  0.0472
12150W        W31004   3.615   6.434  12.343 -0.0239 -0.0495 -0.2964
12151W        W31005   1.935   3.863  13.330  0.4287 -0.3443  0.3820
12152W        W31006   3.063   4.128   2.631  0.0677  0.4175 -0.0700
12153W        W31007  14.009  16.127   0.017  0.0589  0.3127 -0.1500
12154W        W31008   8.384   1.584   3.688  0.1431 -0.0175 -0.2405
12155W        W31009  10.955   6.261   4.374 -0.1269  0.1359 -0.1311
12156W        W31010  18.188   6.423   4.259  0.0363  0.1321 -0.1566
12157W        W31011  13.042  13.948  11.912 -0.1192  0.0766 -0.1033
12158W        W31012  14.281  14.594   1.188  0.1369 -0.1679  0.1194
12159W        W31013  10.566  16.083  13.353  0.0461  0.2624  0.3117
12160W        W31014  13.263   1.045   1.473 -0.0425 -0.0271 -0.3393
12161W        W31015  17.633  10.944   3.400 -0.0016  0.0491 -0.1886
12162W        W31016   3.164   1.907  10.746  0.0454 -0.1031 -0.1057
12163W        W31017  11.301  12.134   0.124  0.5068  0.2163 -0.3596
12164W        W31018  17.614   7.628   0.015  0.3141 -0.0282  0.1793
12165W        W31019   4.217  16.317   2.653  0.2106 -0.0233  0.1113
12166W        W31020  15.808   7.741   4.360  0.2987  0.0186 -0.0534
12167W        W31021   2.680  12.540  12.077  0.2223 -0.3074 -0.2582
12168W        W31022  16.253  15.544   0.754  0.0223  0.1775 -0.2061
12169W        W31023   7.867  12.222   2.376 -0.1342  0.0552 -0.2796
12170W        W31024   0.254  12.087  13.806  0.0955 -0.0118  0.3899
12171W        W31025   1.525   3.164   3.328 -0.2015 -0.0131  0.1283
12172W        W31026  14.505   1.815   4.395 -0.0313  0.1442  0.2491
12173W        W31027  13.471  17.126  12.367 -0.0401 -0.3781  0.1274
12174W        W31028   9.524   5.733   0.224 -0.0874  0.2191  0.2368
12175W        W31029   8.366   8.726  11.372 -0.2167  0.0705  0.0202
12176W        W31030  18.141   6.338  13.148  0.1919 -0.0662 -0.0471
12177W        W31031   6.333   3.377   3.841 -0.0637  0.3828  0.1222
12178W        W31032   5.289   7.390  11.607 -0.3421 -0.0342  0.0186
12179W        W31033  11.735   9.955  12.184 -0.3249 -0.1032  0.2564
12180W        W31034   3.696  17.274  11.691  0.3297  0.2199 -0.0406
12181W        W31035  16.194  11.625  11.825 -0.1309 -0.3017 -0.0534
12182W        W31036  18.109   2.108   2.488  0.2317  0.0488  0.2385
12183W        W31037  12.647  17.329   5.338  0.0146  0.0955 -0.0512
12184W        W31038  14.580  13.276   4.684 -0.2055 -0.2179 -0.0411
12185W        W31039   2.803   5.887   1.102  0.3089  0.2068 -0.4743
12186W        W31040  17.636  16.580   2.812  0.3839 -0.2707 -0.0435
12187W        W31041   0.794  16.221  11.923  0.2473 -0.0100 -0.0250
12188W        W31042  18.357  11.647  10.618 -0.1509 -0.0193 -0.0201
12189W        W31043   4.170  15.679  15.368  0.2939 -0.4071  0.0215
12190W        W31044  15.425   7.566  13.288  0.1464 -0.0305 -0.0468
12191W        W31045   5.681  13.025   4.626  0.0628 -0.1832 -0.0686
12192W        W31046   2.545   6.130   0.003  0.0017 -0.1875  0.3210
12193W        W31047   6.786  11.090   4.575  0.1635 -0.0384  0.1466
12194W        W31048   7.368   9.245   2.709  0.1462  0.3093  0.0614
12195W        W31049   2.315   3.994   3.323 -0.0754  0.2443  0.1878
12196W        W31050  10.292   1.188   5.454 -0.0107  0.0638  0.1698
12197W        W31051  11.515  14.024   1.249 -0.1336 -0.1231  0.2748
12198W        W31052   1.754   0.573  15.460  0.1078 -0.1047 -0.2335
12199W        W31053   3.805  17.098   0.231  0.0867  0.1246 -0.0709
12200W        W31054   0.735  16.757  15.355  0.0576  0.2566  0.0357
12201W        W31055   8.664  12.988   1.567  0.0273 -0.0029  0.0965
12202W        W31056   7.992  16.689  10.406  0.1651  0.1833  0.0672
12203W        W31057   7.096   8.775  13.176  0.1579 -0.1079  0.2103
12204W        W31058  18.032   7.477   0.184 -0.1829 -0.3727 -0.0221
12205W        W31059  11.259   7.672   1.940 -0.1838  0.0587 -0.0943
12206W        W31060  13.727   2.611   0.252 -0.0879  0.1360  0.1976
12207W        W31061  17.963   5.406   1.828  0.0919  0.0228  0.1970
12208W        W31062  11.704   7.147   0.285  0.1995 -0.0009 -0.4372
12209W        W31063  16.075   6.704  15.224 -0.2173 -0.0574  0.0791
12210W        W31064  10.405  16.034  14.288 -0.0455  0.2346  0.1932
12211W        W31065   7.433  10.569   3.027 -0.2675  0.0515  0.3437
12212W        W31066   9.281   7.748   3.061  0.0920 -0.1515  0.2188
12213W        W31067  17.104  11.982  13.219 -0.1837  0.1208 -0.0374
12214W        W31068   5.494  16.097   1.817  0.0919  0.0853  0.1805
12215W        W31069   3.456  17.236   0.830  0.0849 -0.2532 -0.0343
12216W        W31070  13.238   1.781   4.525  0.2546  0.0252 -0.1783
12217W        W31071  15.555  17.102  13.320 -0.2428 -0.1302  0.0225
12218W        W31072   7.948  10.868  11.874  0.2029 -0.1069 -0.1245
12219W        W31073   0.419   2.505   2.679  0.2098  0.0048  0.1448
12220W        W31074  17.161  17.115   2.992 -0.1609  0.1656 -0.0945
12221W        W31075   6.420   1.303  14.582  0.3115  0.2862 -0.2278
12222W        W31076   8.844  10.914  11.193  0.0792 -0.1091 -0.2461
12223W        W31077   9.016  18.165   3.209  0.2817 -0.0394 -0.1210
12224W        W31078   1.451  12.009  11.123  0.0789 -0.1695  0.1665
12225W        W31079  10.746   6.257   0.954  0.1055  0.0258 -0.3528
12226W        W31080  17.367   5.148   3.692  0.0496 -0.1414  0.0255
12227W        W31081   0.397   8.703   3.300  0.2200  0.0654  0.1029
12228W        W31082  14.808   2.645   4.154 -0.0618 -0.0123 -0.1953
12229W        W31083   9.358  18.088  13.098 -0.1314  0.2263  0.1319
12230W        W31084  15.104   9.058  13.099  0.2582 -0.3713 -0.1959
12231W        W31085  17.747   7.868   4.454  0.1976  0.2512 -0.0576
12232W        W31086   9.571   8.007  12.630 -0.5103  0.0782 -0.1721
12233W        W31087  15.810   3.728  11.705 -0.2412 -0.0238  0.2743
12234W        W31088   6.736   5.529   0.419 -0.1440  0.1554 -0.0333
12235W        W31089  17.210   0.327  13.605  0.1572  0.2632  0.1677
12236W        W31090   7.977  12.497   1.101  0.3745  0.0032  0.1268
12237W        W31091   5.424  11.722  12.588  0.0008 -0.0397 -0.0870
12238W        W31092  12.391  13.283  13.509 -0.1287 -0.1228 -0.1198
12239W        W31093   8.310   4.488  10.796 -0.2244  0.1019 -0.1887
12240W        W31094  17.631   8.746   1.976 -0.1203  0.4950 -0.0007
12241W        W31095  12.987  10.837   2.510 -0.0948 -0.2884  0.0441
12242W        W31096  18.016   6.870   5.544 -0.0380 -0.3511 -0.1589
12243W        W31097  10.058   5.164  12.627  0.0820 -0.2705 -0.0515
12244W        W31098  12.792   5.686  12.606 -0.0926  0.2701 -0.2451
12245W        W31099   1.208   9.845   2.650  0.0807  0.0377  0.1544
12246W        W31100   2.050  11.555  14.800 -0.0309  0.1931  0.0204
12247W        W31101   6.104   5.045   4.160  0.0888  0.0836  0.1906
12248W        W31102   9.520   4.001   2.346  0.2835 -0.1973  0.2607
12249W        W31103  12.477  17.776  12.568  0.0444  0.2166  0.0540
12250W        W31104  14.096  15.351  10.494  0.0730  0.1447 -0.1414
12251W        W31105   3.331   9.328   0.026 -0.0205  0.1952  0.0060
12252W        W31106  13.379  17.289  14.182  0.2102  0.0931 -0.1381
12253W        W31107   0.078   1.036  10.056 -0.0788 -0.0824 -0.1717
12254W        W31108  12.518  10.432   3.937 -0.2950 -0.3229  0.0618
12255W        W31109  14.953  11.389  11.368  0.0104 -0.2758  0.0820
12256W        W31110   1.715   5.656   2.212 -0.2664 -0.0506  0.1570
12257W        W31111   7.223  15.517   3.071  0.0153 -0.0433  0.2534
12258W        W31112   2.986   9.608   1.624 -0.2316  0.0156  0.4577
12259W        W31113  18.354  17.130   3.463 -0.1464  0.1445 -0.0449
12260W        W31114  16.943   1.418  13.135 -0.2687  0.2851 -0.0640
12261W        W31115   0.659   0.911  13.112 -0.0088 -0.0380 -0.0494
12262W        W31116  12.318   1.305   4.289 -0.0998  0.2629 -0.0177
12263W        W31117   4.256   9.040   3.130  0.2399 -0.1455  0.0782
12264W        W31118   5.354   8.517   2.316  0.1686  0.1822  0.0547
12265W        W31119  15.220  12.701  15.065 -0.1970  0.2969  0.0616
12266W        W31120   0.393   0.551  10.821  0.1983 -0.0160 -0.1263
12267W        W31121  12.743   7.304   4.215  0.0984  0.4944  0.1324
12268W        W31122   9.126   8.709  13.323 -0.0768 -0.1236  0.0072
12269W        W31123   8.266  12.304  13.295 -0.1620  0.2579  0.1727
12270W        W31124  16.010  18.342   4.153  0.2115 -0.0257  0.1687
12271W        W31125   6.676   7.303   2.250 -0.1339  0.0445  0.0886
12272W        W31126   7.628  16.360   0.630 -0.5185  0.2427 -0.0668
12273W        W31127   3.433   0.628   1.644 -0.2056  0.0224 -0.0247
12274W        W31128  14.788   0.209  12.293 -0.3800 -0.1697 -0.1140
12275W        W31129   7.063  15.580  13.247  0.1198 -0.1609 -0.0281
12276W        W31130  11.090  12.721  14.766  0.2171 -0.1688  0.1977
12277W        W31131   6.366   8.828   0.699 -0.0307  0.0046  0.0865
12278W        W31132   6.553   0.589  12.599 -0.5125  0.2482  0.1174
12279W        W31133  10.288   3.951  13.673 -0.0388 -0.1686 -0.5086
12280W        W31134  13.396   5.364   2.428 -0.3547  0.2466 -0.0999
12281W        W31135   9.627  17.623   1.386 -0.1263  0.0669 -0.2389
12282W        W31136   7.326   6.116   1.281  0.1736 -0.1797 -0.0667
12283W        W31137   2.116   0.084  11.240 -0.2232 -0.2514  0.2519
12284W        W31138   1.461   9.882   3.191  0.1813 -0.1236 -0.0310
12285W        W31139  15.487   6.361   5.408  0.1164  0.2881  0.0054
12286W        W31140   9.936   6.069  13.693 -0.0345  0.2767  0.0481
12287W        W31141   9.597   4.420  11.806 -0.0200 -0.3240  0.2090
12288W        W31142  15.764   2.275  11.925  0.0590  0.3440  0.1217
12289W        W31143   5.138   4.694  14.333 -0.0910 -0.0982  0.1412
12290W        W31144   2.470  18.398   4.594  0.1834  0.0605 -0.0638
12291W        W31145   9.816  12.245   1.865 -0.4669  0.0803 -0.2207
12292W        W31146  13.699  14.094  14.170  0.2156  0.1631  0.0601
12293W        W31147   5.571   6.490   2.534 -0.0608 -0.1530  0.1755
12294W        W31148  11.460   7.688  12.347  0.3159 -0.1952  0.1734
12295W        W31149  12.752   7.707   1.581  0.0564  0.2046 -0.1297
12296W        W31150   5.563  18.556   4.240  0.1822  0.1665 -0.0417
12297W        W31151  18.013   1.640  11.934  0.0499  0.1300  0.1924
12298W        W31152   3.273  11.829  12.899  0.1312 -0.1542 -0.0986
12299W        W31153  16.102   2.271   3.373  0.1029 -0.0135 -0.0544
12300W        W31154  13.366  15.127   0.293 -0.2108  0.2456 -0.0905
12301W        W31155  14.996  11.279  14.825  0.1526  0.0180 -0.1969
12302W        W31156  15.585   3.354  14.399 -0.0282  0.1279 -0.1870
12303W        W31157  13.611   4.100  13.477  0.0379  0.1101 -0.1568
12304W        W31158   3.491   7.988   0.258  0.1607 -0.1009 -0.1988
12305W        W31159  16.748   2.885  14.378 -0.0299 -0.2313 -0.3022
12306W        W31160   0.180  10.083   2.704  0.1432 -0.0383 -0.2081
12307W        W31161   4.758  10.461   0.508 -0.1139  0.0668  0.0531
12308W        W31162  15.012   9.875  12.952 -0.0572 -0.3809  0.0667
12309W        W31163   0.159  14.348   3.272  0.0580 -0.2323 -0.2214
12310W        W31164   7.218  12.191   3.467  0.4964 -0.2439 -0.1491
12311W        W31165   2.151  10.617  13.678  0.0756  0.0340  0.0540
12312W        W31166   3.879   9.965   4.155  0.1589 -0.0095  0.0967
12313W        W31167  11.855  13.157   2.337 -0.0447 -0.1829  0.1427
12314W        W31168  13.395   4.816  11.630 -0.3143  0.1198  0.0467
12315W        W31169   0.861  15.024  11.454 -0.2710 -0.0469  0.1197
12316W        W31170  11.768   5.771   0.031 -0.0146 -0.1673 -0.0786
12317W        W31171   2.772  12.673  11.120  0.2205 -0.2055  0.0668
12318W        W31172  13.113  17.180   5.076 -0.1777  0.2015 -0.0848
12319W        W31173   8.096  12.819   0.701 -0.0155 -0.2859 -0.4691
12320W        W31174   1.902   2.550  14.746 -0.0718  0.2313 -0.1983
12321W        W31175   5.746  17.582   3.470 -0.2278 -0.0207  0.3866
12322W        W31176  17.115   7.822  11.937 -0.1035  0.0309 -0.1692
12323W        W31177   8.420   0.326  10.066  0.0578 -0.1818 -0.2923
12324W        W31178   2.504   8.790  13.598 -0.3769 -0.0450 -0.0944
12325W        W31179   6.090   9.631  13.299 -0.2854 -0.1473 -0.0163
12326W        W31180  13.043  14.282   0.050  0.0320 -0.1181  0.4066
12327W        W31181   4.175  11.795  11.432 -0.0832 -0.0339 -0.0583
12328W        W31182   4.209   9.851  13.927  0.0033  0.0822  0.0978
12329W        W31183   5.579   2.370   2.076 -0.0626 -0.0006  0.3173
12330W        W31184   7.762   9.274   3.115 -0.0386  0.0990  0.2613
12331W        W31185   0.135  12.436   3.935  0.2955  0.1494  0.1288
12332W        W31186   0.697  16.450   3.815 -0.0363  0.0669  0.0590
12333W        W31187   6.676   2.520   1.042 -0.1731  0.1572 -0.0139
12334W        W31188  15.121   0.655   0.665 -0.0234  0.1973  0.0556
12335W        W31189   1.421   2.698   0.662 -0.1485  0.1183 -0.1207
12336W        W31190   0.329  14.902  15.240  0.2010 -0.1575  0.0123
12337W        W31191   8.639   7.710   3.566 -0.0034  0.2589 -0.5040
12338W        W31192  13.163   1.505   4.927  0.0380 -0.0473  0.1687
12339W        W31193  11.351  13.554  11.822 -0.0338 -0.4302 -0.1574
12340W        W31194  18.060   1.080   2.003  0.0450  0.1062 -0.0375
12341W        W31195  16.799   8.924   2.509 -0.1304  0.0367 -0.2642
12342W        W31196   6.756  16.318  12.168  0.0868  0.0982  0.2869
12343W        W31197   9.865   6.410  13.995  0.0896 -0.0381 -0.1076
12344W        W31198   1.765   4.435   1.135 -0.1371  0.0611  0.0493
12345W        W31199  16.892   2.938   0.867  0.2459 -0.1602 -0.0571
12346W        W31200   9.889   8.290  12.416 -0.0334 -0.1834 -0.1575
12347W        W31201  18.488   9.917  13.617 -0.1224 -0.2628  0.2064
12348W        W31202   2.707  10.428  11.621  0.0647 -0.1274 -0.1389
12349W        W31203   6.372  17.703   1.719  0.2044 -0.1562 -0.1088
12350W        W31204  12.473  14.234   1.183  0.1500 -0.1969 -0.4024
12351W        W31205  17.283   7.264  15.434  0.0925  0.0235  0.0391
12352W        W31206   9.679  14.136  13.152 -0.0329 -0.3577 -0.3165
12353W        W31207   7.341   8.295  14.328 -0.3246 -0.2170 -0.0819
12354W        W31208   3.070   2.507  13.408 -0.2932 -0.2362  0.1820
12355W        W31209  12.177   3.732   2.967 -0.0134 -0.0464 -0.3400
12356W        W31210  14.140   4.191  13.685 -0.1649 -0.0062  0.2158
12357W        W31211  11.568   0.208  11.996  0.1393 -0.0167 -0.2617
12358W        W31212   9.289  12.703   1.064 -0.2641  0.0054 -0.0621
12359W        W31213   2.189   5.912   2.019 -0.1933  0.1104  0.0872
12360W        W31214   8.720   6.247   4.347 -0.1112 -0.2029 -0.0691
12361W        W31215   6.254  16.593  13.031 -0.3276  0.2254 -0.2690
12362W        W31216  17.276   1.926   0.803 -0.0306 -0.3800  0.1580
12363W        W31217  17.345  14.309  13.800  0.0568 -0.0265  0.3865
12364W        W31218  12.703  16.235  10.303  0.0636 -0.0993  0.0728
12365W        W31219   5.276   3.596  13.843 -0.0306 -0.2435  0.0115
12366W        W31220   4.509   0.768  14.708 -0.1007  0.1987 -0.2232
12367W        W31221   3.804   4.986   3.213 -0.1357 -0.2382 -0.1002
12368W        W31222   3.162   8.796   2.914  0.0425 -0.4039  0.0692
12369W        W31223  18.189   9.359  12.437  0.1012 -0.1748  0.0001
12370W        W31224  16.499   6.394   2.154  0.0714  0.2563  0.3117
12371W        W31225   9.134   9.453   0.814  0.0996 -0.3033 -0.1402
12372W        W31226  16.806   8.456  14.760 -0.0293  0.0018 -0.0369
12373W        W31227   5.008   8.272  13.713 -0.0544  0.0721  0.1394
12374W        W31228   2.537   6.403   2.312  0.2306 -0.0103 -0.2318
12375W        W31229   5.287   5.678   0.372  0.0945 -0.1648 -0.0627
12376W        W31230   4.177   7.953   0.825  0.0991 -0.2095  0.0404
12377W        W31231  18.249  15.480  10.068  0.1557 -0.2603 -0.1216
12378W        W31232  13.516   5.415   1.201 -0.2052 -0.1487  0.0588
12379W        W31233  14.147   1.620  13.150 -0.2129 -0.1160 -0.0755
12380W        W31234  11.133   2.734  14.495  0.0719 -0.0460 -0.0268
12381W        W31235  16.081   6.111  12.940 -0.1608  0.3094 -0.0476
12382W        W31236   3.425   3.452  15.067  0.1458 -0.1377  0.0191
12383W        W31237  16.750  15.965  14.985 -0.0818  0.1371 -0.2057
12384W        W31238   6.405   0.324   3.798  0.4363  0.0530 -0.1906
12385W        W31239  10.404   5.148  10.658 -0.0646 -0.3569  0.0206
12386W        W31240  13.648  10.163   1.552 -0.0540  0.2194  0.1615
12387W        W31241   7.573  14.211   3.064 -0.0252 -0.0227  0.0078
12388W        W31242  13.518  14.021  11.163 -0.1851 -0.0341  0.0079
12389W        W31243  12.673  15.937  13.706  0.0867  0.0991  0.0285
12390W        W31244  15.874   9.441  12.948 -0.0727  0.1219 -0.1400
12391W        W31245   6.742   1.919   4.591  0.0564 -0.0914  0.0962
12392W        W31246   0.246   8.708  11.333 -0.4515 -0.1334 -0.1326
12393W        W31247  10.790  16.027  11.437 -0.2209  0.2974  0.1252
12394W        W31248  18.218   1.633  14.458 -0.2072 -0.3175 -0.1111
12395W        W31249   0.507   8.348   2.937 -0.2398  0.1021  0.0873
12396W        W31250   6.999  15.382   1.167  0.2623  0.0859  0.0174
12397W        W31251   6.224  11.289   2.651 -0.2553  0.0274  0.0869
12398W        W31252   4.728   9.849  13.778 -0.0915 -0.0662  0.5534
12399W        W31253  14.898  10.535   0.120  0.1724 -0.2679  0.0332
12400W        W31254   7.339   4.626   2.951 -0.3254  0.0511  0.2410
12401W        W31255   0.159   6.837  15.072  0.1575  0.1522 -0.1274
12402W        W31256   1.247  10.974   3.081 -0.2341  0.0680 -0.3965
12403W        W31257   0.376  14.436   0.003  0.3468  0.1275 -0.0415
12404W        W31258   4.708   2.598   2.003 -0.2296  0.4035  0.2932
12405W        W31259   4.718   4.858  14.628  0.1475 -0.0141 -0.2281
12406W        W31260  11.855   4.090   4.052  0.0771  0.3296  0.0945
12407W        W31261   9.506  10.276  12.590 -0.3364  0.1844 -0.1516
12408W        W31262   6.495   1.225  11.888  0.1125 -0.1574 -0.2117
12409W        W31263  10.135   7.455   4.054 -0.0462  0.2204  0.0958
12410W        W31264  15.470  12.534  14.608  0.2150  0.3465 -0.0432
12411W        W31265  12.879   9.964   5.666 -0.1160  0.0109  0.2618
12412W        W31266   7.053   3.092  11.634  0.1175 -0.0585  0.1813
12413W        W31267   6.021  15.860   3.264 -0.3372 -0.0765 -0.0304
12414W        W31268   8.891  13.195   4.334  0.2840  0.2383 -0.3027
12415W        W31269   4.404   4.937  12.970  0.2843  0.0576  0.0809
12416W        W31270   3.969  15.822   1.436 -0.1631 -0.2824  0.0552
12417W        W31271  18.308  18.134  14.769 -0.2364  0.1408  0.1408
12418W        W31272   3.085   3.492   0.326 -0.1392  0.1999 -0.0040
12419W        W31273  13.348  12.624   3.246 -0.3346  0.2161  0.0043
12420W        W31274  16.525  11.164   1.783  0.2079  0.0202 -0.2502
12421W        W31275  17.148   6.426   1.331  0.0295  0.0450  0.0484
12422W        W31276  17.457   1.405   4.735 -0.0228 -0.1154 -0.0697
12423W        W31277  10.984   0.679   2.125 -0.2757  0.1349  0.1165
12424W        W31278   8.966   6.534  15.265  0.1269  0.6078  0.4133
12425W        W31279  18.062   0.598   1.716  0.1050 -0.1114 -0.0625
12426W        W31280   5.499  13.984   4.482  0.3683 -0.1020 -0.0662
12427W        W31281   2.016   0.683  11.228  0.0081  0.1168  0.0117
12428W        W31282   8.860  11.666   1.631 -0.1608  0.2601 -0.1705
12429W        W31283  18.445   0.293  12.952 -0.1364 -0.0398 -0.1109
12430W        W31284   1.740  18.322   0.300 -0.1738  0.1258 -0.4113
12431W        W31285   8.872   1.083   3.848 -0.0078  0.2105 -0.0126
12432W        W31286   8.472   1.567  15.036 -0.1928  0.1807 -0.1786
12433W        W31287   9.660  11.398  15.139 -0.3302  0.4319  0.3563
12434W        W31288  12.471  12.372  12.198  0.2784  0.1775 -0.1933
12435W        W31289  11.663  14.794   2.183 -0.0968 -0.3081  0.0201
12436W        W31290  12.680   3.967   1.999  0.0557 -0.1371 -0.0585
12437W        W31291  11.733  13.294  12.882  0.0887  0.0322 -0.0237
12438W        W31292   7.486  11.760   3.515 -0.2391  0.0172 -0.0395
12439W        W31293   8.170   4.356  12.062 -0.1963 -0.2144 -0.1375
12440W        W31294   5.766   9.363  12.413 -0.1240  0.3040  0.1052
12441W        W31295   8.848   1.279  13.052  0.0027  0.1676  0.2155
12442W        W31296  15.139   2.655  14.366  0.1360 -0.0506  0.3072
12443W        W31297   4.394   2.998   1.174 -0.0892  0.0277 -0.3949
12444W        W31298   6.849   7.027   1.200  0.0773  0.0469 -0.1816
12445W        W31299  12.286  12.368  15.418  0.2299  0.0463 -0.1743
12446W        W31300  10.429   0.305  11.322 -0.0066 -0.1468 -0.0084
12447W        W31301  14.441   1.040   2.771  0.0601  0.0159 -0.0081
12448W        W31302   8.511   3.684   2.960 -0.0600  0.1038  0.1675
12449W        W31303  10.441   6.868  14.018 -0.1143 -0.0128 -0.4457
12450W        W31304   1.756   5.032  14.750 -0.4106  0.1027 -0.1037
12451W        W31305  15.204   5.676  13.515 -0.2292  0.1176  0.1629
12452W        W31306   5.887  14.463   2.610  0.0260 -0.1583  0.0120
12453W        W31307  12.325   4.633  13.165 -0.1138  0.0163 -0.1128
12454W        W31308   9.284   8.978  13.933  0.1816 -0.1917  0.2861
12455W        W31309  15.070   4.905   2.012 -0.0375 -0.2694 -0.1577
12456W        W31310   5.513   3.338  12.077  0.0029 -0.0814 -0.1503
12457W        W31311   9.453   8.657   5.575 -0.0261  0.0711  0.1191
12458W        W31312   2.888   2.392   1.039  0.1030  0.1481 -0.2607
12459W        W31313  10.921   8.109  12.157 -0.1540  0.1342 -0.2393
12460W        W31314  12.429   6.031   3.222 -0.3920  0.1568 -0.0157
12461W        W31315   1.998   7.063   0.073 -0.0668  0.0754  0.3602
12462W        W31316   8.657  17.669  14.371 -0.3442  0.0723  0.1883
12463W        W31317   1.447   4.605  11.945 -0.0862  0.2494 -0.0220
12464W        W31318   2.483  17.120   0.578 -0.0231 -0.0090 -0.1098
12465W        W31319   4.482  13.191  10.991  0.1344  0.1696 -0.0233
12466W        W31320  14.321   2.919   2.016  0.2362  0.1056 -0.0589
12467W        W31321  10.301   7.955   4.027 -0.3416 -0.1111  0.3362
12468W        W31322  14.072   5.168   1.906 -0.1082  0.3603 -0.0417
12469W        W31323   3.769  17.938  12.164 -0.3135 -0.1829 -0.1349
12470W        W31324  15.510   2.036  12.341 -0.1250 -0.0441  0.1880
12471W        W31325  16.208   3.313   0.142  0.3054  0.2321 -0.0950
12472W        W31326  17.084  15.247  13.848  0.2292 -0.0924  0.1522
12473W        W31327  18.255   0.709  12.669 -0.4228  0.3164  0.0392
12474W        W31328  14.524  11.031   1.858 -0.0355 -0.4622  0.2976
12475W        W31329   2.805   1.662  14.384  0.0646  0.2283 -0.0305
12476W        W31330   0.855  14.377  11.029 -0.1324  0.0570 -0.1441
12477W        W31331   6.559   4.554  12.620 -0.0275  0.1724 -0.0569
12478W        W31332   2.901   1.122  14.528 -0.2288 -0.0512 -0.0812
12479W        W31333   7.042   0.206  11.078  0.0581 -0.5999  0.0902
12480W        W31334   2.229  15.736  14.971 -0.1218 -0.0650  0.1943
12481W        W31335   9.567   6.856   2.462  0.1247  0.0555 -0.0642
12482W        W31336   1.218   2.039  13.498 -0.2976  0.1723 -0.0186
12483W        W31337  17.695  15.139  14.931 -0.5808 -0.0021  0.0724
12484W        W31338   3.286  14.407   4.308  0.0175  0.1175 -0.0434
12485W        W31339  12.142  10.831   3.530  0.0273 -0.1093  0.1748
12486W        W31340  18.519  16.937   4.393 -0.3109  0.0388  0.1087
12487W        W31341  12.354   1.155   1.073  0.0168  0.0489 -0.2582
12488W        W31342   3.831   2.507   4.413 -0.0405  0.0039  0.0268
12489W        W31343  16.775  13.231  14.615  0.1785 -0.0831  0.0230
12490W        W31344  14.572  13.762   5.816  0.1654 -0.0343  0.0828
12491W        W31345  14.880  12.257   2.470 -0.0108  0.1420 -0.1344
12492W        W31346   9.363  11.846   3.325  0.1153  0.1330 -0.3625
12493W        W31347   7.322   8.065  12.546  0.5275 -0.0674  0.1333
12494W        W31348  13.002   6.364   0.385  0.1426 -0.3976 -0.2230
12495W        W31349  14.225   8.594  13.304  0.0203 -0.0786  0.1984
12496W        W31350   3.786  13.144   4.461 -0.3989 -0.0141  0.1144
12497W        W31351   2.760   9.739   2.119 -0.0476 -0.0223  0.0868
12498W        W31352  14.447   3.455  12.460 -0.2555 -0.0132  0.2267
12499W        W31353  17.079   7.003  13.707  0.0085 -0.1616  0.1779
12500W        W31354   4.775   8.661   3.522  0.0171  0.2129  0.3490
12501W        W31355  11.408   6.201   3.341  0.1721 -0.1084 -0.0963
12502W        W31356  10.876  14.499   4.000  0.1693  0.0091 -0.2106
12503W        W31357  16.944   7.854   1.072 -0.2194 -0.0572 -0.0841
12504W        W31358   4.387   0.503   1.418 -0.3438  0.3401 -0.4056
12505W        W31359   0.731  10.372   3.791  0.1772  0.2484  0.3138
12506W        W31360  13.811   0.865  14.413  0.1001 -0.1303 -0.0915
12507W        W31361   3.393  13.344  12.193 -0.2659  0.1692  0.0684
12508W        W31362   1.823   4.978   1.291  0.0057 -0.1033  0.0507
12509W        W31363   7.805  14.783  12.497 -0.2701 -0.3200 -0.1024
12510W        W31364  12.410   3.092  15.011  0.2359  0.0571  0.2798
12511W        W31365   0.809  12.840  14.583 -0.0791 -0.2657  0.2558
12512W        W31366   7.031   3.948  15.438 -0.1347  0.0930 -0.0404
12513W        W31367   9.749  16.594  15.306  0.3988 -0.0665  0.1427
12514W        W31368  12.645  11.017   1.260 -0.2893 -0.1477  0.1281
12515W        W31369   5.275  10.917  13.126 -0.0202 -0.0941 -0.1803
12516W        W31370  17.629   0.893  14.513 -0.0158 -0.2621  0.2309
12517W        W31371  14.265  14.244   0.880  0.1012 -0.2684 -0.1608
12518W        W31372   2.795   6.166   3.236  0.0516 -0.0882  0.0212
12519W        W31373   4.278  15.821   0.417 -0.0186 -0.0999 -0.1050
12520W        W31374   2.228  15.297  10.751  0.1333  0.1503 -0.2078
12521W        W31375  13.295   3.445  12.359 -0.0358 -0.3348 -0.1661
12522W        W31376  13.282   3.204  13.241 -0.3262 -0.1814 -0.0802
12523W        W31377  12.421  15.738  13.353  0.3381  0.4141 -0.0252
12524W        W31378   7.625  17.977   3.464 -0.0480  0.0254  0.0139
12525W        W31379   3.299   3.818   2.243 -0.2491 -0.1374  0.2320
12526W        W31380  17.871  14.901  13.200  0.0731  0.2265 -0.1128
12527W        W31381  16.668  17.855  12.643 -0.1286  0.0560  0.3211
12528W        W31382   0.267   9.631   3.562 -0.0272  0.1944  0.0479
12529W        W31383  13.198  14.671   3.796 -0.0974 -0.0229 -0.2265
12530W        W31384   8.149   3.831  15.091 -0.1591 -0.4572  0.2399
12531W        W31385   6.134   4.109  11.195  0.0641 -0.1518 -0.0220
12532W        W31386   3.174  15.979   0.003 -0.0066 -0.2098  0.0900
12533W        W31387   7.532   3.090   4.077  0.2148  0.2591 -0.0746
12534W        W31388   5.057  14.360   1.491  0.1082 -0.2130 -0.1542
12535W        W31389  12.823  14.518   0.981 -0.1924  0.2355 -0.0407
12536W        W31390   0.037   1.901  15.262  0.0436  0.2293  0.2520
12537W        W31391   8.037   1.411   2.707 -0.2141 -0.0209 -0.0052
12538W        W31392  11.989  16.695   5.355  0.2098 -0.2829  0.1050
12539W        W31393  15.990   3.187  14.106  0.4589 -0.1088 -0.3117
12540W        W31394  14.368   5.551   1.886  0.0649  0.0056 -0.0251
12541W        W31395   9.081   4.134   1.681  0.1313  0.1129 -0.1403
12542W        W31396  14.313   5.882   2.665  0.0003 -0.0714  0.4716
12543W        W31397   8.943  12.651   4.492  0.1862  0.1720  0.1863
12544W        W31398  17.537  10.566   3.718  0.0531 -0.1145  0.0524
12545W        W31399   0.106  16.125   3.005 -0.0660  0.0686  0.1271
12546W        W31400  17.370   0.887   3.357 -0.0626 -0.2220 -0.0722
12547W        W31401   0.028  15.874  12.225 -0.2656 -0.1365  0.2601
12548W        W31402  15.041   3.196  14.267  0.3707  0.2049  0.0686
12549W        W31403  10.773  16.701  12.514  0.1472 -0.0522  0.2569
12550W        W31404   9.418  15.187  14.824  0.1172  0.4609  0.1807
12551W        W31405  15.627  13.263   1.535  0.0716 -0.1618  0.2399
12552W        W31406   1.276  17.788   4.236  0.2761  0.0524 -0.1332
12553W        W31407  16.661  11.691  12.576  0.0612  0.0632 -0.0436
12554W        W31408   1.974  10.406  14.775  0.2638  0.1982 -0.3189
12555W        W31409  12.729   6.026   4.146 -0.0955 -0.2941 -0.0723
12556W        W31410   9.636   3.606   0.583  0.2384 -0.4979 -0.3253
12557W        W31411  18.394  17.620   1.571  0.2885  0.2511 -0.2049
12558W        W31412  10.744  11.940  12.316 -0.0881  0.4414  0.0664
12559W        W31413  16.258  11.917   2.857 -0.1757 -0.0416 -0.2937
12560W        W31414   6.103  17.498  14.703 -0.1207 -0.0260 -0.0576
12561W        W31415   2.816  15.441  14.010  0.0913  0.2734  0.2695
12562W        W31416  18.022   0.651   0.559 -0.2225 -0.2266  0.0630
12563W        W31417  16.899   5.043  11.851  0.0747 -0.0657 -0.1349
12564W        W31418   8.963   3.347   3.971 -0.1107 -0.1413  0.0112
12565W        W31419   3.287  13.780  12.474  0.0705  0.0580 -0.0785
12566W        W31420  11.423  12.629   4.024 -0.0680 -0.0165  0.2697
12567W        W31421  11.173  14.921  11.573  0.2481 -0.0172  0.3823
12568W        W31422  13.242  16.834   2.385 -0.2349 -0.0492  0.1270
12569W        W31423  18.549   6.942  14.030 -0.2294 -0.2109  0.1445
12570W        W31424   2.340   1.920   1.662  0.0468  0.0981 -0.1316
12571W        W31425   9.585  18.219   1.203 -0.2576 -0.1927 -0.2297
12572W        W31426   3.000  10.821   0.641  0.0160  0.1542  0.0337
12573W        W31427   8.524  15.306  12.335  0.0615 -0.0524  0.1047
12574W        W31428  11.459   9.708  15.374 -0.0779  0.0174  0.0100
12575W        W31429  16.616   4.046   3.148 -0.1844 -0.0031 -0.0061
12576W        W31430  11.139  17.204   0.537  0.3499  0.0326 -0.2831
12577W        W31431  11.380  16.476   4.096  0.1030  0.1049 -0.2053
12578W        W31432   9.946  18.063   1.484  0.0374 -0.0786 -0.2867
12579W        W31433  14.627   4.300  11.824 -0.1048  0.1270 -0.0454
12580W        W31434  17.373   6.289   2.089  0.1630 -0.0286 -0.3322
12581W        W31435   8.532   5.281  15.105  0.1432  0.3171 -0.1450
12582W        W31436  12.617  11.015   1.762  0.0676  0.0824  0.2787
12583W        W31437   3.597   0.967  12.795 -0.0029 -0.1721 -0.1352
12584W        W31438  17.896  10.513  15.196 -0.2873 -0.0592  0.3567
12585W        W31439  16.185   8.148   2.653  0.0818  0.1023  0.0105
12586W        W31440  14.826  13.529  15.197  0.0659 -0.1151  0.0248
12587W        W31441   9.491   8.160   1.093  0.0359 -0.2114 -0.3128
12588W        W31442   9.475  13.445  11.832 -0.3757 -0.1910 -0.1581
12589W        W31443  15.757  10.527   0.229 -0.1265 -0.1653 -0.1048
12590W        W31444  18.447  14.588   2.656  0.1295 -0.2299 -0.2445
12591W        W31445   3.205   6.670   1.214  0.1878  0.2593 -0.0510
12592W        W31446   3.718  13.548  12.510 -0.1450 -0.0211  0.0810
12593W        W31447   9.004   1.263   0.776  0.1157  0.0218  0.0902
12594W        W31448   0.547   2.077   0.172 -0.0542 -0.1660 -0.0341
12595W        W31449  12.359  12.098   0.397 -0.0842  0.0338  0.1567
12596W        W31450  11.329   2.643  13.175  0.1690  0.2151 -0.0155
12597W        W31451  10.424   4.238  15.406 -0.1660 -0.3063 -0.2548
12598W        W31452  17.988   9.476   1.941  0.0830 -0.2024 -0.1553
12599W        W31453   7.487  15.392   4.130 -0.1330 -0.0143 -0.1899
12600W        W31454   3.490  14.719   4.912 -0.0291  0.2025 -0.1350
12601W        W31455  10.592   3.287   1.055  0.2022  0.2967  0.1596
12602W        W31456  14.833  14.154  11.035 -0.2254 -0.0068 -0.3306
12603W        W31457   1.562  18.114   1.552 -0.4184 -0.1498  0.4808
12604W        W31458   3.882  17.911   3.125  0.0173 -0.0231 -0.3210
12605W        W31459   7.220  12.052  13.509  0.0097  0.0111 -0.2248
12606W        W31460  15.774   6.285   3.501 -0.2143 -0.1751 -0.0014
12607W        W31461  11.238  18.560   0.214  0.2168 -0.1380  0.0019
12608W        W31462  13.006  11.638   4.244  0.0010  0.1070 -0.1251
12609W        W31463  14.777   1.120  13.295 -0.1798  0.2532  0.4012
12610W        W31464  17.041   4.279   0.292 -0.0810  0.1218  0.3400
12611W        W31465   3.542  13.038  12.618 -0.3440  0.2944  0.0647
12612W        W31466  15.674  18.498  14.507  0.1360  0.0963 -0.0860
12613W        W31467  15.624   3.731   4.219 -0.0145  0.2526 -0.0571
12614W        W31468  15.989  16.131  11.971  0.2506 -0.1376 -0.1151
12615W        W31469   3.263  13.364  13.850  0.1509 -0.2609 -0.0061
12616W        W31470  10.139   5.449  15.275  0.2348  0.0697  0.0627
12617W        W31471  16.895   9.213  11.456 -0.0410 -0.1229 -0.0445
12618W        W31472   4.403   4.170   0.007  0.4566 -0.3361 -0.0989
12619W        W31473  10.134   0.401   0.213  0.1823  0.2089 -0.0873
12620W        W31474  17.470  13.532   0.954 -0.2414 -0.3475 -0.0139
12621W        W31475   1.004  13.612   1.101 -0.1927 -0.1417  0.1827
12622W        W31476  11.709   2.045   0.035  0.1155  0.0488  0.0631
12623W        W31477  11.204   0.227   2.348 -0.2486 -0.0356  0.2561
12624W        W31478  13.765   6.529   3.125  0.0909  0.0656 -0.1902
12625W        W31479   9.526   2.019  11.805  0.1168 -0.1403  0.3604
12626W        W31480  16.351   0.732  13.316  0.0110  0.2362 -0.2970
12627W        W31481  16.768   5.503  13.549  0.2414  0.1275  0.0023
12628W        W31482  14.285   6.280  11.651  0.0100  0.1266  0.0948
12629W        W31483   9.297   3.208   3.549 -0.0896 -0.2115  0.1191
12630W        W31484   8.730   5.823  11.640 -0.2671  0.0100  0.0615
12631W        W31485   7.634  14.706  15.130 -0.0203  0.0392  0.0688
12632W        W31486  13.330   8.386   0.490 -0.0972  0.1206 -0.2371
12633W        W31487  14.632   2.308  12.932  0.0796 -0.1406 -0.0772
12634W        W31488   0.974   5.593  12.024 -0.1219  0.0579 -0.1463
12635W        W31489   8.277  12.362  14.612  0.2322  0.0766 -0.0446
12636W        W31490   8.642   2.653  11.600 -0.1292  0.4511  0.0119
12637W        W31491  16.057  10.941   3.033  0.2344 -0.1267 -0.1353
12638W        W31492   2.331  17.813   2.008 -0.0668 -0.0403 -0.1348
12639W        W31493  10.355  16.783   4.765 -0.0867  0.1472  0.1553
12640W        W31494   4.552  17.295   0.932 -0.0052  0.1808 -0.1136
12641W        W31495  11.267  13.310   3.058 -0.1658  0.2877  0.1075
12642W        W31496  12.105   3.785  12.140 -0.2297 -0.1045 -0.0761
12643W        W31497   9.426   5.417   2.750  0.3056  0.0888 -0.0508
12644W        W31498  12.076  15.807   0.226  0.1084 -0.3505 -0.0917
12645W        W31499   6.581   0.050  14.236  0.0657 -0.0721  0.2291
12646W        W31500   6.324  13.794  14.697 -0.2266  0.2082  0.1190
12647W        W31501   1.952  17.401  13.777 -0.0582 -0.0973  0.1669
12648W        W31502   6.634   8.827  12.166 -0.0899  0.0007  0.2098
12649W        W31503  11.033   1.579   0.588 -0.1688  0.1390 -0.0180
12650W        W31504   4.608  16.890  13.170  0.0548 -0.0601 -0.0283
12651W        W31505  10.815   6.558   3.921 -0.3082 -0.0807  0.0870
12652W        W31506   3.414  16.209   0.521 -0.0925  0.1368  0.0507
12653W        W31507  13.912  14.311   3.599 -0.0423 -0.0545  0.0720
12654W        W31508   0.225  13.913   1.299 -0.0480  0.0141  0.2070
12655W        W31509  17.129  17.929  10.768  0.3962 -0.0549 -0.1092
12656W        W31510  14.269   3.892  14.649 -0.3499  0.0892 -0.1264
12657W        W31511  12.847  17.213  11.342  0.1258  0.0634 -0.0592
12658W        W31512  13.279   4.250   2.919  0.1229 -0.2652 -0.3511
12659W        W31513   9.152   0.502   0.209  0.0027  0.1844  0.0548
12660W        W31514   2.656   8.524   0.806 -0.0771 -0.0914  0.1953
12661W        W31515   7.281  17.621  13.465  0.1444  0.0046 -0.5001
12662W        W31516   7.057  11.068  12.088  0.1507 -0.0182 -0.1186
12663W        W31517  12.101   4.144   0.632  0.0877  0.0638 -0.0630
12664W        W31518   2.219  17.584  11.127 -0.2021 -0.0800  0.1266
12665W        W31519   8.630   0.894  13.249 -0.0108 -0.1870  0.0906
12666W        W31520  12.657   6.764   2.030 -0.0854 -0.1291 -0.4880
12667W        W31521   2.419   2.341   2.663 -0.1627  0.0734  0.0415
12668W        W31522   0.700  10.872   3.654 -0.1836  0.1270 -0.0293
12669W        W31523  15.140   9.097   3.212  0.0675  0.2649 -0.2198
12670W        W31524  11.612   5.518   1.680  0.1976  0.0948 -0.1207
12671W        W31525   7.567   5.726   3.458  0.0356  0.0317  0.0794
12672W        W31526   9.721   0.615  14.736  0.0088 -0.0716 -0.0778
12673W        W31527   8.342   2.401   2.470  0.5079  0.0612  0.2077
12674W        W31528  12.178   7.492  11.652  0.2154  0.0343 -0.4990
12675W        W31529  10.316   5.432   2.663 -0.2168  0.1503  0.0888
12676W        W31530   2.099   4.861   0.545 -0.2156  0.1433 -0.0700
12677W        W31531  18.098   5.594  14.292  0.1569 -0.0538 -0.0250
12678W        W31532  11.466  14.774  14.147 -0.5087 -0.2693 -0.1641
12679W        W31533   0.589   9.321   0.668 -0.1271 -0.0815 -0.2830
12680W        W31534  10.080   6.749   4.472  0.1597  0.0039  0.1232
12681W        W31535   2.210  16.400   0.278 -0.0714 -0.1818 -0.0701
12682W        W31536  13.588  16.871   0.381  0.0762 -0.0235 -0.2617
12683W        W31537  11.202   2.645   1.429 -0.0975  0.2489  0.3704
12684W        W31538   1.620  18.276   4.611  0.4961  0.1104 -0.0356
12685W        W31539  16.280   9.228  11.401  0.2852  0.0648  0.1948
12686W        W31540   9.531  15.282   0.650  0.1931 -0.0750 -0.2022
12687W        W31541  12.781  18.102  12.170  0.1419 -0.1239  0.0467
12688W        W31542   0.072   3.807  12.403  0.0155  0.0862 -0.1020
12689W        W31543   2.269  17.616  11.980  0.0897  0.2750  0.0147
12690W        W31544  13.523  13.331   4.347  0.2827  0.2746  0.1298
12691W        W31545   4.901   1.214   2.934 -0.2576  0.0649 -0.1233
12692W        W31546  11.038  11.096   4.724 -0.0237 -0.2504  0.2560
12693W        W31547  10.360  18.417  14.303 -0.0843 -0.3090  0.0215
12694W        W31548  17.461   5.233  13.057 -0.2171  0.2217  0.2083
12695W        W31549   3.690   3.141  14.588  0.3111 -0.0587  0.2560
12696W        W31550   1.101   2.096   4.510 -0.2178  0.0391  0.4814
12697W        W31551  17.127  12.169   3.027  0.0008  0.0970  0.2821
12698W        W31552  12.933  15.909  12.342 -0.0855  0.1444  0.3066
12699W        W31553   2.457   9.419   3.090  0.3024 -0.0926  0.0155
12700W        W31554   9.293   7.221   1.642  0.1397 -0.2610  0.0931
12701W        W31555  13.520   6.088   4.724  0.1508 -0.0999 -0.0946
12702W        W31556  16.831   4.759   2.952  0.1002  0.1933 -0.1777
12703W        W31557  13.600  15.412  10.277  0.0582 -0.2100  0.0169
12704W        W31558  17.127  16.640   2.788  0.2757 -0.1020  0.1066
12705W        W31559   6.923  14.227   1.850  0.2045 -0.0720 -0.2705
12706W        W31560  14.412  11.358   2.232  0.0694 -0.2949 -0.4290
12707W        W31561   2.410  13.320  13.831 -0.1166 -0.2017 -0.2367
12708W        W31562  16.789   1.845   2.393 -0.1045 -0.0361 -0.2627
12709W        W31563  13.891   3.748  14.999 -0.1040  0.0798 -0.1691
12710W        W31564   1.982   0.448  14.498 -0.0011 -0.2720  0.0818
12711W        W31565  11.491  12.974  14.048  0.0604  0.1013 -0.1081
12712W        W31566   5.950   9.304   3.045  0.0684  0.2192  0.0658
12713W        W31567  12.196  17.266   1.841 -0.1695 -0.0972  0.0605
12714W        W31568   3.989  15.453   0.805  0.1470  0.1434 -0.1600
12715W        W31569   0.308  10.078   3.793 -0.2907 -0.0168  0.0166
12716W        W31570   0.607  10.400   2.639  0.1558  0.0581  0.0582
12717W        W31571   1.568   2.260   2.255  0.3668  0.0719 -0.1339
12718W        W31572   7.276   4.599   1.377  0.3945 -0.1156  0.0757
12719W        W31573  16.285  13.580   3.111 -0.0300 -0.1179 -0.1645
12720W        W31574   3.838   1.347  15.067 -0.0653  0.2392 -0.0925
12721W        W31575   0.608   3.137  12.095 -0.1461  0.0975  0.1898
12722W        W31576   0.079  10.320  12.933  0.5129 -0.0453  0.1402
12723W        W31577   3.364   1.366  12.347  0.1073  0.1508  0.2743
12724W        W31578  17.300  14.445   3.938  0.1863 -0.0935 -0.0056
12725W        W31579  10.500   0.452  14.178  0.1048  0.1879 -0.2801
12726W        W31580  17.845  13.914  13.396  0.1812 -0.0685 -0.2081
12727W        W31581  15.104  11.042  12.279 -0.1083  0.0257 -0.1087
12728W        W31582  17.743  11.716  11.791 -0.1669  0.0717  0.1088
12729W        W31583   3.193  17.142  12.465 -0.0569  0.3592 -0.0350
12730W        W31584   6.635  11.196   1.977  0.1219 -0.1074  0.1932
12731W        W31585   2.136  15.916  14.450 -0.1501 -0.0385  0.2253
12732W        W31586   3.984  10.749  14.481  0.0929 -0.0617  0.0750
12733W        W31587  13.899  12.288   3.229 -0.1641  0.2646  0.3136
12734W        W31588  14.565   2.319   4.452 -0.2439 -0.0356  0.0318
12735W        W31589   9.096  11.461   0.927 -0.0689 -0.1117 -0.1024
12736W        W31590   1.848   4.711   0.035  0.3037  0.2435 -0.0328
12737W        W31591   5.506  16.228  14.714  0.2115  0.0770 -0.0370
12738W        W31592  14.884  12.573   3.679  0.1865  0.0388 -0.0534
12739W        W31593  10.007  13.553  11.687 -0.0481 -0.0228 -0.0624
12740W        W31594  16.550   0.297  11.210 -0.1373 -0.2401 -0.0544
12741W        W31595  10.235  13.243   0.151  0.1682  0.0188  0.0485
12742W        W31596  10.299   2.337  14.303  0.0844  0.5582  0.1980
12743W        W31597  18.088  10.297   2.037 -0.0290  0.0901 -0.0144
12744W        W31598  12.755  18.008   1.038  0.1698 -0.5315  0.3603
12745W        W31599  17.945   0.690  12.232 -0.1380 -0.1783 -0.3156
12746W        W31600   5.959   9.104  15.211  0.1718 -0.0952 -0.0683
12747W        W31601   1.403  17.865   3.298 -0.0140  0.0087  0.0588
12748W        W31602  15.820  17.284   2.607  0.2355 -0.1366  0.0502
12749W        W31603   3.647   6.663   0.459  0.0457  0.0782 -0.3206
12750W        W31604  14.411  11.562   5.615  0.1857 -0.1039  0.0901
12751W        W31605   8.528   1.373   1.396 -0.1068 -0.0956  0.0100
12752W        W31606  17.456  16.624   0.999 -0.1983  0.2687 -0.1679
12753W        W31607   6.498  10.347  13.028 -0.4554 -0.2894 -0.2603
12754W        W31608   0.883   9.471   2.885  0.0272  0.2204  0.0896
12755W        W31609  11.821  18.533  15.067  0.0453  0.0343 -0.0879
12756W        W31610  17.621  15.102  11.061  0.1097 -0.1363 -0.3747
12757W        W31611  15.883   0.259  14.083  0.0333 -0.1528 -0.3002
12758W        W31612  16.656  12.441  15.216  0.2556 -0.2318  0.0902
12759W        W31613  16.128   7.597  11.942  0.1004 -0.0070  0.0486
12760W        W31614   8.754  18.025  11.289 -0.1009 -0.3843  0.5253
12761W        W31615  11.151   5.755   1.720 -0.0263 -0.0046 -0.0639
12762W        W31616  10.743  14.173   0.268  0.2758 -0.1114  0.1307
12763W        W31617  15.935   7.114   1.507 -0.0551 -0.1306  0.0367
12764W        W31618  15.168  14.512  15.043  0.0995  0.0360 -0.0383
12765W        W31619   6.032   8.025  11.312 -0.0966 -0.1143  0.1718
12766W        W31620  10.169  11.293  13.105 -0.1896  0.0148  0.2726
12767W        W31621  18.018   2.526  11.926 -0.1868  0.1340  0.0640
12768W        W31622  12.939   8.110   0.675  0.1329 -0.0740  0.1853
12769W        W31623  12.745   8.543  12.758  0.1481  0.1445 -0.0985
12770W        W31624   4.246   2.530   4.130  0.2444  0.1295  0.1731
12771W        W31625   3.665   2.623  14.652  0.2103 -0.0323  0.1413
12772W        W31626   2.858   6.130  12.001 -0.2013  0.2296 -0.2394
12773W        W31627  10.368   2.677  10.623 -0.0391 -0.0273 -0.1437
12774W        W31628  13.722  12.772  14.653 -0.4016 -0.1808 -0.0328
12775W        W31629   7.854  14.334   0.899 -0.0658  0.1686  0.1214
12776W        W31630   6.018  10.459   4.234  0.0605  0.0600 -0.0667
12777W        W31631  11.127   3.976  12.482 -0.0839 -0.0232  0.0511
12778W        W31632  10.355   3.091   3.436  0.1999  0.0549  0.0043
12779W        W31633   9.744   4.478  13.179 -0.2056  0.0190  0.2082
12780W        W31634   5.650  17.226  14.655 -0.1673 -0.0101 -0.1077
12781W        W31635   5.246  10.263   2.446 -0.0870  0.4492  0.2157
12782W        W31636  17.387  11.412   2.690 -0.1644  0.0171 -0.2054
12783W        W31637   2.260  18.322   2.937  0.2525 -0.1707 -0.0405
12784W        W31638  11.088   4.252  11.543 -0.1327 -0.0887 -0.1347
12785W        W31639  16.027   0.193   4.508  0.1716  0.1065  0.1597
12786W        W31640   5.923   4.765   3.775  0.2121 -0.1354  0.0695
12787W        W31641   3.580   0.102  14.004 -0.0337 -0.0709 -0.2959
12788W        W31642  17.013  11.864   4.248  0.0289  0.1460  0.2276
12789W        W31643   1.863   1.268  15.105  0.0196  0.1803 -0.0346
12790W        W31644   2.233  13.976  12.418  0.2345  0.2614  0.2268
12791W        W31645  12.717   1.873   2.034 -0.3628 -0.0419  0.1393
12792W        W31646   7.299   7.059  12.520  0.1732  0.3421  0.1343
12793W        W31647  16.665   4.862  12.259 -0.3330 -0.0164  0.1095
12794W        W31648  18.127  16.482   4.614  0.1156 -0.0155  0.1568
12795W        W31649   6.186   5.481  12.923 -0.1899  0.2647  0.0208
12796W        W31650   6.586   9.859  11.871 -0.1914  0.2369 -0.0845
12797W        W31651   8.379  10.989   1.314 -0.2395  0.3531 -0.1363
12798W        W31652   1.379  12.774   2.384 -0.0412  0.0234  0.2108
12799W        W31653   5.958   6.976  12.087 -0.1451 -0.0678  0.2256
12800W        W31654   5.434  14.959  13.774 -0.1412  0.5843  0.2335
12801W        W31655  18.224   4.028  14.828 -0.2495  0.2830 -0.2131
12802W        W31656   1.577   4.370  11.100 -0.1790  0.3124  0.2259
12803W        W31657  17.026   0.000   0.105 -0.1050  0.0454 -0.0585
12804W        W31658   9.319  16.527   0.885 -0.2416  0.0768 -0.0861
12805W        W31659   1.935   4.141   2.207  0.1147 -0.0309  0.1308
12806W        W31660   4.626  17.876  10.689  0.0641  0.1370  0.0484
12807W        W31661   1.428   0.962  15.153  0.4390 -0.2161  0.5014
12808W        W31662  15.070   0.955   1.068 -0.0955  0.1224 -0.1200
12809W        W31663  11.847   9.061  10.893 -0.0453 -0.1407 -0.1698
12810W        W31664   5.098   7.219   2.836 -0.1610 -0.1464  0.2979
12811W        W31665  16.984   4.258   2.889 -0.0048 -0.0072  0.3152
12812W        W31666  16.807  13.526   0.918 -0.0596 -0.1278 -0.2249
12813W        W31667   1.917   2.690  11.729  0.3710  0.0957  0.0019
12814W        W31668   9.468  11.342  13.921  0.1094 -0.3579  0.1164
12815W        W31669   5.786  12.425   0.768 -0.0504  0.0994 -0.0667
12816W        W31670  17.491   4.984  11.281  0.2593  0.0717  0.0546
12817W        W31671  13.096  10.993  14.671  0.2108 -0.1563 -0.1640
12818W        W31672  11.594   4.403   0.754 -0.0082 -0.1229  0.0642
12819W        W31673   4.841   0.738  11.630  0.1062 -0.0289  0.1653
12820W        W31674   4.052  13.966   0.846 -0.2778  0.3515 -0.1781
12821W        W31675  13.418  13.294  12.656 -0.1200  0.0840  0.2511
12822W        W31676  12.841   0.147  14.418 -0.2481  0.2092  0.1337
12823W        W31677   0.208  12.010   4.201  0.1187  0.0263 -0.1607
12824W        W31678   1.331   1.127  14.212 -0.4399 -0.1193  0.0033
12825W        W31679   6.256   7.607  14.580 -0.0439 -0.1658 -0.0596
12826W        W31680  10.350   2.405   2.076  0.1115  0.0182 -0.1528
12827W        W31681   0.350  16.758  14.143  0.0938 -0.0844  0.6057
12828W        W31682   2.820   1.124  11.084  0.3801  0.0754 -0.1126
12829W        W31683   2.363  15.389  14.228 -0.4970  0.2644  0.0291
12830W        W31684  17.719   8.860  11.448  0.0212  0.2098 -0.0639
12831W        W31685   0.683   8.339  11.401  0.0057 -0.1468 -0.0092
12832W        W31686  11.661  10.551   4.272 -0.1946  0.1944 -0.2341
12833W        W31687  15.516  16.755  13.902 -0.3346  0.0616 -0.1660
12834W        W31688   7.225  17.993  10.976  0.1024 -0.0213  0.0206
12835W        W31689   3.197   6.131  13.826  0.1380  0.1455 -0.2145
12836W        W31690  15.953   8.333  14.288 -0.2113  0.2741  0.0634
12837W        W31691   7.792   6.237   5.729  0.0231 -0.2081 -0.0686
12838W        W31692   7.607   5.194  12.676  0.2583  0.2046 -0.0379
12839W        W31693   7.704  13.459  11.956 -0.2941 -0.3845 -0.0998
12840W        W31694   2.606   2.673   1.479  0.1253 -0.4413 -0.0816
12841W        W31695   8.759   5.925  10.242 -0.1415 -0.0656 -0.1516
12842W        W31696   5.054  10.444  11.332  0.1028  0.3548 -0.2046
12843W        W31697   2.835   3.579  12.381 -0.1372 -0.2097  0.2331
12844W        W31698  10.528  17.519   1.259  0.0707  0.1685 -0.2326
12845W        W31699   8.378   5.276  12.397 -0.3944 -0.0661 -0.3182
12846W        W31700   0.837   3.565   1.910 -0.0675 -0.0705 -0.1514
12847W        W31701   0.840   0.884   2.442 -0.1217  0.0416  0.0945
12848W        W31702  13.407  16.764   4.946 -0.1966 -0.1319 -0.2661
12849W        W31703  12.695   2.273   1.694 -0.0190  0.0269  0.1780
12850W        W31704   3.008   9.052   1.604  0.0841  0.0221 -0.0102
12851W        W31705   7.146  11.532  11.373  0.0730  0.1204 -0.2656
12852W        W31706   5.587   9.104   3.390  0.0976  0.1059 -0.0187
12853W        W31707   3.303  12.833   3.657  0.2898  0.1336 -0.3859
12854W        W31708  10.037  10.977  13.465  0.0294 -0.1400  0.1050
12855W        W31709  10.900  11.954  15.317 -0.0821  0.0849 -0.0103
12856W        W31710   3.512   0.066  15.299 -0.1597  0.2791  0.2650
12857W        W31711   5.391   3.936   1.498  0.1681  0.2209 -0.0041
12858W        W31712  11.064  13.895   1.049 -0.1117  0.0644 -0.2335
12859W        W31713   6.513  16.210  14.104 -0.0350  0.0991  0.3068
12860W        W31714  12.216   7.433   0.397 -0.3185  0.2260 -0.3059
12861W        W31715   0.898  11.803   3.164 -0.1393  0.1317 -0.0763
12862W        W31716   6.040  17.545  11.447 -0.0201  0.1439  0.1570
12863W        W31717  11.624  17.404   2.457 -0.0711 -0.2907 -0.3308
12864W        W31718   4.695   1.573  14.804  0.0249 -0.4260  0.0559
12865W        W31719   7.407   4.551  11.600 -0.1040 -0.3729  0.1958
12866W        W31720   8.753   0.824   1.723  0.0992 -0.2798  0.2692
12867W        W31721   5.578  10.947  10.093  0.0052  0.0925  0.1759
12868W        W31722   3.616   3.710   3.874 -0.1372 -0.1348  0.2477
12869W        W31723  15.554   6.949   1.029 -0.0865  0.0474 -0.1371
12870W        W31724  12.424  17.106   2.689  0.1159 -0.0920  0.2530
12871W        W31725   2.343   0.715  12.633 -0.3177 -0.3184  0.1066
12872W        W31726  16.917  10.222  14.233 -0.2517 -0.2623  0.2299
12873W        W31727   6.198  11.670  14.314  0.1751  0.0225 -0.0754
12874W        W31728   2.564   4.554   3.973 -0.0839 -0.0868  0.0652
12875W        W31729   1.418   7.911   0.017  0.1676 -0.1831  0.1086
12876W        W31730   4.354   8.964  14.355 -0.3866  0.2861  0.1589
12877W        W31731  16.702  16.952   2.956 -0.3833 -0.0991 -0.2506
12878W        W31732   2.795   7.255   2.879  0.0806 -0.0071  0.4079
12879W        W31733  12.455   0.604   5.081 -0.1796  0.0009 -0.1906
12880W        W31734   8.723  11.374  11.299 -0.1162 -0.0760 -0.0930
12881W        W31735   9.190  16.187   4.232 -0.1035  0.0386 -0.0991
12882W        W31736   2.788  16.601  14.779 -0.0993 -0.1974  0.0973
12883W        W31737   6.064  11.606   4.056  0.1070 -0.1270  0.3200
12884W        W31738  18.314   0.321  14.418 -0.0906 -0.0287  0.0470
12885W        W31739  14.662   9.428   2.413 -0.0554 -0.0953 -0.0543
12886W        W31740   2.685   3.770   0.129 -0.0076  0.0004 -0.0489
12887W        W31741   9.965  18.505  13.106  0.1302 -0.2655 -0.1473
12888W        W31742   9.107  14.209  12.916 -0.0126 -0.2390 -0.1239
12889W        W31743  12.697   2.560   4.087 -0.0325  0.1242  0.0475
12890W        W31744   4.537  17.677  12.559  0.1127  0.1271  0.0422
12891W        W31745   7.518  15.767   3.438 -0.0253 -0.3115  0.0572
12892W        W31746  15.159   3.705   3.789  0.0377 -0.0422  0.3764
12893W        W31747   4.079   6.599   1.461  0.0829  0.0800  0.0799
12894W        W31748   4.297  15.565  14.834  0.0875 -0.0419  0.0686
12895W        W31749  12.484   3.375  12.962  0.0515 -0.1662  0.1955
12896W        W31750  14.052   6.372  13.457 -0.0134 -0.0828  0.0037
12897W        W31751  11.175  12.023   1.219 -0.1110 -0.3982 -0.0897
12898W        W31752  10.126  12.487   1.535  0.0725  0.0590  0.0387
12899W        W31753   3.579   8.116  13.705  0.2215  0.3196 -0.0185
12900W        W31754   3.752   2.253  14.998  0.0623 -0.1457 -0.0805
12901W        W31755   9.994   9.167  12.990 -0.3444  0.0785  0.1482
12902W        W31756  11.641   0.526   2.700 -0.0177  0.1236  0.1325
12903W        W31757  10.678   4.378  12.877  0.0112  0.3294  0.3244
12904W        W31758   0.482  10.363   0.389 -0.1541 -0.1361 -0.1054
12905W        W31759   6.291   2.394   5.126 -0.1079  0.1013  0.2147
12906W        W31760   8.685  16.696   4.150 -0.0929  0.0343  0.2671
12907W        W31761  16.092   8.587   0.244 -0.2121 -0.0253 -0.2789
12908W        W31762  14.182   7.451   3.474  0.0538  0.0556 -0.0532
12909W        W31763   7.413  11.964  11.591 -0.1976  0.0763 -0.1591
12910W        W31764   3.774  15.680  12.037  0.0739  0.1076 -0.0130
12911W        W31765   9.524   9.583   1.272 -0.0574  0.4346  0.0603
12912W        W31766   5.666  15.602   2.933 -0.1865  0.0734  0.0284
12913W        W31767   1.781   5.072  13.263 -0.1979  0.1736 -0.0949
12914W        W31768  14.063   9.217   5.021 -0.4253  0.0290 -0.3164
12915W        W31769   3.428   2.456  11.701  0.2840  0.1742 -0.0644
12916W        W31770   4.471  14.729   0.442  0.0397  0.1642  0.1300
12917W        W31771   5.597   4.796  11.782  0.0372 -0.1164 -0.2932
12918W        W31772   8.703   6.173   3.307  0.3288  0.3071 -0.1660
12919W        W31773   5.593  14.122   2.225  0.1953 -0.0346 -0.3775
12920W        W31774   9.938   5.060   4.918  0.2749  0.3557  0.2078
12921W        W31775  18.073  10.658   4.005  0.2324 -0.1274  0.2103
12922W        W31776   7.475  17.162   3.670 -0.1110 -0.0531  0.0343
12923W        W31777  14.831   8.720   1.484 -0.3692 -0.0186  0.2533
12924W        W31778   9.872  13.178   1.038 -0.2275  0.0446  0.1375
12925W        W31779   4.451   5.135  13.875  0.0839 -0.3054  0.1429
12926W        W31780   0.708   9.966   4.126  0.0022 -0.0550  0.0521
12927W        W31781   1.061  10.459   1.473  0.2142 -0.1943 -0.0877
12928W        W31782   3.096   2.935  13.137 -0.1811  0.0712  0.0834
12929W        W31783  16.347  13.590   0.452 -0.2091 -0.0593  0.0587
12930W        W31784   9.684  14.586   2.328  0.4532  0.1370 -0.0557
12931W        W31785  17.692  15.769  14.323  0.0526  0.0407  0.0574
12932W        W31786   0.536   0.533   4.509 -0.1111 -0.0637 -0.0404
12933W        W31787  10.571  13.834  14.370  0.4014  0.1290 -0.2157
12934W        W31788   4.059   8.420  12.053  0.1896  0.1489  0.3123
12935W        W31789   5.276  12.616   2.950 -0.1526  0.2001  0.1853
12936W        W31790  10.716   9.378  11.395  0.3545 -0.0987 -0.0923
12937W        W31791  15.247   9.011   0.174 -0.1482 -0.0355  0.0618
12938W        W31792  11.457   4.308   0.306  0.3114  0.1417 -0.0714
12939W        W31793   7.742  12.904   1.123 -0.0044  0.0432  0.1621
12940W        W31794   0.198  15.621   3.227  0.0616  0.1699  0.2740
12941W        W31795  18.296  16.254  11.329  0.0267 -0.0372  0.2131
12942W        W31796   4.409  10.107   1.392  0.0541 -0.1711  0.1302
12943W        W31797  13.008  17.237  11.902  0.0746 -0.2054 -0.0620
12944W        W31798  15.540  16.597   2.125  0.1967 -0.0583 -0.0066
12945W        W31799   7.780  10.148  10.890 -0.1279 -0.0853  0.0422
12946W        W31800   7.434   2.231  10.971 -0.1022 -0.2060 -0.0036
12947W        W31801   3.458   6.333   0.872 -0.0772 -0.0397  0.1604
12948W        W31802   9.921   3.970   5.718 -0.0679  0.1575  0.0249
12949W        W31803   7.204   3.190  11.162  0.2763  0.0625  0.0796
12950W        W31804  16.509  18.035   0.781  0.0355  0.3887 -0.1567
12951W        W31805   8.557   9.149  12.820  0.1244 -0.2208  0.0296
12952W        W31806  14.877  14.634  11.249  0.2297  0.0200  0.0334
12953W        W31807  15.042   6.831   3.853 -0.0400  0.1178 -0.0652
12954W        W31808  16.620  13.446   3.493  0.0243 -0.2839  0.2156
12955W        W31809   1.567  15.788  13.164 -0.0543 -0.1131  0.2098
12956W        W31810  15.811   2.814  11.445  0.0844 -0.3255  0.1783
12957W        W31811   1.968   5.045   3.239 -0.1169 -0.0047  0.2610
12958W        W31812  15.980   5.660  11.607 -0.2019 -0.0906 -0.3215
12959W        W31813  16.446   0.489  15.361  0.0472  0.0662  0.2302
12960W        W31814   4.919   5.097   1.452  0.1276 -0.0942 -0.1616
12961W        W31815  14.388   5.866  12.838 -0.0492  0.1061 -0.0686
12962W        W31816   2.535  11.805  12.973  0.1475  0.3318 -0.1543
12963W        W31817  17.835  11.151   1.455 -0.1975 -0.1490 -0.1025
12964W        W31818  15.930   8.787  12.787 -0.2258 -0.1673 -0.3226
12965W        W31819  16.163   9.145  14.817 -0.1755 -0.1224  0.2567
12966W        W31820   3.031  11.405   0.082 -0.0462 -0.0146  0.0477
12967W        W31821  13.618  15.021   0.742  0.2128 -0.0502  0.3273
12968W        W31822   4.429  10.736   4.309 -0.1034 -0.0532 -0.2065
12969W        W31823  15.372   4.846   4.287  0.0957  0.2229 -0.1396
12970W        W31824   8.293   0.899   1.474 -0.3209  0.1229  0.2478
12971W        W31825  15.213   5.726   2.886  0.1576 -0.1694 -0.2502
12972W        W31826   9.765   9.553   3.955 -0.0993 -0.3997  0.0963
12973W        W31827   8.490   6.661   0.678 -0.1404 -0.2569 -0.0176
12974W        W31828   0.750   5.309  11.495  0.0936  0.0148 -0.1357
12975W        W31829  11.182  18.432  11.860  0.3971  0.2166  0.0771
12976W        W31830  13.599   2.209   1.074 -0.4841  0.0514  0.0230
12977W        W31831   8.625   3.942   0.182  0.3413 -0.0471 -0.0357
12978W        W31832  12.830  16.526   0.644 -0.2162  0.3034 -0.1676
12979W        W31833   8.874  16.368  13.468 -0.1898  0.0461 -0.0714
12980W        W31834   1.955  14.333   4.922 -0.0810 -0.5059  0.1693
12981W        W31835   8.160  13.600   1.395 -0.4321 -0.1171  0.0110
12982W        W31836   5.801   5.211  13.755 -0.0355  0.0581  0.0247
12983W        W31837  15.855  14.331   1.743 -0.1532 -0.1062 -0.0949
12984W        W31838  17.158  11.162  13.025  0.0939 -0.1874  0.2079
12985W        W31839   4.847   1.501   0.792  0.1482 -0.1178  0.2375
12986W        W31840   6.929  10.829   1.826 -0.0772 -0.0964 -0.0149
12987W        W31841  12.709  10.498   1.733  0.2746  0.1394 -0.2103
12988W        W31842   1.350  15.619  11.105  0.3433  0.0380 -0.2943
12989W        W31843   2.921   8.959  12.691 -0.1863  0.1151  0.3932
12990W        W31844   5.852  14.460  14.294  0.0605  0.0856 -0.0465
12991W        W31845   7.372   9.892   2.776 -0.2363 -0.1471  0.1148
12992W        W31846  17.446   3.814  11.507 -0.0577 -0.1733  0.1688
12993W        W31847   1.785  13.778  10.594 -0.0708 -0.3177 -0.0584
12994W        W31848   3.045   4.477   3.783 -0.3931 -0.0708 -0.1605
12995W        W31849  12.775   5.229   3.836  0.1612  0.2476  0.0789
12996W        W31850   6.930   7.965   4.785  0.0963  0.2577  0.0309
12997W        W31851   8.330   0.400   4.368 -0.0310  0.1331 -0.0382
12998W        W31852   5.039   8.565   1.947 -0.0252  0.1573 -0.2059
12999W        W31853   2.771  13.056   1.054 -0.0077 -0.0787 -0.0493
13000W        W31854   8.261   2.837  11.213  0.1898  0.0237  0.2415
13001W        W31855   1.229   7.151   3.958 -0.1042  0.2087 -0.2104
13002W        W31856   3.101   1.547  11.158 -0.0784 -0.1407  0.0656
13003W        W31857  14.283   0.049   4.376  0.2400 -0.0168 -0.2086
13004W        W31858  17.368  10.224  11.091 -0.2417 -0.0414  0.2387
13005W        W31859   6.605   8.890  13.335 -0.0036  0.0569 -0.0496
13006W        W31860  16.596   4.237   3.752 -0.1917 -0.1343 -0.0899
13007W        W31861  16.516  16.699   2.423 -0.2241  0.1469  0.2417
13008W        W31862  10.711  14.957  13.488  0.0424 -0.1491 -0.2804
13009W        W31863  13.141  13.779  15.300 -0.1059  0.1936  0.0517
13010W        W31864   5.992   7.345   3.485 -0.0245  0.1979 -0.0884
13011W        W31865   6.608  11.148   9.730  0.0662  0.1182 -0.2869
13012W        W31866   1.385  12.392   2.775  0.0462  0.1505  0.1389
13013W        W31867  14.617  12.707   1.075 -0.1108  0.2423  0.1763
13014W        W31868  13.564   2.420   3.086 -0.0758  0.0814 -0.0075
13015W        W31869  10.299  17.843  12.224 -0.0484  0.0670  0.0547
13016W        W31870   9.682  17.306   0.617  0.2477 -0.4315 -0.0428
13017W        W31871  11.882  10.589   0.275 -0.0792  0.0575 -0.3529
13018W        W31872   1.040  17.585  14.975  0.2251 -0.2308  0.1652
13019W        W31873   9.796  16.362  12.760  0.0243  0.2364  0.2769
13020W        W31874   4.813   5.745   2.586  0.0770  0.0058 -0.1512
13021W        W31875   3.856  12.588   1.056  0.2385  0.1256 -0.0297
13022W        W31876   5.017  14.574  14.329 -0.0421  0.1203  0.5503
13023W        W31877  12.632   7.693  11.788 -0.0817 -0.0660  0.1511
13024W        W31878   1.855   5.712   1.692 -0.1061 -0.0754 -0.2529
13025W        W31879  12.535   4.018   0.164  0.1504 -0.0612  0.2001
13026W        W31880  13.732  14.252   1.816  0.0178  0.0526  0.0792
13027W        W31881  15.853  13.114  13.117  0.0161  0.0349  0.0010
13028W        W31882   4.469  16.787  11.313  0.1902 -0.1402  0.0435
13029W        W31883  12.731  15.088   5.115  0.1046 -0.0735  0.2348
13030W        W31884  17.782   4.365  15.207 -0.1975 -0.1135  0.0633
13031W        W31885  14.736   8.065   3.513 -0.1409  0.1067 -0.2450
13032W        W31886  11.927  16.250  12.031  0.0316  0.3358  0.2792
13033W        W31887   0.550   0.110  12.843  0.1310  0.2511  0.0984
13034W        W31888   9.909  14.344   1.202  0.1288 -0.2579  0.0644
13035W        W31889  11.679   8.953  11.346 -0.0411 -0.0753 -0.1050
13036W        W31890   4.493  15.513   0.735  0.2687 -0.1552 -0.0020
13037W        W31891   1.503  11.949  12.998 -0.3112 -0.0123  0.0587
13038W        W31892  12.472   8.775   4.066 -0.2270  0.1774  0.0695
13039W        W31893   1.556  14.436   3.167  0.1069  0.1205  0.1783
13040W        W31894  13.664   4.563  11.303  0.1109 -0.0057 -0.3472
13041W        W31895  15.290   1.644   2.610 -0.0545  0.0056 -0.1756
13042W        W31896   7.948   1.123  12.637 -0.1804  0.0023  0.0808
13043W        W31897   3.299  15.143   0.405 -0.0514  0.0620  0.2090
13044W        W31898  12.094   8.032  15.392 -0.0655 -0.1885 -0.2575
13045W        W31899   5.397   1.324   3.818  0.0358  0.3161  0.1643
13046W        W31900  17.217  18.450  14.126 -0.1730 -0.0282  0.1394
13047W        W31901   4.241  15.865   1.011 -0.1053 -0.0756  0.2327
13048W        W31902   1.428  14.858   4.209 -0.1090 -0.2124  0.1164
13049W        W31903  11.786   0.688  15.283 -0.2866 -0.1852  0.3784
13050W        W31904  13.775  10.425   3.135 -0.0862  0.0005 -0.0525
13051W        W31905   0.336  16.745   3.429  0.1751  0.2485 -0.0471
13052W        W31906  11.089  17.162   2.394  0.2232 -0.1398 -0.1041
13053W        W31907  10.628   4.142  11.600  0.1257 -0.1001  0.0943
13054W        W31908   6.448  16.382   0.306  0.1553 -0.0395 -0.0728
13055W        W31909  13.413   7.547  14.961 -0.3175  0.2504  0.1756
13056W        W31910   9.036   6.766  13.751 -0.1699  0.0264 -0.1595
13057W        W31911   9.086   0.383   2.091 -0.3275  0.1819  0.0128
13058W        W31912   7.911   9.193  12.119 -0.1833 -0.1189 -0.2055
13059W        W31913   1.070   3.389   1.095 -0.0128 -0.0210 -0.0050
13060W        W31914  16.615  10.261   0.116  0.3623 -0.0640  0.2260
13061W        W31915  11.509   6.760   2.196 -0.1547 -0.0239 -0.1275
13062W        W31916  18.177  15.078   1.958 -0.0068  0.0373  0.1666
13063W        W31917   5.057   9.682   0.566 -0.0067 -0.1033 -0.1503
13064W        W31918  17.147   4.468  13.391  0.0862 -0.1247 -0.1948
13065W        W31919   2.640  17.238  14.260  0.0357  0.3867 -0.2732
13066W        W31920   5.287   0.475  11.653 -0.1138  0.0443 -0.1994
13067W        W31921   0.067   7.895   0.126 -0.0195 -0.1345  0.0592
13068W        W31922  12.635  12.156   3.853 -0.1214 -0.0853 -0.1825
13069W        W31923   7.149   1.461  12.485  0.0372  0.3075  0.0884
13070W        W31924   9.679  14.666   5.068  0.3876 -0.2558  0.2598
13071W        W31925   0.508   4.059   1.437  0.1733 -0.0998 -0.1997
13072W        W31926  10.086  11.957   1.507  0.0462 -0.2291  0.1565
13073W        W31927  11.529   1.077   2.618 -0.2384 -0.1833  0.0884
13074W        W31928   1.911  12.072  14.691 -0.2512  0.0426  0.0040
13075W        W31929   1.321   6.967  13.389  0.0261 -0.0839  0.1809
13076W        W31930  17.070   5.103  10.785 -0.2376 -0.0619 -0.0610
13077W        W31931  17.005   6.153   3.028 -0.2149 -0.3740 -0.1232
13078W        W31932  15.566  16.455  12.541 -0.3850 -0.0695 -0.0639
13079W        W31933   9.631  12.282  13.961 -0.0396 -0.2889  0.0052
13080W        W31934   9.863   3.153   3.323  0.3150  0.1415  0.1705
13081W        W31935   2.584   5.005  12.285 -0.0963  0.1699  0.2166
13082W        W31936   7.471   8.870  14.136 -0.2027  0.1873 -0.0294
13083W        W31937   5.967   2.765   1.322  0.1099  0.1019  0.0423
13084W        W31938  12.219   6.563   3.887 -0.0141  0.0007  0.1722
13085W        W31939  12.090   2.478  13.544  0.1538  0.2047  0.2904
13086W        W31940  15.394   8.279  11.959 -0.0842 -0.1359 -0.0965
13087W        W31941   5.418  11.317  14.251 -0.1130 -0.0766 -0.0603
13088W        W31942   5.331   5.738   3.226  0.2256 -0.1118  0.2100
13089W        W31943  17.153   0.579   0.988  0.1709  0.0578 -0.3031
13090W        W31944  17.935  11.332   2.010 -0.4088  0.6156  0.4374
13091W        W31945   6.188   7.459   1.378  0.1340 -0.0764  0.2684
13092W        W31946   7.196  10.277  11.529 -0.1684  0.0734 -0.2210
13093W        W31947   8.694   2.386  12.620 -0.4778 -0.1194 -0.0338
13094W        W31948  11.758   6.094  12.204  0.0779  0.1416  0.4351
13095W        W31949   5.887  17.590  10.148  0.1748 -0.2065 -0.2010
13096W        W31950  18.003   4.594   1.936 -0.3732  0.3026 -0.0071
13097W        W31951   3.734  15.974   1.957  0.2175  0.0980 -0.0103
13098W        W31952  18.222   5.722   4.389  0.2797 -0.2114 -0.0209
13099W        W31953   3.387   9.876   4.018  0.3983 -0.0422  0.1511
13100W        W31954  13.953   5.531   3.219 -0.2057 -0.1140 -0.0148
13101W        W31955   1.170  11.887  15.129 -0.0191  0.1865 -0.3710
13102W        W31956  14.152  15.732   1.818  0.0658  0.2192  0.0805
13103W        W31957   7.059  16.609  13.538  0.1530 -0.1561  0.2428
13104W        W31958   8.281  11.584  10.135 -0.1189  0.1840  0.0904
13105W        W31959  14.259   9.484   4.153 -0.0251 -0.3824  0.1010
13106W        W31960   1.559  17.289   2.986  0.1377 -0.0917 -0.0350
13107W        W31961   9.709  17.827  11.978 -0.3134  0.0994 -0.3062
13108W        W31962  15.500   3.305   3.865  0.2486  0.0924  0.1883
13109W        W31963  16.366   8.641  12.635  0.0373  0.0527 -0.1308
13110W        W31964  14.668  14.493  15.166  0.1750 -0.2611  0.0730
13111W        W31965  14.792   6.888  13.217  0.1019  0.0924 -0.1457
13112W        W31966   8.460  17.763  14.850  0.1839  0.2849  0.0832
13113W        W31967   7.569  15.406   0.290  0.1001 -0.0337  0.0634
13114W        W31968   6.444  12.086   3.625 -0.2370  0.1139  0.0201
13115W        W31969   5.446  10.277  11.663  0.0890 -0.0289  0.1111
13116W        W31970   7.865   9.193  14.834 -0.3543  0.3908 -0.0065
13117W        W31971   7.411  15.046   1.484  0.3618  0.0804 -0.1731
13118W        W31972  10.229  10.192   0.969 -0.2135 -0.1457 -0.1702
13119W        W31973  14.521  13.928   3.055 -0.1601 -0.0955  0.0323
13120W        W31974  16.989  15.394  12.230  0.0495  0.2195 -0.1067
13121W        W31975   4.382   4.320   3.908 -0.1696 -0.2430 -0.1071
13122W        W31976  11.429  12.587  13.625 -0.0097  0.0843  0.0109
13123W        W31977   2.241   5.895  10.365  0.0262 -0.4384  0.1318
13124W        W31978  16.429  10.251  12.937 -0.5491  0.0587  0.0903
13125W        W31979  15.580   5.210  13.090  0.2674 -0.0237  0.1696
13126W        W31980   1.294   1.455   0.878 -0.3649  0.1008 -0.2453
13127W        W31981   9.650   8.080  13.119  0.0743 -0.1935  0.4139
13128W        W31982  12.123  17.010   4.726 -0.2324 -0.0508 -0.0310
13129W        W31983  14.777  13.469   1.822  0.0784  0.6854 -0.0428
13130W        W31984   1.967  14.038  11.420  0.4000  0.1090 -0.1730
13131W        W31985  18.179   2.109  12.987 -0.2892 -0.2687 -0.2047
13132W        W31986  17.971  17.150  14.229 -0.3370  0.2414 -0.0048
13133W        W31987  13.041   8.967   0.939  0.0147 -0.1864 -0.1254
13134W        W31988  17.650  16.748  10.810 -0.1293  0.1517  0.0415
13135W        W31989  18.534   7.930  13.736  0.1829  0.3209  0.2077
13136W        W31990   5.686  18.411  12.646 -0.0473  0.2528 -0.1963
13137W        W31991  13.018  15.062   4.151 -0.0526  0.1748 -0.0125
13138W        W31992   5.004   4.722   4.170 -0.0027 -0.0291 -0.1342
13139W        W31993   4.311  15.245   0.288 -0.1534  0.1124 -0.1885
13140W        W31994  14.416  14.223   0.064 -0.0138 -0.1430  0.1248
13141W        W31995   4.668  10.933   0.430 -0.0158 -0.0513  0.0782
13142W        W31996   1.187   6.308  13.703 -0.1237 -0.0498  0.2564
13143W        W31997   5.221  16.043  11.114 -0.2547  0.0310  0.2645
13144W        W31998   2.780   7.307   2.283  0.0102  0.0141  0.2332
13145W        W31999  11.084   7.370  10.409  0.0130  0.1463  0.1597
13146W        W32000  10.421   8.538   2.687 -0.0883 -0.0800 -0.0358
13147W        W32001   0.939   5.174  13.935 -0.3926 -0.1100  0.0481
13148W        W32002  14.649   1.733  13.133  0.0113  0.1040  0.2278
13149W        W32003   9.788   6.447   3.173 -0.2540  0.0542 -0.1735
13150W        W32004  17.965   6.964   0.360 -0.1404 -0.0512 -0.1605
13151W        W32005  18.176  15.052   2.569 -0.2115  0.4541  0.0509
13152W        W32006   5.576  17.187   0.089  0.2655  0.1076 -0.0668
13153W        W32007   5.594   9.561  15.395  0.2382  0.1081  0.0187
13154W        W32008  10.426  12.352   4.469  0.0400  0.0415  0.0639
13155W        W32009   4.159  11.750  12.057 -0.4474 -0.0820 -0.1563
13156W        W32010  14.515  13.232   4.171  0.3763  0.2382 -0.0420
13157W        W32011   1.013   6.583  13.271 -0.1071 -0.1703 -0.0005
13158W        W32012   6.785   6.624  13.100 -0.2885 -0.1694 -0.4335
13159W        W32013  16.726  15.684   1.858 -0.0496 -0.1517 -0.0089
13160W        W32014   4.495   9.196   1.626  0.1255  0.0676  0.1452
13161W        W32015  10.837   7.407   0.250  0.0241 -0.1859 -0.0123
13162W        W32016  15.346  15.250  15.353 -0.0687  0.1573  0.1562
13163W        W32017  11.510  14.155   0.465  0.1389  0.0482 -0.1067
13164W        W32018   4.572  14.163  10.991  0.2015  0.0336  0.1597
13165W        W32019  10.835  11.675  12.721 -0.2482  0.1290  0.0213
13166W        W32020   9.793   4.570   2.775  0.2610 -0.1060  0.2121
13167W        W32021  14.225   9.008   4.277 -0.0412  0.0247  0.2758
13168W        W32022  13.671   6.323  14.375 -0.1027  0.0258  0.0609
13169W        W32023   1.947  10.118   0.745 -0.1622  0.1200  0.0146
13170W        W32024   3.217  16.803  10.732 -0.2998 -0.0347 -0.0129
13171W        W32025   0.241  11.600  13.660 -0.0484  0.1866  0.1288
13172W        W32026  11.913   6.003   3.201 -0.3762 -0.2545  0.0770
13173W        W32027  15.946  16.743  14.961 -0.0224  0.1494  0.0755
13174W        W32028  12.822   8.097  11.538 -0.0364  0.0303 -0.2029
13175W        W32029   2.146   1.008  13.003  0.1529  0.0003 -0.0321
13176W        W32030   5.069   7.283  13.325 -0.1992  0.1907  0.2192
13177W        W32031  14.055   5.500   3.820  0.2914 -0.1019  0.3489
13178W        W32032   8.566   2.893   0.996  0.1614  0.1111  0.0355
13179W        W32033  17.221   1.891  15.216  0.1921  0.3097  0.0158
13180W        W32034  15.537  14.553   2.059  0.0585 -0.0317  0.2741
13181W        W32035   3.396   8.659   3.829 -0.0276  0.0170  0.0730
13182W        W32036  16.718  18.551  14.322  0.1256 -0.1650 -0.1923
13183W        W32037   7.020   7.696  15.438 -0.1328  0.0886  0.2189
13184W        W32038   7.568   3.731   2.845  0.0279 -0.2114 -0.0755
13185W        W32039  12.618   6.262  13.888 -0.3726 -0.0627 -0.0257
13186W        W32040  14.434  13.528  13.689 -0.0569  0.0584  0.0002
13187W        W32041  12.313   4.120   3.323  0.2843 -0.0237  0.4075
13188W        W32042  16.270   6.440  11.042 -0.1694 -0.1971 -0.1030
13189W        W32043  16.594   4.157  10.586 -0.1387  0.1759 -0.2160
13190W        W32044   2.414  10.321  14.986  0.2889 -0.1821 -0.0967
13191W        W32045  15.518  11.520  12.194 -0.2334  0.1454  0.0852
13192W        W32046   9.968   3.803   2.119  0.1371  0.1705  0.0762
13193W        W32047  14.126   3.360   1.909 -0.0009 -0.0283 -0.0389
13194W        W32048  13.305   2.494  14.450 -0.0414  0.1146 -0.0222
13195W        W32049   0.636  12.725   3.104 -0.1655  0.0495  0.0756
13196W        W32050   0.410   2.941   3.031  0.0604 -0.3064  0.0653
13197W        W32051  10.158  17.634  15.222 -0.0952 -0.0353 -0.0622
13198W        W32052   2.311  10.066   0.400  0.1198 -0.2575  0.3497
13199W        W32053   6.775   5.461   0.954 -0.1345 -0.1058 -0.2750
13200W        W32054   0.044  17.144  14.961 -0.1297 -0.0396 -0.0386
13201W        W32055  17.671   5.127  11.918  0.0613  0.0250 -0.0583
13202W        W32056  16.444   1.941  12.440 -0.2120 -0.0041 -0.3216
13203W        W32057   9.915   9.617  14.384 -0.1523 -0.0772 -0.0062
13204W        W32058   7.985  14.282  13.809 -0.0231  0.1310 -0.1404
13205W        W32059  15.523   6.531   3.160 -0.2071 -0.2204  0.2065
13206W        W32060  13.576  16.870   3.766  0.0777 -0.2417  0.0229
13207W        W32061   9.597   0.347  12.629  0.2570  0.0748  0.0048
13208W        W32062  13.721  14.031  15.077  0.1163 -0.0953 -0.0560
13209W        W32063  11.782   7.011   1.264  0.2394 -0.0570  0.2000
13210W        W32064   8.014   7.499   0.679 -0.0985  0.1084  0.1482
13211W        W32065   3.148  13.293  11.749  0.0377 -0.1328 -0.1390
13212W        W32066  15.199  14.194   2.393  0.0899 -0.3058 -0.1799
13213W        W32067  13.332  13.813   4.194 -0.1359  0.0516  0.2309
13214W        W32068   4.958  10.613   4.324 -0.1486 -0.0723  0.2181
13215W        W32069   2.427  16.178  14.817 -0.1124  0.1699 -0.4055
13216W        W32070   8.279   1.917  12.094 -0.1111 -0.0317  0.3134
13217W        W32071   0.952  10.183  12.016  0.2343  0.1449  0.0738
13218W        W32072   0.388  15.223  12.181 -0.0340  0.0740 -0.2786
13219W        W32073   7.240  10.985  13.031 -0.0597 -0.0618  0.5097
13220W        W32074   9.772   7.295  13.714  0.1426  0.0965  0.1331
13221W        W32075   0.796  10.132  15.026 -0.0395  0.2567 -0.0641
13222W        W32076  17.297   3.268   3.266 -0.1171 -0.0703  0.0914
13223W        W32077   7.054  17.490  11.136 -0.3691 -0.0178  0.0601
13224W        W32078   4.313  11.898   3.777 -0.3704  0.3874  0.0167
13225W        W32079   3.768  12.619   0.486 -0.0422 -0.1784  0.0397
13226W        W32080   8.816  14.588  10.143 -0.0723  0.0566  0.0065
13227W        W32081  14.655  12.806  13.241  0.2870 -0.1157 -0.0429
13228W        W32082  11.793  13.688  14.914  0.2147  0.1349  0.0554
13229W        W32083  11.639  11.822   4.279 -0.0813  0.0725 -0.1293
13230W        W32084   6.861  17.536  14.049 -0.1441  0.0092 -0.2148
13231W        W32085   7.242   5.488   0.373 -0.1992 -0.2402 -0.0650
13232W        W32086  17.921  14.717   4.538 -0.1356 -0.1723  0.4870
13233W        W32087   1.940   7.952  10.980 -0.1105  0.2207  0.1009
13234W        W32088   0.267  13.862  15.433  0.1416  0.0009  0.1625
13235W        W32089  17.598  14.583  11.133 -0.0789  0.0063 -0.0470
13236W        W32090  14.541   0.199   2.183 -0.0168 -0.0260  0.1470
13237W        W32091  10.357  14.969   3.505  0.3371  0.1661 -0.1170
13238W        W32092   7.936  15.035   1.490 -0.1135 -0.0298 -0.0117
13239W        W32093  15.187  12.105   4.356 -0.1124 -0.2733 -0.0718
13240W        W32094   5.401   5.917  13.286  0.1431  0.1543 -0.1359
13241W        W32095  17.817   5.936  14.705 -0.1022 -0.2187 -0.1321
13242W        W32096   6.148  12.321  11.326  0.0802 -0.0433  0.0568
13243W        W32097  12.312  17.967   4.029  0.2696 -0.2445  0.1435
13244W        W32098  12.449   5.002   0.847 -0.0966  0.3572  0.0778
13245W        W32099   5.712   0.002   3.749  0.1186 -0.0902  0.4688
13246W        W32100   5.125   0.721   3.717  0.0196 -0.0429 -0.0674
13247W        W32101   6.597   8.081  13.852  0.1157  0.2857 -0.0105
13248W        W32102  11.963   0.700  14.317  0.0193  0.2061  0.1380
13249W        W32103  15.546   0.631   3.584  0.0092  0.1332  0.0603
13250W        W32104   6.501   3.494   3.410  0.0870  0.1312  0.1610
13251W        W32105  16.452   5.731  11.292  0.0095  0.1272  0.0483
13252W        W32106   9.977  15.735   3.846  0.3972 -0.1062 -0.2434
13253W        W32107   4.984   9.833   2.733 -0.1177  0.1207  0.0035
13254W        W32108   2.173   9.636   0.767 -0.0568  0.1244  0.0067
13255W        W32109   9.012   4.731   3.314  0.2880  0.2091  0.0012
13256W        W32110   1.699  11.127  13.358  0.1303  0.0483  0.0642
13257W        W32111   2.085   9.113  14.506 -0.2159  0.2754  0.6087
13258W        W32112   1.231   7.578  15.097  0.1142 -0.1670  0.0245
13259W        W32113  12.565   2.512  11.066 -0.1590 -0.3070  0.1123
13260W        W32114   6.441   2.733  14.483 -0.0806 -0.0084  0.0554
13261W        W32115   4.651  16.002   0.740 -0.1131 -0.0514 -0.0178
13262W        W32116   4.736  15.674  12.938  0.4313  0.0462 -0.1570
13263W        W32117   1.012  14.103  11.531  0.2428 -0.2345 -0.0606
13264W        W32118  16.173   4.054   3.411  0.0825 -0.1199 -0.0464
13265W        W32119   7.154   9.567   0.544  0.2005 -0.3564  0.1002
13266W        W32120  13.840  10.745   4.599  0.0834  0.1514  0.1975
13267W        W32121  13.537  15.345   4.692 -0.1561 -0.0100  0.0717
13268W        W32122   2.690  15.773   1.835 -0.2289 -0.0793 -0.0937
13269W        W32123   0.356  11.911   0.663  0.0532  0.0684 -0.0223
13270W        W32124   7.066   2.324   0.254  0.2031  0.0243 -0.1681
13271W        W32125  12.745  17.583   1.228 -0.0550  0.0881  0.0411
13272W        W32126  18.204  10.888   1.656 -0.0782  0.0809  0.2007
13273W        W32127  13.216   6.628   2.154 -0.2430  0.0254 -0.1126
13274W        W32128   3.043   4.124   1.150 -0.1438  0.0911  0.0642
13275W        W32129  17.444   4.056  10.812  0.1345  0.0975  0.1394
13276W        W32130   0.700   2.358  15.048  0.0691 -0.3359  0.2157
13277W        W32131   8.094  12.413   1.974  0.1096  0.2059  0.2654
13278W        W32132   4.888  14.637   0.974  0.0011  0.3365  0.1313
13279W        W32133  10.733   7.255   2.642  0.0291  0.0467  0.3229
13280W        W32134  12.371  11.592   2.378 -0.1360  0.0162 -0.0748
13281W        W32135  13.267  16.693  13.871  0.1169 -0.0098 -0.1094
13282W        W32136  16.934   1.531  11.446  0.1735 -0.0955  0.0511
13283W        W32137  10.144   9.289   4.681  0.0000  0.1006 -0.3643
13284W        W32138   5.242  12.105  11.081  0.0988 -0.0084  0.2020
13285W        W32139   6.537  12.871  12.457 -0.1725 -0.2802  0.0404
13286W        W32140   6.068  15.459  14.572  0.2585  0.1118 -0.0289
13287W        W32141   9.211  13.507  14.174  0.0164  0.3773  0.0817
13288W        W32142  14.629  17.344  13.255  0.1230  0.2750 -0.2345
13289W        W32143  17.674   1.508   0.353 -0.1103  0.2702  0.3514
13290W        W32144  11.112   5.060   0.978 -0.1094 -0.0584 -0.1063
13291W        W32145  10.423  17.190   2.296 -0.1852  0.3920  0.0985
13292W        W32146  17.077   9.548   2.866 -0.0095 -0.0576  0.4110
13293W        W32147   7.852  15.620  14.744 -0.2686  0.0871 -0.2216
13294W        W32148  10.339   4.582   4.959 -0.0784 -0.1207  0.0207
13295W        W32149   6.333   9.883   5.967  0.1349 -0.0480  0.2370
13296W        W32150   0.658   4.773  11.366 -0.5582  0.0496  0.0738
13297W        W32151   7.844   1.710  12.361  0.1755  0.0272 -0.2700
13298W        W32152  12.953   8.083  14.735  0.4696  0.0635  0.2067
13299W        W32153  14.722   4.501   2.264 -0.0849 -0.1070 -0.1811
13300W        W32154  16.500   7.071  14.916  0.0098 -0.0934  0.0402
13301W        W32155   6.403  11.634  10.754 -0.1914  0.0187  0.0121
13302W        W32156   8.571  16.700   0.918 -0.0077 -0.0157  0.0190
13303W        W32157   7.118  15.811   1.421  0.3553 -0.0627  0.3448
13304W        W32158  14.317  18.268  13.237 -0.1598  0.1481 -0.2763
13305W        W32159   9.369  16.929  11.742  0.4349  0.1037  0.0062
13306W        W32160   4.891   0.175  13.503  0.1182 -0.1568 -0.0917
13307W        W32161  12.520  17.966   1.489 -0.0929  0.2451  0.3063
13308W        W32162  13.805  11.924   0.218 -0.0267  0.3175 -0.0786
13309W        W32163   5.961   2.567   1.803  0.0302  0.0063  0.1684
13310W        W32164   9.245  14.913  11.686  0.1209  0.0198 -0.0129
13311W        W32165   9.052  12.202  14.335 -0.1283  0.1707  0.3475
13312W        W32166  14.471  14.103  14.542  0.1758  0.0776  0.0735
13313W        W32167  17.685   6.594   2.492  0.1521 -0.0766  0.1231
13314W        W32168   3.326  12.011  11.041  0.0622 -0.0409 -0.2636
13315W        W32169  13.658   1.409   1.636 -0.2860 -0.2200  0.0970
13316W        W32170   5.088   9.088   3.548 -0.1562  0.1398 -0.0805
13317W        W32171   2.239   7.392  14.219  0.1511  0.0946  0.1502
13318W        W32172   0.499  14.916  12.505 -0.0018 -0.1128 -0.2744
13319W        W32173   7.098   4.109  14.956 -0.0220 -0.0392  0.0740
13320W        W32174  13.737   1.591  11.143 -0.0435  0.1816 -0.0234
13321W        W32175   4.064  11.128  15.151 -0.5386  0.1834 -0.0639
13322W        W32176   8.502  14.161  13.823 -0.0471  0.1108 -0.1722
13323W        W32177   2.226  18.213  12.846  0.0502  0.1284  0.0140
13324W        W32178   9.613  12.505   2.987 -0.2003  0.1110  0.1186
13325W        W32179   8.028  17.686  10.785  0.1158 -0.2793  0.0147
13326W        W32180  15.360  10.023  13.313  0.1395 -0.0033  0.2640
13327W        W32181   8.572  17.409   0.581 -0.5999  0.2812 -0.1483
13328W        W32182  18.182   5.741   0.321  0.2378 -0.1459  0.0682
13329W        W32183  10.963  13.596   4.326 -0.0214  0.2307  0.0350
13330W        W32184   5.245   2.128   3.249  0.0650 -0.0974  0.2643
13331W        W32185   6.248  17.654  14.094 -0.1278  0.1144 -0.1300
13332W        W32186  17.355   7.405   2.053 -0.0470  0.3092 -0.2242
13333W        W32187   3.251   5.615   2.541 -0.0951 -0.2061 -0.1557
13334W        W32188   3.554   2.410   2.343  0.2059 -0.1629 -0.0091
13335W        W32189  17.842   1.135   3.511  0.1831 -0.1571 -0.0167
13336W        W32190  17.519   3.272  10.313  0.1905 -0.0741  0.2375
13337W        W32191   2.817   3.470   1.095 -0.0333 -0.1548  0.3086
13338W        W32192   9.515  17.326  11.141  0.0101  0.0282 -0.1660
13339W        W32193   5.366   2.198  11.631 -0.0471 -0.2446  0.0271
13340W        W32194  17.001   8.132   0.081  0.0400  0.1145 -0.2077
13341W        W32195   5.495  16.012  11.542  0.0186  0.2084  0.2671
13342W        W32196   6.004  12.084  14.157 -0.2519 -0.0617  0.2713
13343W        W32197  10.746   5.496   1.484  0.1114  0.2847  0.3532
13344W        W32198   7.404   9.814  12.270  0.0815 -0.0393 -0.0311
13345W        W32199  13.239  15.268   0.969 -0.1177 -0.0698  0.3959
13346W        W32200  17.262   6.530  13.777 -0.1150 -0.0386 -0.0453
13347W        W32201  12.544   6.327  14.458 -0.1805  0.2381  0.2924
13348W        W32202   4.171   0.974   1.348  0.0161 -0.0991  0.1077
13349W        W32203  11.738   9.846   0.873  0.0550 -0.0081 -0.1938
13350W        W32204   2.052  12.904  13.734 -0.0025 -0.0946 -0.1647
13351W        W32205   5.199   9.370   0.167 -0.0821 -0.0168  0.2267
13352W        W32206   2.755  16.962  13.354  0.0812 -0.0402 -0.3398
13353W        W32207   4.686  15.420  10.951 -0.2364 -0.3347 -0.0505
13354W        W32208   8.398   9.705  12.235 -0.2374 -0.2342  0.0268
13355W        W32209   8.370  11.978   1.851  0.1443 -0.1607 -0.1333
13356W        W32210  12.530  16.930   3.959  0.1241  0.0854 -0.0044
13357W        W32211   6.504  17.602   2.616 -0.2713 -0.0213  0.0236
13358W        W32212  13.041   7.412   3.046 -0.1457 -0.0164  0.1375
13359W        W32213  11.658   8.957   1.720  0.0230  0.0807 -0.1206
13360W        W32214   4.742  12.469   1.824  0.1408  0.3063  0.0958
13361W        W32215   7.793   3.213   1.505 -0.0257  0.3525 -0.0584
13362W        W32216   8.331   6.616  11.331  0.0524 -0.0662 -0.1658
13363W        W32217  16.620  17.319   0.236  0.2322  0.2643 -0.0670
13364W        W32218  14.963   4.979  15.195 -0.0353 -0.2101  0.0702
13365W        W32219   3.194  10.828  15.271 -0.0371  0.1399 -0.3596
13366W        W32220   0.845  11.137   0.723  0.0461  0.0251  0.0122
13367W        W32221   5.981  13.053   2.297  0.1798  0.0392 -0.1484
13368W        W32222  18.230  16.902   1.099 -0.2235  0.2118  0.1181
13369W        W32223  18.196   0.823  14.464 -0.2691  0.1031 -0.1824
13370W        W32224   9.935   7.872  13.530 -0.0622 -0.0707 -0.0457
13371W        W32225   8.979   1.461   4.346 -0.0458 -0.1782  0.0514
13372W        W32226   0.905  16.853   3.382 -0.1571  0.0917  0.0756
13373W        W32227   5.141  17.429  12.050  0.0146  0.3200  0.1340
13374W        W32228   0.888  10.242  13.313  0.1159 -0.0145 -0.0393
13375W        W32229   1.874  11.872  10.876  0.0553 -0.1399 -0.1393
13376W        W32230  16.247  17.654   0.414  0.4575 -0.0646  0.1158
13377W        W32231   3.145   6.064  10.865 -0.0419  0.1889 -0.3219
13378W        W32232   3.937   6.999  14.524  0.0645  0.2793 -0.0693
13379W        W32233   6.005  10.903   2.395 -0.0340 -0.2860 -0.0671
13380W        W32234  11.482  10.791  15.322 -0.1764 -0.0543 -0.0147
13381W        W32235  13.858   9.258   1.384  0.1394 -0.1164 -0.1011
13382W        W32236  17.732   1.432  13.830 -0.1317  0.1555  0.0064
13383W        W32237   5.822  17.894  12.767 -0.0398  0.1622 -0.0467
13384W        W32238  16.906  15.707   0.419  0.1136 -0.2118  0.1603
13385W        W32239   4.878   6.233   0.994 -0.2662  0.1679 -0.2165
13386W        W32240   7.986  14.484   0.428  0.2466  0.0395 -0.1401
13387W        W32241  14.436   1.015  11.157 -0.2461  0.1957  0.0671
13388W        W32242  15.828   0.780  11.708 -0.0294  0.0561  0.1574
13389W        W32243  17.159  12.440  12.302  0.1551 -0.1180  0.0187
13390W        W32244   9.544   7.612   2.642  0.0824 -0.2932  0.0077
13391W        W32245   3.254   0.586   0.716 -0.0328  0.1486  0.0071
13392W        W32246   6.584   9.488  11.521 -0.2066 -0.0211  0.0612
13393W        W32247   8.842   0.462   4.371 -0.0363  0.1847 -0.0082
13394W        W32248   7.366   6.942   3.624  0.2576 -0.1392  0.0523
13395W        W32249   0.813  13.047   0.610 -0.0882 -0.0796  0.0281
13396W        W32250  15.490   2.679  13.551  0.1977 -0.0677  0.2940
13397W        W32251   7.220   7.361  12.152 -0.1462  0.0234 -0.1943
13398W        W32252   1.852   4.205  12.880 -0.0087 -0.2246 -0.0167
13399W        W32253   0.741  11.042  10.778 -0.2447 -0.0733  0.1930
13400W        W32254   6.918   5.060   4.511 -0.1542 -0.1953 -0.0033
13401W        W32255   2.995   8.069   0.191 -0.0944 -0.1984 -0.1899
13402W        W32256  12.916  18.079   4.594 -0.1188  0.4667 -0.0274
13403W        W32257   5.370  11.004   3.146  0.0313  0.1447  0.1058
13404W        W32258   7.837  16.512  13.783 -0.0730 -0.0866  0.0120
13405W        W32259   6.347  11.588  15.070 -0.3505  0.0652  0.2296
13406W        W32260  13.610  11.855   0.905 -0.1172  0.0742 -0.0654
13407W        W32261  12.019   9.736  14.774  0.0859 -0.1359 -0.3842
13408W        W32262   8.896   5.339   3.466 -0.1188  0.2380 -0.3256
13409W        W32263   3.758  11.251  14.687  0.0379  0.0032 -0.2882
13410W        W32264   2.473   5.890  12.283 -0.1151 -0.0949 -0.0851
13411W        W32265  12.801  12.291   0.099 -0.0693 -0.3808  0.1013
13412W        W32266   3.261   3.941   3.519 -0.0777  0.1602 -0.1388
13413W        W32267  11.930   8.139  14.890  0.2363  0.2245 -0.1598
13414W        W32268  14.565  16.865  12.638 -0.0132  0.1397  0.0354
13415W        W32269   7.825  16.340   4.186  0.0478 -0.2539 -0.0421
13416W        W32270  17.032  11.938   1.484  0.0361 -0.2437  0.0538
13417W        W32271  15.374   3.207  11.292  0.3222  0.2673 -0.2699
13418W        W32272  18.139   1.736  10.548  0.0335  0.1077  0.1101
13419W        W32273   4.165   7.069   2.585  0.0074 -0.1443 -0.0174
13420W        W32274   1.671   6.205   4.551  0.2297  0.3495 -0.0136
13421W        W32275  13.024  16.155   0.986 -0.1762 -0.3136  0.1991
13422W        W32276   8.042  15.279  14.296 -0.1397  0.0501 -0.0196
13423W        W32277  12.313  14.756   5.099 -0.4235 -0.1325  0.0055
13424W        W32278  10.185   3.925  14.624 -0.2414  0.1537  0.0189
13425W        W32279   8.755   5.384  14.515  0.1677  0.2394 -0.1317
13426W        W32280   7.616   1.487   1.962  0.2114 -0.1375  0.0813
13427W        W32281   4.682   2.319  11.517 -0.1138 -0.1549  0.3358
13428W        W32282   9.715  16.395   1.682 -0.1791  0.2981  0.0160
13429W        W32283   1.247   9.386  15.251 -0.1378  0.0887 -0.0857
13430W        W32284  15.917  16.441   3.171 -0.1062 -0.0962 -0.2495
13431W        W32285   7.323   7.050  14.689 -0.0160  0.0438 -0.1030
13432W        W32286   3.008  10.638   3.320 -0.1137 -0.1304 -0.0760
13433W        W32287   5.143   1.698  14.489 -0.0203  0.1325  0.1053
13434W        W32288  15.037   0.018  11.222  0.0729  0.1088  0.0066
13435W        W32289  14.210   8.855   0.404  0.2428  0.0604  0.3721
13436W        W32290  11.951   6.882   3.624  0.0788 -0.1764 -0.0968
13437W        W32291  10.031   9.406  15.404 -0.2320  0.0334 -0.1886
13438W        W32292  16.500  17.288   2.269  0.3081 -0.1675 -0.2479
13439W        W32293  16.620  10.049  11.821  0.1803  0.0453 -0.2700
13440W        W32294  11.965  18.151  13.183  0.1916  0.0305 -0.1079
13441W        W32295   8.794   6.514   1.044  0.0452  0.1244 -0.2499
13442W        W32296  11.063  10.184  15.282  0.0394  0.0654  0.0583
13443W        W32297  15.980   3.226   0.858 -0.0397 -0.3228 -0.0056
13444W        W32298   4.476  11.411   3.667 -0.0329  0.1228 -0.2943
13445W        W32299   8.554  15.423  14.327 -0.3732 -0.0475  0.2024
13446W        W32300   3.266  12.036   1.250  0.0188 -0.3183 -0.1480
13447W        W32301   9.399   3.084  14.576  0.1361  0.0881  0.1890
13448W        W32302   9.396   4.118  13.127 -0.1437 -0.0137  0.0786
13449W        W32303  16.428  16.888  15.021 -0.1531  0.0563 -0.0726
13450W        W32304   3.640   3.956  15.062 -0.2603 -0.0690 -0.1113
13451W        W32305   2.809   0.228   4.164 -0.4257 -0.0484 -0.1802
13452W        W32306   7.599   7.608  12.460 -0.1868 -0.1390  0.3861
13453W        W32307   6.449  13.470   3.236 -0.0324 -0.2715 -0.1283
13454W        W32308   1.312  18.180   2.849 -0.2593  0.2872  0.0501
13455W        W32309   5.265  12.914  11.672  0.3618 -0.0622  0.2627
13456W        W32310  13.751   6.229   3.545  0.2247  0.1373 -0.0746
13457W        W32311  14.479   1.773  11.762 -0.0893 -0.0431  0.0950
13458W        W32312  13.706  11.077  15.151 -0.2051 -0.1198 -0.0276
13459W        W32313   7.798   2.060  13.378 -0.2721 -0.0352 -0.1713
13460W        W32314  16.109   3.334   2.073  0.0531 -0.1721  0.1107
13461W        W32315   1.494   2.846   1.586  0.3336 -0.0082 -0.1632
13462W        W32316  15.270  14.916   1.697 -0.0844 -0.1820 -0.0249
13463W        W32317   3.386   1.983   3.588  0.0150 -0.2729 -0.0798
13464W        W32318  12.108   5.639   4.412 -0.0049  0.2944  0.0927
13465W        W32319  10.116  14.858  11.010 -0.0350 -0.0237 -0.0023
13466W        W32320   7.615  10.958  14.355  0.1011  0.2249 -0.1094
13467W        W32321  13.458  10.297  11.949 -0.1932  0.0876 -0.2797
13468W        W32322   8.390   2.505  12.215 -0.0914 -0.2503  0.1468
13469W        W32323   1.433  14.760  10.854  0.1722 -0.1481  0.0386
13470W        W32324   1.734  13.780   4.197 -0.0406  0.0575 -0.0105
13471W        W32325   6.513   9.294   1.782  0.3252 -0.1733 -0.0844
13472W        W32326  14.029  10.800   4.122 -0.0755 -0.1938  0.0314
13473W        W32327   9.911  11.747   4.172  0.1406  0.2679 -0.0028
13474W        W32328   6.582   1.960   3.695  0.1623 -0.2757 -0.2513
13475W        W32329   3.764   7.150   1.368 -0.1331  0.2394  0.0577
13476W        W32330   5.210   4.120   2.826 -0.0443 -0.2051 -0.2475
13477W        W32331  18.498   8.554   4.065  0.0442  0.2163  0.0182
13478W        W32332  17.508   3.112   4.263 -0.2438 -0.1406 -0.2313
13479W        W32333  12.049  17.207   2.296  0.0396  0.2041 -0.1413
13480W        W32334   3.391   0.437  11.607 -0.1001  0.2941 -0.0270
13481W        W32335   2.662   9.418  15.111 -0.0439 -0.0873  0.0914
13482W        W32336  11.407   0.911   0.052 -0.1656 -0.2507 -0.1621
13483W        W32337  11.810   9.569  13.890 -0.1934  0.1524 -0.1036
13484W        W32338   5.373  14.308  14.552 -0.0324 -0.0518 -0.1454
13485W        W32339   7.008   2.072   4.019  0.1102  0.2270  0.1217
13486W        W32340   9.300   8.162  10.563  0.2331 -0.0715 -0.0078
13487W        W32341   0.086  15.428  11.040 -0.1680  0.3106  0.0965
13488W        W32342  12.407   3.285   3.070 -0.2720  0.0676 -0.0237
13489W        W32343  12.982   6.850  11.672  0.2088 -0.2839  0.1389
13490W        W32344   1.915   2.208  11.658  0.1542 -0.1022  0.0281
13491W        W32345   3.465   9.748  14.399 -0.0397  0.0252  0.1251
13492W        W32346  16.309  13.330   0.856 -0.1915  0.3088 -0.2419
13493W        W32347  15.216   9.801  14.743 -0.0780 -0.1565  0.1161
13494W        W32348   7.555   2.304  13.751 -0.0561  0.4504 -0.1388
13495W        W32349  16.507   1.632  13.395 -0.1214 -0.1459  0.1733
13496W        W32350  10.972   3.123   3.966 -0.2206  0.0078 -0.1812
13497W        W32351   8.810  13.669   4.903  0.1261 -0.0220  0.2114
13498W        W32352   4.750   8.679   0.598  0.3180  0.1607  0.2900
13499W        W32353  14.373   0.609  11.414  0.0563 -0.2619 -0.0712
13500W        W32354   8.237   5.440   0.753  0.1815 -0.1388 -0.0317
13501W        W32355   1.231  17.402   3.384  0.1225 -0.1887 -0.0420
13502W        W32356   8.401  14.560   2.038  0.1567 -0.3400 -0.1743
13503W        W32357   5.585  17.916   5.027  0.0869  0.1682  0.1102
13504W        W32358  16.782  15.585   4.203  0.0885  0.1164  0.1807
13505W        W32359   8.275   9.739   1.688  0.2331  0.0320  0.2393
13506W        W32360  17.026  10.473  14.711 -0.1560 -0.1382 -0.2146
13507W        W32361  10.991  18.490  10.924  0.0835 -0.1677  0.0614
13508W        W32362  12.657  15.395   4.733 -0.0092  0.1581  0.1731
13509W        W32363   0.883   6.208  14.555  0.3080  0.0794  0.0539
13510W        W32364  13.479  11.506  13.978 -0.0071 -0.0778  0.2113
13511W        W32365   9.127   0.643   2.648 -0.3179  0.1534 -0.1677
13512W        W32366  16.289   9.251   0.843 -0.0403 -0.0815  0.1582
13513W        W32367   4.747   5.540  14.721  0.3597  0.1760  0.1920
13514W        W32368   8.675  16.953  11.060  0.1159  0.0992 -0.0072
13515W        W32369  14.954  10.248  12.535  0.2677  0.0078  0.1337
13516W        W32370   2.976   8.045   4.938  0.1847  0.1674 -0.1020
13517W        W32371   4.283  16.334   0.814  0.0991 -0.2203 -0.1542
13518W        W32372  12.354   1.284   2.561 -0.0707  0.1131 -0.0293
13519W        W32373   3.789  12.091   2.670 -0.1999 -0.0940  0.0422
13520W        W32374   5.845   8.943  12.111 -0.0963  0.0222  0.1292
13521W        W32375  18.255   1.125  11.048  0.1358 -0.0409  0.1949
13522W        W32376  12.610   0.267  13.480  0.1602  0.1132 -0.0590
13523W        W32377  10.233   6.152   0.307  0.4554 -0.2422  0.0328
13524W        W32378  13.516  17.096  11.868 -0.0637 -0.2466  0.1119
13525W        W32379   4.881  13.357   3.547 -0.1402 -0.0049  0.1670
13526W        W32380   5.725   7.637  13.993  0.1054 -0.3934  0.2322
13527W        W32381  10.304   4.259   3.478  0.1556 -0.2085  0.1430
13528W        W32382  11.739   4.056   2.988  0.1388 -0.1046 -0.1395
13529W        W32383   8.253   8.867  13.706  0.0395  0.2469 -0.2385
13530W        W32384  18.459   4.227  15.277 -0.1521 -0.2466 -0.3122
13531W        W32385  14.376   7.367  11.462  0.0907 -0.1715 -0.0785
13532W        W32386  10.853  14.262  12.325  0.1384  0.2921 -0.2605
13533W        W32387  11.942  10.760  14.051  0.0743 -0.3152  0.2390
13534W        W32388  12.528   6.765   3.553  0.1600  0.1804 -0.1855
13535W        W32389  15.145   8.613  12.711  0.3227 -0.1907 -0.1547
13536W        W32390   3.245  17.279   2.208  0.1492  0.0441  0.0303
13537W        W32391   0.826   2.354  14.448  0.2838  0.4664 -0.0873
13538W        W32392   4.430  12.180  11.316  0.0097 -0.3073  0.1099
13539W        W32393   7.874   0.698   1.881  0.0493 -0.0019 -0.0929
13540W        W32394   7.294   5.520  13.518  0.0984  0.0265 -0.1963
13541W        W32395  17.643  12.295   2.902  0.4619 -0.0686 -0.3578
13542W        W32396   8.638  11.072   0.789 -0.1816  0.1250 -0.0603
13543W        W32397   8.226   2.719   1.381 -0.1407  0.2602  0.0323
13544W        W32398   2.390  13.045  13.375  0.1929  0.1397  0.0575
13545W        W32399   6.833   2.946   3.109  0.1108  0.1042  0.1801
13546W        W32400   5.646  16.511   2.526 -0.0098 -0.0597  0.1023
13547W        W32401  13.954  13.231   0.779 -0.0599  0.0954  0.1478
13548W        W32402  12.469  17.453   2.285  0.1340  0.2122 -0.0897
13549W        W32403   1.175   6.573  14.166 -0.1652 -0.1777 -0.0177
13550W        W32404   9.190  11.052  15.253  0.2016 -0.0637 -0.1715
13551W        W32405   0.358  10.976   3.308 -0.2352 -0.0358  0.0965
13552W        W32406  15.278   0.403   3.949 -0.1528  0.2053  0.0043
13553W        W32407  15.484   0.999   0.838  0.1185  0.2963 -0.2441
13554W        W32408  11.531   0.458   0.917  0.2765  0.3967 -0.2510
13555W        W32409   8.452  11.232   3.683 -0.0906  0.1710 -0.2436
13556W        W32410   1.573  10.218  10.154 -0.0497  0.0224 -0.1904
13557W        W32411  14.709  14.938   1.565  0.0423  0.0720  0.2120
13558W        W32412  12.683  11.983   4.316  0.0908  0.2191  0.2826
13559W        W32413  10.289   8.091   2.915 -0.0586  0.1509  0.2934
13560W        W32414  13.881   9.266  12.731  0.0537  0.1113 -0.1656
13561W        W32415   9.029  15.074   4.786  0.0071  0.2191  0.2387
13562W        W32416  12.983   9.453   0.823  0.1535  0.1975 -0.4131
13563W        W32417  11.757   8.612   0.725 -0.2203 -0.2410  0.2577
13564W        W32418  17.882   7.311   2.060 -0.1511 -0.0494  0.0677
13565W        W32419   4.788   8.759  15.102 -0.1933 -0.4345  0.1073
13566W        W32420   2.245   7.825  13.927  0.1512 -0.0605 -0.1079
13567W        W32421  11.143  15.513  12.701  0.1616 -0.0924  0.0483
13568W        W32422  15.929   1.564  15.216  0.1691  0.4309  0.0346
13569W        W32423  18.012  12.808   0.587  0.0393  0.0956  0.0014
13570W        W32424   9.777   8.129   2.131 -0.3422  0.0389 -0.1568
13571W        W32425   2.581  11.289   0.008  0.1784 -0.0066  0.0744
13572W        W32426   3.475  10.845   1.933  0.2997 -0.2495  0.0882
13573W        W32427   1.509  11.797   3.586 -0.3096  0.4219 -0.0252
13574W        W32428  10.139   8.497   1.789  0.2338  0.1798 -0.3104
13575W        W32429  16.058  10.406  13.445 -0.2598 -0.0699  0.2067
13576W        W32430  13.080   7.529  14.539  0.0353 -0.1678 -0.1220
13577W        W32431  17.602  14.865  13.710 -0.1173 -0.0145  0.0418
13578W        W32432   0.830   6.848   4.031 -0.0907  0.1813 -0.1120
13579W        W32433  12.387   1.691  12.407 -0.2990  0.5502 -0.1950
13580W        W32434  11.349  11.098   2.361 -0.3052  0.3301 -0.0299
13581W        W32435   3.772  12.481  15.206 -0.0519 -0.1718  0.0616
13582W        W32436  16.379   8.341  10.772 -0.1627 -0.0017 -0.1581
13583W        W32437  16.229  10.934  11.321  0.2228  0.2616 -0.0957
13584W        W32438  11.902  17.648   0.126  0.0751 -0.1164 -0.1101
13585W        W32439   6.944  17.926  12.059  0.0469  0.2388 -0.0746
13586W        W32440   1.869   8.940   3.847  0.1516  0.1415  0.0178
13587W        W32441  13.131  15.927   1.658 -0.0900  0.1063  0.2141
13588W        W32442  12.448  14.147   3.209  0.1636  0.1114  0.4867
13589W        W32443  10.679  10.108   3.972 -0.1897  0.1136  0.1201
13590W        W32444   2.603   6.805  11.535  0.0048  0.3038 -0.1455
13591W        W32445  11.859  12.146   2.456  0.0092 -0.0646  0.0403
13592W        W32446   3.122   3.439  11.998 -0.0252  0.3013 -0.1398
13593W        W32447   2.474   8.116   1.862 -0.1301  0.1726  0.2554
13594W        W32448  10.125   7.220  14.629 -0.0418 -0.2258 -0.1133
13595W        W32449   2.381  17.072   1.117  0.1190 -0.0200  0.0815
13596W        W32450   2.985  17.501  14.711 -0.0301  0.1634 -0.3435
13597W        W32451   0.795  12.133   0.792  0.1350 -0.5367 -0.0201
13598W        W32452  11.270   2.873   0.663 -0.1381 -0.3006 -0.1911
13599W        W32453   4.078   6.545   0.142 -0.1933 -0.1062 -0.2235
13600W        W32454   5.039   5.801   0.835 -0.4779 -0.0308  0.0677
13601W        W32455  10.864  13.407   1.363 -0.0721 -0.0319 -0.2217
13602W        W32456  12.464   8.838  11.563 -0.0189  0.1541 -0.0608
13603W        W32457  12.272  12.558   1.804 -0.1584 -0.1033 -0.3041
13604W        W32458   2.576   5.844   1.698 -0.2519  0.3718  0.0753
13605W        W32459  10.855   1.668   4.587  0.0502 -0.1657  0.0169
13606W        W32460   6.694   4.311  14.657 -0.2497  0.1757  0.1964
13607W        W32461   6.029   1.859   0.723 -0.1056 -0.4430 -0.0246
13608W        W32462   2.605   4.132   1.605 -0.3009 -0.0918 -0.1164
13609W        W32463  14.546   4.900   1.065  0.0031 -0.4118 -0.2324
13610W        W32464  13.793   4.230   2.796 -0.1234  0.2526 -0.2007
13611W        W32465   1.508  17.793  14.109 -0.0596 -0.0177  0.3118
13612W        W32466  15.180  13.055   0.396  0.1667  0.0204  0.2426
13613W        W32467  11.690  17.278   4.711  0.0656  0.0256 -0.2861
13614W        W32468   9.979  17.264   1.546  0.0523  0.1143  0.1685
13615W        W32469   2.947  11.019  12.900  0.0890 -0.2705  0.3895
13616W        W32470  12.877  10.627   0.020  0.0324  0.0664  0.1013
13617W        W32471   4.459  15.804   3.833  0.2066  0.0527  0.0740
13618W        W32472  12.781  16.569  12.265  0.0080  0.1259  0.1862
13619W        W32473  13.309  12.729  11.174  0.0094 -0.2812  0.1096
13620W        W32474  12.616   9.143   1.733 -0.2868 -0.0024  0.2260
13621W        W32475  12.728   9.367  14.062 -0.1292 -0.2415 -0.2037
13622W        W32476  15.127   3.586   2.037  0.2011 -0.0220  0.0010
13623W        W32477   5.791   9.171  11.576 -0.0924 -0.0126 -0.1676
13624W        W32478   9.372  13.807  12.824  0.1908  0.0683  0.1847
13625W        W32479   0.451  15.216  10.797 -0.0174  0.1147 -0.2335
13626W        W32480   3.086   4.693  13.096 -0.1620 -0.1169  0.2359
13627W        W32481  18.119   6.090  12.713 -0.1411  0.0691 -0.0344
13628W        W32482   6.970  12.193  10.805 -0.2023  0.0590  0.0711
13629W        W32483   4.812  16.554   0.682  0.0502 -0.0460 -0.1012
13630W        W32484  10.856   3.888  12.842 -0.0113 -0.3992 -0.0946
13631W        W32485   7.917  10.970  11.347 -0.0068  0.0144 -0.3778
13632W        W32486   2.715  16.079   3.131  0.0991 -0.0360  0.1291
13633W        W32487   8.622  15.237   0.190  0.0839  0.1887 -0.1236
13634W        W32488   8.282   7.123   2.632 -0.1661 -0.0572  0.0020
13635W        W32489   9.214   8.637  14.323 -0.0961  0.1444 -0.0681
13636W        W32490  11.643   3.651  12.117 -0.2861 -0.0600  0.0040
13637W        W32491  11.807  16.256   0.431 -0.0362 -0.0985  0.1365
13638W        W32492   9.807  18.198   3.074  0.3216  0.1842  0.0012
13639W        W32493  12.407   5.321   2.749 -0.1575 -0.1261  0.0194
13640W        W32494  11.199  15.999   1.223  0.1322  0.3311  0.2666
13641W        W32495  12.343  17.172   0.072  0.1906 -0.1812 -0.0849
13642W        W32496  17.721  10.501  13.456 -0.0721 -0.3731  0.3379
13643W        W32497  10.913   5.670   0.957  0.0036  0.0425 -0.2315
13644W        W32498   0.897   0.685  14.881  0.2188 -0.0381 -0.0398
13645W        W32499   3.312  11.370   4.349 -0.4639  0.1087 -0.0968
13646W        W32500   7.907   3.794   2.251 -0.0354 -0.1057  0.1462
13647W        W32501  10.373  14.991   1.838 -0.1291  0.1574 -0.0453
13648W        W32502   8.435  12.292   3.560  0.0792 -0.0329 -0.2595
13649W        W32503  15.091  14.533   5.571 -0.0737 -0.1070 -0.1792
13650W        W32504  12.564  18.078  11.655  0.1288 -0.0329  0.0474
13651W        W32505   5.310   4.695   3.783  0.0956 -0.2157 -0.2647
13652W        W32506   4.093   7.505  12.173 -0.2427  0.0690 -0.0462
13653W        W32507   6.087  12.598   2.942 -0.1024  0.1546  0.0495
13654W        W32508   9.709  10.882  13.881 -0.0323  0.1397 -0.0333
13655W        W32509  12.304   0.375  12.042 -0.2218 -0.1114 -0.1169
13656W        W32510  18.324   9.763   3.344 -0.1031 -0.0567 -0.0363
13657W        W32511   4.410  16.417  10.922 -0.0403 -0.1406 -0.0757
13658W        W32512   2.721  17.838   1.134  0.0176  0.0087 -0.2226
13659W        W32513   6.660  13.741  13.329  0.1247 -0.0081  0.0990
13660W        W32514  16.957  16.764   1.081  0.0781 -0.0192 -0.0315
13661W        W32515   2.614  11.608  13.596 -0.0473 -0.2162 -0.1748
13662W        W32516  14.009   1.743  10.784  0.3720 -0.0991  0.0220
13663W        W32517   8.901   7.430   3.189 -0.0865 -0.3757  0.1980
13664W        W32518  14.925   5.888   3.263  0.0667 -0.0050 -0.2061
13665W        W32519   9.114  17.409   1.300  0.1478 -0.2187  0.1580
13666W        W32520  13.733  15.728   0.258  0.2490  0.0492  0.0438
13667W        W32521  17.664   0.360  13.898  0.0797  0.1388  0.1187
13668W        W32522   5.152  14.032  15.271 -0.0022 -0.1140  0.2573
13669W        W32523  18.132  17.890  15.233  0.1469  0.1028 -0.1466
13670W        W32524   4.029   3.142   2.691 -0.2351  0.1489 -0.0271
13671W        W32525   4.383   5.843  12.457 -0.1249 -0.1680 -0.2747
13672W        W32526   1.738   1.937   0.872 -0.1395 -0.1667  0.1022
13673W        W32527   6.546   3.127  11.785 -0.0726  0.0516  0.3053
13674W        W32528  16.779  15.791  14.480  0.0743  0.0172  0.0007
13675W        W32529  13.924   7.357  14.116 -0.3903 -0.0806 -0.0222
13676W        W32530  18.103   1.202  10.479  0.1537  0.0416 -0.2293
13677W        W32531  17.619   0.145   2.646 -0.0492  0.1553 -0.1024
13678W        W32532   5.749  11.262   1.623 -0.3147  0.3463 -0.2229
13679W        W32533   8.332  11.746  13.753  0.3336  0.0588 -0.0199
13680W        W32534   9.211   2.726  11.266 -0.3340 -0.1647 -0.0238
13681W        W32535  11.221  10.373   3.943  0.1697  0.2837  0.0612
13682W        W32536   8.081   3.742  12.200  0.0676 -0.0237  0.1520
13683W        W32537  12.349   5.826   1.456  0.0721 -0.0358  0.1553
13684W        W32538   5.337   4.504  10.493 -0.2617  0.0120  0.0975
13685W        W32539   3.368   1.119  11.732  0.0671 -0.0947  0.0144
13686W        W32540  11.474   4.018  11.267  0.2041 -0.2130 -0.2106
13687W        W32541  18.389   9.748   2.345 -0.0955 -0.0737  0.4850
13688W        W32542  15.781  11.381   0.209  0.2655  0.0068  0.0378
13689W        W32543   7.029  12.053  11.293  0.0898 -0.1530  0.1382
13690W        W32544  17.134   1.168   2.941  0.1632  0.0701  0.2574
13691W        W32545  17.529  11.320  12.043 -0.2731 -0.0283 -0.3277
13692W        W32546  15.395   8.077  10.404 -0.1317  0.0458 -0.1418
13693W        W32547   4.525   1.341   2.140  0.0853  0.2708 -0.1477
13694W        W32548  16.439  16.737  13.934  0.0154  0.3056  0.1149
13695W        W32549  12.162  13.538   0.887  0.0947 -0.1430  0.0450
13696W        W32550  14.246   6.984  15.008  0.2891 -0.2684  0.0764
13697W        W32551  12.211  12.907   2.552 -0.0261 -0.0906 -0.2141
13698W        W32552   9.642   6.347   1.533  0.1436  0.0179  0.4313
13699W        W32553  10.823  17.905   4.796 -0.0391 -0.0426 -0.2719
13700W        W32554   7.021   8.572   2.612 -0.3774 -0.0026 -0.1105
13701W        W32555   4.672  17.371   3.121  0.1898  0.2612  0.3155
13702W        W32556   9.241   8.205   5.348  0.0139  0.0442  0.2117
13703W        W32557  10.364  14.181   4.471  0.1171  0.0057  0.2478
13704W        W32558   6.020  14.027  12.265  0.1251  0.0660 -0.0347
13705W        W32559   8.381   4.970  10.657  0.2487  0.3310  0.0691
13706W        W32560  12.534  13.408   1.547 -0.0271  0.1666  0.0337
13707W        W32561   8.262   0.505   0.933 -0.0385 -0.2935  0.0515
13708W        W32562   1.618  17.624   1.579 -0.2187  0.1250  0.0779
13709W        W32563   0.032   9.305  13.253 -0.0169  0.2287  0.0419
13710W        W32564   6.027   1.101  12.042  0.2336  0.0984 -0.4499
13711W        W32565   4.137   5.745   0.719 -0.2362  0.1461  0.1943
13712W        W32566   3.939  17.389  10.863 -0.0858 -0.1928 -0.1058
13713W        W32567  16.335   8.333   4.521  0.1151  0.2089  0.1617
13714W        W32568  18.553   4.554   3.783 -0.1027  0.0962 -0.0239
13715W        W32569   4.905   1.880  13.041 -0.2775 -0.1294  0.0944
13716W        W32570   2.968  16.340  15.144 -0.1018  0.1884 -0.0992
13717W        W32571   3.929  17.067   3.759  0.0454 -0.2191 -0.1630
13718W        W32572   7.639   6.433  15.112 -0.2297 -0.0168  0.0701
13719W        W32573   4.764   3.418  15.011 -0.3933 -0.1239 -0.0951
13720W        W32574  15.542  16.612   3.500  0.3467  0.0942  0.1452
13721W        W32575  17.560  12.270  11.059 -0.0545 -0.2943 -0.0409
13722W        W32576   2.272   7.894   1.351 -0.0346 -0.0437 -0.1011
13723W        W32577   2.829  12.966  14.733  0.2535 -0.0294 -0.2171
13724W        W32578  11.373   8.701   4.560 -0.2054  0.1173  0.2381
13725W        W32579   9.312   4.687   1.605  0.1614 -0.0345  0.2215
13726W        W32580   8.210   0.181  13.247 -0.1237 -0.4717 -0.0882
13727W        W32581  17.099  15.640   3.789  0.5660 -0.0260 -0.1076
13728W        W32582  12.376   1.477   4.852 -0.1156  0.0314 -0.1895
13729W        W32583   3.827   4.824  13.054 -0.0632  0.0376  0.1363
13730W        W32584  14.713   6.722   3.480  0.1213 -0.1129 -0.0967
13731W        W32585   9.226   4.661  11.113  0.2380  0.0816 -0.1676
13732W        W32586   7.946  17.951   3.019  0.1050 -0.1262  0.2475
13733W        W32587   9.646  17.765  15.173 -0.0936  0.3602  0.1042
13734W        W32588   6.687   1.376   3.701  0.2210 -0.0685  0.1395
13735W        W32589   8.708   9.219   2.509 -0.1251 -0.0229 -0.2005
13736W        W32590  15.411  14.805  14.439  0.0567 -0.0755  0.2856
13737W        W32591   8.550   2.543   3.410  0.1894  0.5182  0.1907
13738W        W32592  15.927  15.826  14.823 -0.0590 -0.2392  0.1525
13739W        W32593  17.663   4.325  13.657  0.2631  0.2778 -0.0838
13740W        W32594   9.759   9.173   5.623  0.0546 -0.1841  0.1951
13741W        W32595  14.152  11.957   3.518  0.1661  0.2109  0.1807
13742W        W32596  13.447   3.554   3.536 -0.1584 -0.0178 -0.2881
13743W        W32597  12.567   9.407   0.503 -0.1321  0.1985 -0.1127
13744W        W32598   1.056   2.563  13.758  0.0349 -0.1452 -0.0047
13745W        W32599  11.887  13.531  15.360  0.0706  0.1478 -0.1245
13746W        W32600   5.608  16.704  14.741 -0.1362  0.5137  0.0126
13747W        W32601   3.273  11.436   2.472  0.0358 -0.0612 -0.0464
13748W        W32602  16.455   7.080  15.451 -0.0878  0.1452 -0.2661
13749W        W32603  17.846  18.393  11.056 -0.1261  0.0781 -0.0262
13750W        W32604   1.919  17.498   2.039  0.1478  0.0604 -0.0626
13751W        W32605   2.620  11.045   9.752 -0.2268  0.0542 -0.0074
13752W        W32606  10.079   5.438   4.027  0.5026  0.1804  0.0766
13753W        W32607   7.315   0.907  10.008 -0.0264 -0.3105 -0.0833
13754W        W32608   1.426  11.891   1.602  0.2517 -0.3004 -0.3272
13755W        W32609   8.602  10.251   0.744  0.1701 -0.2217 -0.1223
13756W        W32610  13.710   1.105  11.280 -0.1805 -0.0646  0.0446
13757W        W32611  12.198   8.961  15.267 -0.0536 -0.0345  0.0977
13758W        W32612   2.920  13.560  12.075 -0.0842  0.2556 -0.1325
13759W        W32613  13.937  16.942  10.992 -0.0780 -0.2410  0.0238
13760W        W32614   3.262  10.206  12.887 -0.2670  0.3640 -0.1108
13761W        W32615  12.712  15.547  11.352  0.0348  0.3817 -0.2464
13762W        W32616   8.501  13.564  11.063  0.2953  0.0066  0.0393
13763W        W32617  14.786   0.661   2.910 -0.1085 -0.0290 -0.2215
13764W        W32618  15.130   3.128   1.728 -0.0808  0.1486 -0.1664
13765W        W32619  18.291  12.193  13.496  0.0962  0.0658  0.0713
13766W        W32620   7.931  17.714  11.328  0.0911 -0.4409 -0.0951
13767W        W32621   0.881   5.745  14.746  0.1669  0.0139 -0.0864
13768W        W32622   9.252   9.537  14.114 -0.0732  0.0444  0.0026
13769W        W32623   6.703   6.798   0.390 -0.0958  0.1335  0.2202
13770W        W32624   8.918   2.757  13.825  0.1340  0.3497  0.0016
13771W        W32625  14.646  14.382   5.406  0.0650  0.5973 -0.0950
13772W        W32626   8.342  13.798   2.774  0.0127 -0.1681 -0.3246
13773W        W32627   2.066  11.489  13.251  0.0121 -0.1327 -0.2844
13774W        W32628  17.755   7.619  14.032  0.2335  0.2525  0.1566
13775W        W32629  11.492  16.907   2.306 -0.0928  0.0809 -0.1848
13776W        W32630   6.955   7.228   0.108  0.4328 -0.3774  0.2344
13777W        W32631  14.487   3.384  15.146 -0.1793  0.2640  0.3939
13778W        W32632  15.824  13.471  12.739 -0.0213  0.0188 -0.0863
13779W        W32633   1.916  14.610   4.379 -0.1245 -0.1535  0.0553
13780W        W32634   2.419   1.254  12.602  0.2206 -0.1403  0.0285
13781W        W32635   5.270   8.063   2.104  0.2147 -0.1445 -0.0672
13782W        W32636  13.392  11.144   3.769  0.2440 -0.3794 -0.1511
13783W        W32637  14.034  11.752   1.821 -0.0977 -0.0383  0.0629
13784W        W32638   7.836  14.302   4.899 -0.1367  0.1285  0.2723
13785W        W32639  11.887   9.670   4.148  0.1746  0.0616  0.0701
13786W        W32640  16.583   3.706   2.049  0.1711  0.4161 -0.2361
13787W        W32641   7.559  10.334   4.485  0.0606 -0.1116 -0.1137
13788W        W32642   7.099  11.266   0.896 -0.0898  0.1889 -0.0536
13789W        W32643   2.414   6.516   0.942  0.1212  0.1197  0.0997
13790W        W32644  17.913   1.932   0.889 -0.3363 -0.0037 -0.0543
13791W        W32645  15.789  11.914   3.097  0.1151  0.2893  0.3398
13792W        W32646   9.015   8.605  14.884 -0.2987  0.1393  0.1522
13793W        W32647   4.483  18.041  12.114  0.1840 -0.1637  0.1193
13794W        W32648  17.000  17.541   2.192  0.1964 -0.2157  0.0131
13795W        W32649   5.815   6.870   0.190 -0.0712 -0.3706 -0.0350
13796W        W32650  10.883  17.297  11.704 -0.1003 -0.1958 -0.0220
13797W        W32651   1.318  14.362   1.871  0.2677 -0.2519  0.0752
13798W        W32652  15.727   7.343  13.607 -0.0274 -0.1642 -0.1122
13799W        W32653  14.353  15.734  12.961  0.0555 -0.0426  0.2461
13800W        W32654   0.106  17.953  15.086  0.4029  0.1028 -0.1219
13801W        W32655   6.796  10.667   3.740 -0.2207  0.4027 -0.2763
13802W        W32656   9.098  15.159   2.392  0.3492 -0.3867  0.1978
13803W        W32657  14.305   2.648  12.183  0.1308  0.4184 -0.0310
13804W        W32658  17.058   4.474   1.380 -0.1422  0.0224 -0.3371
13805W        W32659   5.285   9.043   2.357 -0.0196 -0.0949  0.1903
13806W        W32660   4.702   4.360  11.608 -0.1836 -0.3016 -0.1571
13807W        W32661  13.605   8.095  10.479  0.0718 -0.1010 -0.2116
13808W        W32662  18.166  14.644  12.834  0.1691 -0.0331 -0.0460
13809W        W32663   3.541   5.721   1.482 -0.0402 -0.0193 -0.1030
13810W        W32664   0.256  11.489   2.134  0.0164  0.0850 -0.2584
13811W        W32665   7.611   5.107   0.142 -0.4495 -0.0150 -0.0445
13812W        W32666   7.756  16.220   3.690 -0.1131  0.0190 -0.0200
13813W        W32667   3.489  15.997  14.932  0.0419 -0.0860  0.1676
13814W        W32668   0.759  11.446  14.791 -0.0133 -0.0132  0.1337
13815W        W32669   7.835   1.117  13.167 -0.1269 -0.2485  0.1368
13816W        W32670   9.462  10.079   3.479 -0.1506 -0.1618 -0.1617
13817W        W32671  12.461  12.530   4.642 -0.0120 -0.1154  0.1744
13818W        W32672  17.354   5.604   0.406 -0.0490  0.0631  0.0630
13819W        W32673   2.053  16.466  10.399  0.1416  0.0966  0.0235
13820W        W32674  10.886  10.042   3.546 -0.1031  0.2511 -0.0335
13821W        W32675  14.190   8.749  12.322  0.0998 -0.1673  0.1219
13822W        W32676   1.779   7.074   0.999  0.1508 -0.2631 -0.2013
13823W        W32677  11.844  15.508  14.066 -0.0261  0.0357 -0.0356
13824W        W32678   0.075  12.063   2.691 -0.1793 -0.0037 -0.1156
13825W        W32679   4.715  11.350  14.450 -0.1829 -0.0189  0.3702
13826W        W32680   7.616  13.649   1.526 -0.0288  0.1033  0.2454
13827W        W32681  15.499   2.109   2.737  0.3073 -0.1170  0.0310
13828W        W32682  15.283   1.965   2.089 -0.0244  0.0550  0.0223
13829W        W32683  12.262  18.031   4.543  0.1380  0.2296 -0.1155
13830W        W32684   3.575   5.747  11.709  0.0253  0.0774 -0.2679
13831W        W32685   8.706   9.180   1.590 -0.0206  0.1940  0.0917
13832W        W32686  17.245   8.747   2.328 -0.1885  0.0870 -0.2791
13833W        W32687   2.619   2.916   2.440 -0.0371  0.2388 -0.1621
13834W        W32688   2.775   2.366   3.025  0.2372 -0.0929  0.1280
13835W        W32689  14.265   6.906  12.325  0.0282  0.0177 -0.1562
13836W        W32690  10.640   8.859  15.062  0.1239 -0.0238  0.3946
13837W        W32691  13.661   2.902  11.435  0.1459  0.0152  0.2122
13838W        W32692   1.848   1.487   3.710 -0.0829 -0.0733 -0.2489
13839W        W32693  10.201   6.969   0.726  0.1780  0.0593  0.0713
13840W        W32694  16.556  10.971   2.861  0.0626  0.1751  0.1912
13841W        W32695   4.198  13.015   2.458  0.0343 -0.0766  0.0245
13842W        W32696   6.304   0.533  15.020  0.1221 -0.2033  0.1281
13843W        W32697   9.868   8.496  11.613  0.4023  0.3200 -0.0018
13844W        W32698  11.939  15.629  14.668 -0.4169  0.1028  0.1471
13845W        W32699  11.464  16.273  12.338  0.1158 -0.0096  0.0908
13846W        W32700   1.080   6.027   3.470 -0.0228  0.0486  0.2730
13847W        W32701  13.717  13.588  10.925  0.0446  0.0048 -0.5323
13848W        W32702   7.381   1.213   4.452  0.2376  0.1854  0.0540
13849W        W32703   2.579   0.350   2.204  0.0826 -0.0194 -0.0431
13850W        W32704   7.869   2.237  15.289 -0.1481  0.4084 -0.4862
13851W        W32705   6.978  14.463  12.057  0.0987 -0.0764  0.0005
13852W        W32706   6.692   1.953  13.289  0.2855  0.0000 -0.3294
13853W        W32707   1.866   4.247   3.342  0.1211 -0.0870  0.2420
13854W        W32708  17.361   9.123  12.295  0.1488 -0.0258 -0.1915
13855W        W32709   9.958   8.355  14.176 -0.3664 -0.1824 -0.2821
13856W        W32710   2.984  15.881  14.799 -0.1448 -0.2636 -0.0479
13857W        W32711   2.018   1.816  12.424 -0.4238  0.3395  0.2393
13858W        W32712   6.193   0.758   3.071 -0.0005  0.0207 -0.1138
13859W        W32713  14.129  17.428   9.883  0.0022  0.4128 -0.0277
13860W        W32714   7.463   4.591   5.516 -0.1683  0.1456  0.0249
13861W        W32715  15.862  16.545  14.148 -0.1167  0.0549 -0.1293
13862W        W32716  15.464  16.371  14.385 -0.0483  0.0888  0.2246
13863W        W32717  10.685  12.369   1.063 -0.1933 -0.0354 -0.3914
13864W        W32718   4.531   2.676  14.542 -0.0575  0.2281 -0.1936
13865W        W32719   7.346  15.270  13.012 -0.0336  0.2234  0.1139
13866W        W32720   3.030   9.796  15.245 -0.2260  0.0274  0.2452
13867W        W32721   2.049   8.248  14.546 -0.0437 -0.1351  0.0670
13868W        W32722  15.750  13.639  11.771 -0.1886 -0.0410  0.0022
13869W        W32723   4.131  11.470  14.384 -0.4420  0.1195 -0.0243
13870W        W32724  10.752   5.325   3.263 -0.1252  0.0120 -0.1841
13871W        W32725   6.685  17.476   2.123  0.2879 -0.1850  0.0826
13872W        W32726   7.233   7.518  14.908 -0.2835  0.0416 -0.1557
13873W        W32727   6.606   3.425  12.864 -0.0393  0.0686  0.0749
13874W        W32728  16.977   5.219   0.328 -0.1840  0.1131 -0.2135
13875W        W32729  13.490   3.337  11.047  0.0496 -0.1447  0.2758
13876W        W32730  16.311   3.843  14.244 -0.2930  0.1495  0.0111
13877W        W32731  11.216  12.972   0.926  0.2278 -0.1189 -0.2182
13878W        W32732  17.952   4.375  14.543 -0.3138 -0.3111  0.1192
13879W        W32733   3.286   3.881   4.317 -0.1103 -0.1758  0.2276
13880W        W32734   9.027  17.791  13.295  0.0548 -0.1231 -0.1115
13881W        W32735  11.981   3.008   3.998 -0.2210 -0.0378 -0.1204
13882W        W32736   0.674  10.496   1.009  0.1218 -0.0341  0.0584
13883W        W32737   6.319  13.834  11.094  0.0219 -0.0991  0.1570
13884W        W32738  16.016  16.375   0.889  0.0992  0.0449  0.1933
13885W        W32739  12.114  18.521  12.236  0.1069 -0.2277  0.1254
13886W        W32740   4.323   1.189  10.784 -0.2680 -0.0255 -0.0606
13887W        W32741   5.971   8.709   3.533 -0.1533 -0.0445  0.0984
13888W        W32742  14.722   8.408   2.582  0.1117  0.0648  0.0035
13889W        W32743   5.349   5.472  12.840  0.3208  0.2776  0.0060
13890W        W32744  11.365  11.519   4.711  0.3560  0.0076  0.0378
13891W        W32745   5.590  11.757  11.116  0.1379  0.1487  0.0638
13892W        W32746   0.330   4.946   4.130 -0.2369  0.2277 -0.2326
13893W        W32747   2.264   0.502   2.568  0.1307 -0.2319  0.1106
13894W        W32748  15.618  15.426   3.110 -0.1277  0.1926 -0.1005
13895W        W32749   8.448  13.259  14.844 -0.0244  0.1631  0.1194
13896W        W32750   8.213   4.190   0.041  0.0147 -0.2104 -0.2559
13897W        W32751   5.163   3.739  15.387  0.2413  0.0963  0.3128
13898W        W32752   4.162  17.899  14.197 -0.0880 -0.1184  0.0355
13899W        W32753   2.463   1.021  12.179  0.0023  0.1010  0.1665
13900W        W32754  16.811  16.739  13.587  0.0722  0.3050 -0.1146
13901W        W32755  16.861  14.322   0.704  0.1031  0.0788 -0.1407
13902W        W32756  13.095   3.141  15.061  0.0926 -0.2725  0.3058
13903W        W32757   0.617   8.268  14.958  0.1013 -0.0597 -0.0526
13904W        W32758  10.828  16.409   5.405 -0.1599  0.1668 -0.1521
13905W        W32759   3.291  14.081   0.388  0.2688 -0.1892 -0.0538
13906W        W32760  17.704  14.432  13.503 -0.0340 -0.0125  0.1054
13907W        W32761  15.077  10.922  14.097  0.2194 -0.1361  0.1309
13908W        W32762   7.892  13.253   1.529  0.2708 -0.0617 -0.1233
13909W        W32763  12.880   2.493  15.340 -0.2136  0.1734 -0.0893
13910W        W32764  17.457  15.692   0.725 -0.2215 -0.1341  0.1217
13911W        W32765  14.335  15.309  12.610  0.0617 -0.1997 -0.1304
13912W        W32766  12.781  10.867   3.002 -0.2444 -0.4374  0.2342
13913W        W32767   4.333   4.555  13.339 -0.1900  0.0023 -0.2235
13914W        W32768   2.560   8.742   1.819  0.2098 -0.1440  0.0101
13915W        W32769  11.017   1.058  14.297 -0.0324  0.1331 -0.0164
13916W        W32770  18.147  18.052   2.893 -0.2098 -0.1599 -0.0604
13917W        W32771   5.962   2.189  13.701  0.0820  0.1061 -0.0671
13918W        W32772   6.167  13.638   2.443 -0.3016  0.0374 -0.2026
13919W        W32773   3.506  16.722   0.381  0.0501  0.1645 -0.2185
13920W        W32774  11.398   2.739  13.663 -0.1153 -0.1716  0.4851
13921W        W32775  11.951  14.060  14.236  0.0151 -0.0201 -0.3326
13922W        W32776   6.697  11.052  12.464  0.0662 -0.0464 -0.2088
13923W        W32777  11.944  12.744   0.283 -0.0476  0.0310  0.0477
13924W        W32778   9.610  13.542  14.571  0.1170  0.1229 -0.1938
13925W        W32779   4.990   7.099   0.682  0.1032  0.0412 -0.1306
13926W        W32780  17.003   0.083  12.238 -0.0850 -0.1580  0.0480
13927W        W32781  16.703   0.554  11.998 -0.3092 -0.0514  0.1794
13928W        W32782   7.157  14.524  13.460  0.0317  0.1398 -0.1030
13929W        W32783  18.447  17.423   4.244  0.1160 -0.3124 -0.2404
13930W        W32784  11.376  10.112   4.422 -0.3356 -0.0902 -0.4190
13931W        W32785   2.087  18.012   3.293 -0.0652 -0.3072 -0.1448
13932W        W32786   8.378   0.173   3.317  0.0711 -0.1640 -0.1406
13933W        W32787  18.391  14.685  11.531 -0.1605  0.0054 -0.2831
13934W        W32788   2.911   1.257  11.560 -0.2056  0.0021 -0.2320
13935W        W32789   6.196   4.382   4.662 -0.0374  0.0350 -0.1633
13936W        W32790   3.832  14.368   3.111 -0.2876 -0.0376 -0.0913
13937W        W32791  14.308  14.726  13.764  0.4324  0.1676  0.0159
13938W        W32792  10.981  15.563  12.132  0.1302  0.1125 -0.1098
13939W        W32793   3.709   3.034   4.474 -0.0803  0.2781 -0.0617
13940W        W32794  17.683   9.979  12.026 -0.2822  0.1215 -0.0954
13941W        W32795   9.028   8.061   3.462 -0.0348 -0.0447  0.4610
13942W        W32796   9.902  12.680  10.494  0.1199 -0.0294 -0.0008
13943W        W32797  18.047   8.098   2.364  0.1019 -0.3672 -0.0181
13944W        W32798  18.353   0.595  14.025 -0.1717  0.0480  0.0111
13945W        W32799   3.740   1.808   0.420  0.2603 -0.1714  0.2334
13946W        W32800  16.999   2.552   4.234 -0.2652  0.0057 -0.0358
13947W        W32801   6.076  15.696  10.979  0.0907 -0.2329  0.1669
13948W        W32802   5.691   4.209  10.873 -0.0758 -0.0215 -0.0097
13949W        W32803  15.800  17.787  11.195  0.0980  0.4064 -0.1110
13950W        W32804  17.263   9.784   4.445  0.1981 -0.0218  0.1199
13951W        W32805   6.773  17.143  14.354 -0.2412 -0.0004 -0.2286
13952W        W32806  17.003   4.020   1.254 -0.0786  0.2330 -0.3909
13953W        W32807  16.567   9.486  14.864  0.1237 -0.1954 -0.0445
13954W        W32808   7.666   7.665   2.267  0.0478 -0.0848 -0.0050
13955W        W32809  15.572  12.553   0.853  0.1434 -0.2764 -0.0892
13956W        W32810  10.983  12.524   0.091  0.0559  0.1003  0.1311
13957W        W32811   0.761  17.539   3.818 -0.0546 -0.0177 -0.1653
13958W        W32812  17.639  18.250  11.554 -0.3542 -0.0351  0.1541
13959W        W32813   4.212   6.118   1.410 -0.4146 -0.2427  0.1197
13960W        W32814  18.062  10.323   1.461 -0.0739 -0.0454 -0.0414
13961W        W32815   1.629   0.720   1.464 -0.2006  0.2294 -0.0700
13962W        W32816  14.361  12.233   1.093  0.1336  0.1577 -0.5706
13963W        W32817  15.406   2.424   1.725  0.2576  0.0128  0.0768
13964W        W32818   0.449   2.705   1.403  0.0315 -0.0512 -0.0382
13965W        W32819   5.953   6.080  12.491  0.0862 -0.3282 -0.0777
13966W        W32820   4.681  15.456  13.813  0.2344  0.1222 -0.0972
13967W        W32821  16.765  16.749  11.942 -0.0107  0.1707 -0.0855
13968W        W32822   7.736   4.468   0.578  0.1432  0.4353 -0.1824
13969W        W32823   2.804   8.678   4.013  0.2523 -0.0662  0.1247
13970W        W32824   7.795  16.487   1.187  0.0488  0.2385  0.2439
13971W        W32825   7.866   9.673   4.559 -0.0527  0.0558 -0.0017
13972W        W32826   3.304  10.898   4.076 -0.0950 -0.0383 -0.3193
13973W        W32827   7.045   8.642   1.099  0.1580  0.0614 -0.0810
13974W        W32828  15.422   8.819  11.770 -0.2401  0.0198 -0.2804
13975W        W32829   8.591   4.389   2.560 -0.0357  0.1780 -0.2073
13976W        W32830   5.658   8.324   3.337 -0.0538 -0.0185  0.0943
13977W        W32831   5.966  16.363   3.239  0.1945  0.0195 -0.0417
13978W        W32832  18.436   4.915  11.357  0.2598 -0.1592  0.1069
13979W        W32833  15.695   5.440  11.177  0.0001 -0.2471 -0.2125
13980W        W32834  15.516   3.996   1.388 -0.2096  0.2186 -0.1166
13981W        W32835   6.301   9.731   1.012 -0.2204  0.2682  0.1359
13982W        W32836   0.026   2.109  11.610 -0.1166 -0.1022 -0.2080
13983W        W32837  15.077  16.377  12.716 -0.1972 -0.0748 -0.0651
13984W        W32838  13.253  18.453   2.767 -0.0823  0.0135  0.0281
13985W        W32839  16.114   4.475   0.183 -0.3865  0.0333 -0.0019
13986W        W32840   1.157   4.705  13.296  0.0667 -0.0631  0.4202
13987W        W32841  14.391  13.179   1.147  0.4264  0.1115 -0.0302
13988W        W32842   8.433   5.061   1.002  0.3052  0.0935 -0.1014
13989W        W32843   2.385  14.439  11.163 -0.0338  0.0637  0.1038
13990W        W32844  12.300   8.746  12.003  0.1127 -0.1513 -0.1483
13991W        W32845   7.687   6.691  13.673 -0.0877  0.1467 -0.2509
13992W        W32846   1.232  12.207   1.055  0.1264  0.0868 -0.2306
13993W        W32847   3.319  10.387  11.875  0.0210 -0.2495  0.2773
13994W        W32848  17.953  15.060  15.371 -0.0004 -0.2891  0.2565
13995W        W32849  17.522   9.799   0.844  0.0219  0.2718 -0.3285
13996W        W32850   7.939   5.109  12.289  0.0219 -0.0869  0.2996
13997W        W32851   0.182  10.779  13.758  0.5010 -0.1766  0.0456
13998W        W32852  16.203  13.928   1.299 -0.2109 -0.0243 -0.1644
13999W        W32853   5.850   7.351   0.356 -0.3090  0.0758 -0.0571
14000W        W32854   6.148  14.897   3.081 -0.2052 -0.1063 -0.0888
14001W        W32855  10.627  17.517   2.600 -0.0353  0.0426 -0.2197
14002W        W32856   6.520   7.348   2.721 -0.2660  0.0034  0.0943
14003W        W32857   0.770  18.239  12.542 -0.1277  0.2489  0.0477
14004W        W32858  12.469   5.945  15.267  0.2048  0.1764  0.0633
14005W        W32859  10.174   4.923   2.650  0.2463  0.0403 -0.1520
14006W        W32860  18.054   7.705  13.573  0.0551  0.2610  0.3949
14007W        W32861   5.833   2.383  10.154 -0.0775  0.3257  0.0987
14008W        W32862  12.533   3.734   0.844  0.0783  0.0419  0.0336
14009W        W32863  17.142   3.802   0.348  0.1520 -0.0466  0.0236
14010W        W32864  11.966  10.944   1.896 -0.1082 -0.0026  0.0445
14011W        W32865   3.808  13.803  11.083 -0.1757  0.3686  0.0692
14012W        W32866   6.007  16.485   4.541  0.1780  0.0691  0.0154
14013W        W32867   4.523   7.467   1.288  0.0434 -0.0704 -0.0305
14014W        W32868   6.757   8.527  13.570 -0.0529  0.2385 -0.0725
14015W        W32869  15.702   6.629  11.756 -0.1456  0.0272  0.0501
14016W        W32870   9.580  17.568  14.057  0.1458 -0.0148 -0.0202
14017W        W32871  15.101  13.124   1.805  0.1335  0.0513 -0.1900
14018W        W32872   2.028  11.982  15.227  0.1144 -0.0987  0.4001
14019W        W32873   2.149  10.520  11.607 -0.0116 -0.1209  0.0648
14020W        W32874  11.490   9.730  11.740  0.2537  0.2833 -0.1963
14021W        W32875   3.815   6.901  12.236 -0.0571  0.1781 -0.0334
14022W        W32876  14.249   0.933   1.087 -0.3061  0.0075 -0.1280
14023W        W32877  15.716  13.848   1.472  0.1896 -0.0804  0.2683
14024W        W32878  15.748   9.446  14.641 -0.0474 -0.2131  0.0709
14025W        W32879  14.327  10.668  13.421  0.0789 -0.3894 -0.1351
14026W        W32880  14.603  16.991  11.766 -0.1799 -0.0338 -0.0656
14027W        W32881   2.391   2.032  11.393  0.3280  0.0432  0.1294
14028W        W32882  12.286  13.603  14.989  0.0255  0.0583  0.0928
14029W        W32883  14.734  16.424   3.223 -0.3606 -0.0871  0.0098
14030W        W32884  10.980   3.809   3.864  0.2533  0.0694 -0.0223
14031W        W32885   5.044   0.886   2.524  0.0194 -0.1313  0.0821
14032W        W32886  11.679  16.621   0.083 -0.2620  0.0480  0.1197
14033W        W32887   8.092   6.064   2.820 -0.1549  0.0856  0.0189
14034W        W32888   5.322  13.107   0.860 -0.1256 -0.2533  0.0408
14035W        W32889   5.399  14.050   3.013 -0.1471 -0.1843  0.0100
14036W        W32890   0.805   6.818   1.214  0.1090 -0.1912  0.1773
14037W        W32891   1.557  14.700  14.926  0.0649 -0.0611  0.0652
14038W        W32892   1.248   4.639   4.344  0.1232  0.2368  0.2338
14039W        W32893   8.486   5.794   0.401 -0.0628  0.3337  0.0968
14040W        W32894   9.457  11.930  11.876  0.1026  0.1020  0.0701
14041W        W32895  10.941   2.228   3.419  0.2862  0.2485  0.0095
14042W        W32896  15.955   1.936   4.097  0.1135 -0.1843 -0.2655
14043W        W32897  16.654  13.996   1.151  0.0822 -0.1049  0.1665
14044W        W32898   9.492   6.357  12.467 -0.0934 -0.1575  0.3815
14045W        W32899   7.230   6.985   2.164 -0.0495  0.1209 -0.1050
14046W        W32900   4.735   9.306   4.418  0.0018 -0.0622 -0.0459
14047W        W32901   0.706  12.074  11.685  0.0640 -0.0604 -0.1934
14048W        W32902  16.149   9.845   2.619 -0.2420 -0.3179 -0.1457
14049W        W32903  16.370   6.040  11.800  0.5844 -0.0541 -0.0540
14050W        W32904   1.586  11.814   2.972 -0.1153 -0.0012  0.0163
14051W        W32905  16.667   9.062  13.529  0.2519 -0.0889 -0.1736
14052W        W32906   2.326  13.740  10.707  0.1304  0.0022  0.1423
14053W        W32907   5.026  18.522   0.912  0.3869 -0.3035 -0.2621
14054W        W32908   5.879   9.503  10.307 -0.1518 -0.1296  0.3198
14055W        W32909   7.678   3.467  12.857 -0.0233 -0.1362 -0.0241
14056W        W32910   0.252  17.033  15.416  0.1248 -0.4971 -0.1999
14057W        W32911   5.317  10.878  10.972  0.0906  0.2777 -0.0472
14058W        W32912  17.817  12.377   3.390  0.0934  0.0353  0.4035
14059W        W32913   1.471   6.488  13.126  0.1217  0.0555  0.1985
14060W        W32914  16.324  12.338   3.671  0.0653  0.0698 -0.1137
14061W        W32915   1.131   2.284   5.010 -0.1332 -0.1210  0.0736
14062W        W32916  11.259   6.659  14.400  0.1329 -0.2076 -0.3054
14063W        W32917   0.990  12.655   0.932  0.2353 -0.2081  0.1087
14064W        W32918  10.954   3.964  13.810 -0.1949  0.1009 -0.0241
14065W        W32919  11.906   4.180  12.528  0.1605 -0.0684  0.1834
14066W        W32920   0.976   3.891   4.514 -0.1424  0.4644 -0.3343
14067W        W32921  18.556   5.440  15.145 -0.0031 -0.1926 -0.1669
14068W        W32922   6.374   5.327   2.188 -0.2755 -0.0948  0.1568
14069W        W32923  15.969   9.947  11.169  0.1671  0.0161 -0.0776
14070W        W32924   7.030   2.287   2.285  0.0793 -0.3096  0.1180
14071W        W32925   3.665   3.890  13.321  0.0133  0.0179  0.1644
14072W        W32926   9.345  15.340   1.120 -0.1084  0.0526 -0.0088
14073W        W32927  15.745   3.280   2.430  0.0614 -0.2196  0.1424
14074W        W32928  12.425   3.867  12.660 -0.0998 -0.4470  0.0557
14075W        W32929  17.519   0.262  12.049 -0.0296  0.1940 -0.0440
14076W        W32930  13.250   2.991  12.161 -0.0337  0.1853 -0.2070
14077W        W32931  16.272   3.827  11.474  0.0652  0.2363  0.0743
14078W        W32932   2.933  14.427   3.909  0.1989 -0.1259  0.1464
14079W        W32933   4.787   5.620  12.776  0.2128  0.0647 -0.2168
14080W        W32934   4.322  10.587   3.757  0.0572  0.3345 -0.1836
14081W        W32935   9.728   2.535  13.973  0.0718 -0.1177 -0.1961
14082W        W32936   8.045   5.096   3.022 -0.0155  0.2093 -0.0556
14083W        W32937  18.456   6.182  10.747 -0.0142 -0.0896  0.2292
14084W        W32938  14.741  12.287   1.971 -0.1287 -0.0640  0.3068
14085W        W32939   6.894   1.944  15.399  0.2630 -0.0728 -0.0247
14086W        W32940  15.087   4.350  13.481  0.0852  0.1723  0.1141
14087W        W32941   2.007  14.920  15.131 -0.0417  0.3403 -0.0545
14088W        W32942  14.198   6.415   3.389 -0.1389  0.0659  0.0125
14089W        W32943  18.152   9.161   0.503 -0.1422 -0.0110  0.1303
14090W        W32944   0.696   1.019   0.379  0.1709  0.0230  0.3421
14091W        W32945   9.437   5.288   3.727  0.0839  0.0159  0.3660
14092W        W32946   5.371   8.137  13.299  0.0210  0.2655  0.1030
14093W        W32947  13.290   8.812  14.039 -0.2968 -0.2968  0.2116
14094W        W32948  11.335  13.902  11.219 -0.0588  0.2040 -0.1327
14095W        W32949  14.103  15.569  15.371 -0.3959  0.1356 -0.2911
14096W        W32950   5.757   4.273  14.939  0.1206 -0.0319  0.1892
14097W        W32951   7.475   3.762  13.714  0.2769 -0.1118 -0.0353
14098W        W32952   3.318  16.388   1.951  0.0556 -0.2078  0.0166
14099W        W32953  15.033   4.930   4.683 -0.1995 -0.0226  0.1288
14100W        W32954   4.968  12.077  11.498 -0.3194  0.3219 -0.0309
14101W        W32955   3.622  17.783   3.895 -0.1680 -0.4821 -0.3002
14102W        W32956   7.040   8.039  13.568 -0.1554  0.2169 -0.1135
14103W        W32957  17.687   4.120   4.252  0.0204 -0.0061  0.0467
14104W        W32958   0.836   3.135  11.047  0.2118  0.0198  0.0818
14105W        W32959   9.430  17.825  13.544 -0.1220  0.2216  0.0712
14106W        W32960   7.287  15.723  13.727 -0.1111  0.1977 -0.1302
14107W        W32961  16.004  11.764   4.594  0.5281  0.3285  0.0888
14108W        W32962   0.912   8.037   3.250  0.1715 -0.0905 -0.3237
14109W        W32963  14.222   1.334  15.459 -0.1727  0.0207  0.2255
14110W        W32964  10.957  12.734   3.973  0.2208  0.0251 -0.1178
14111W        W32965   9.140  15.064   3.214 -0.1770  0.1310 -0.2241
14112W        W32966  11.728   9.573   0.357 -0.1515 -0.0562 -0.0292
14113W        W32967   7.924   0.664   0.571  0.0795 -0.0841  0.0697
14114W        W32968  17.071  10.249   4.193 -0.0476 -0.0128 -0.1270
14115W        W32969   4.048  10.554  11.200 -0.2817  0.0754 -0.0420
14116W        W32970   0.305  14.034  14.946  0.0320 -0.1357  0.1298
14117W        W32971   8.385  16.291   1.178  0.2118  0.2861 -0.0024
14118W        W32972   1.074   8.910   1.258 -0.0409 -0.0550 -0.0242
14119W        W32973  13.379  18.062   4.977  0.2189 -0.0314  0.1404
14120W        W32974  15.265   2.968  13.171  0.0537 -0.4394 -0.1072
14121W        W32975  17.637   6.130  11.934  0.1945 -0.0940 -0.0933
14122W        W32976  11.078   3.490  14.798  0.0201  0.1958  0.0868
14123W        W32977  16.803  10.953  12.102 -0.0223  0.2514 -0.2137
14124W        W32978  15.294  11.781  11.339  0.1174 -0.3133  0.3415
14125W        W32979   0.968  15.954   1.043  0.1369  0.1458 -0.2353
14126W        W32980   2.782  15.660  10.299  0.0385  0.0138  0.1037
14127W        W32981  16.414   7.998  13.415 -0.0477  0.0702  0.2450
14128W        W32982  13.205  14.632  12.907  0.2379 -0.0091  0.2878
14129W        W32983   0.893  14.965  10.894 -0.2432  0.6657  0.1078
14130W        W32984   2.031   4.394  13.355 -0.0507  0.0631 -0.0054
14131W        W32985   8.097  16.463  11.251  0.3220  0.2463  0.2290
14132W        W32986   4.020   0.289   3.077  0.1111 -0.0132  0.5345
14133W        W32987   0.781   0.264   0.995  0.0996  0.0684 -0.2395
14134W        W32988   0.356  12.617  10.944  0.2725 -0.0278  0.2618
14135W        W32989  15.176   5.351  11.741  0.0032  0.0298  0.0959
14136W        W32990   7.457   3.001   0.917  0.0345  0.0600  0.0824
14137W        W32991  17.820  14.436   0.494  0.1816 -0.0233 -0.5953
14138W        W32992  13.861  11.493   3.604  0.0137 -0.0234  0.1100
14139W        W32993  15.502  13.179   3.024  0.0203  0.1354  0.0717
14140W        W32994  13.439   6.758  14.260 -0.0709 -0.0880 -0.0849
14141W        W32995   3.888   9.579  13.202 -0.2052 -0.1172  0.2753
14142W        W32996   9.711  18.417   1.793 -0.2549  0.0550  0.0660
14143W        W32997  14.747  17.396  10.984 -0.2282 -0.0348  0.1984
14144W        W32998   0.519   6.583  12.001 -0.1924 -0.0683  0.2966
14145W        W32999  16.674  15.446  14.083  0.1589  0.0371 -0.2086
14146W        W33000   8.666  16.462   3.650 -0.1694 -0.0111  0.0881
14147W        W33001   9.163   2.152  12.582  0.0147 -0.2865  0.0220
14148W        W33002   3.491  17.279   3.886 -0.0119 -0.0079 -0.1002
14149W        W33003   9.566  12.948  11.994  0.2082  0.0793  0.3876
14150W        W33004  18.330   3.604  10.596 -0.4525  0.3122  0.2443
14151W        W33005   5.302  17.503  14.946  0.2620  0.1110  0.2890
14152W        W33006   3.713  15.953  11.597 -0.0199  0.2330 -0.2724
14153W        W33007   2.123   0.720   5.261 -0.1574 -0.0212  0.1837
14154W        W33008  16.973   1.681  13.706  0.3044 -0.1489 -0.0564
14155W        W33009  13.528  15.568   3.930  0.1380 -0.0110 -0.1200
14156W        W33010   9.928   9.277   2.245 -0.2726  0.0001 -0.0916
14157W        W33011   2.788  10.419  11.125  0.0316  0.0089 -0.1090
14158W        W33012  10.482   9.816   2.232 -0.1978  0.0966  0.0395
14159W        W33013   0.366   3.436   0.472 -0.1269  0.0227 -0.1702
14160W        W33014  10.237  10.841  11.574 -0.1095 -0.0702 -0.0257
14161W        W33015   3.463   4.637   3.074 -0.1689 -0.0672  0.0316
14162W        W33016  15.219  14.292   1.688 -0.1531 -0.0988  0.0198
14163W        W33017   8.942  12.948  12.616  0.4822 -0.3702  0.0742
14164W        W33018   4.361  18.075   5.139 -0.1483 -0.1584  0.2627
14165W        W33019  10.536   8.512   1.371  0.1570 -0.1533  0.0354
14166W        W33020   4.031  18.002   4.228  0.3359 -0.0655 -0.0109
14167W        W33021  16.446   3.991   1.289 -0.6030  0.2308  0.4677
14168W        W33022   9.171  11.399   4.044  0.1773 -0.2005 -0.2735
14169W        W33023  17.651  13.018  11.957 -0.1486  0.1036 -0.0012
14170W        W33024  15.308   9.256   0.634 -0.1080  0.1768  0.2267
14171W        W33025   1.841  15.856   4.068 -0.0208 -0.0901 -0.1130
14172W        W33026  16.096   3.244   2.970  0.1099 -0.0924 -0.2136
14173W        W33027  10.293   2.793   4.271  0.0207  0.0643  0.2114
14174W        W33028  16.914  13.530   0.131  0.1062 -0.1130  0.1389
14175W        W33029   4.803  11.880  12.744  0.1460  0.2230 -0.1340
14176W        W33030   9.496  16.058   0.815 -0.1608 -0.0103  0.0589
14177W        W33031   2.602   0.049  11.125  0.0566  0.1200 -0.0739
14178W        W33032  15.302   8.321   2.771 -0.1371  0.1419  0.1793
14179W        W33033  14.011  16.164  13.729 -0.0811  0.2320  0.1112
14180W        W33034   6.768  16.735   0.166 -0.0261 -0.2724 -0.0819
14181W        W33035   6.437  12.870   9.525  0.1441 -0.2142  0.0980
14182W        W33036   4.132   1.553  14.672 -0.0608 -0.0019  0.0239
14183W        W33037  10.603  10.215   1.861 -0.1345  0.1733  0.2580
14184W        W33038   9.481   3.652  13.424 -0.0568  0.1160  0.0997
14185W        W33039  14.821  15.149  11.183 -0.2310  0.0611  0.5012
14186W        W33040  15.618  14.900   4.935 -0.4170 -0.1134  0.1656
14187W        W33041   0.873  14.721  13.201 -0.0515  0.1147 -0.2625
14188W        W33042   7.512   5.791   1.734  0.2524  0.1676  0.0395
14189W        W33043   2.001   7.020  10.822  0.1414  0.5264 -0.0665
14190W        W33044  15.322  12.022   2.919  0.0553 -0.0436  0.0811
14191W        W33045   4.480   3.512   1.919 -0.1930  0.0154  0.0417
14192W        W33046   8.026  12.243  15.114 -0.2348  0.2350 -0.1495
14193W        W33047  14.058   6.446  14.878 -0.0473 -0.1000  0.0141
14194W        W33048   8.457  14.927   1.625 -0.1430  0.0721  0.2216
14195W        W33049   0.185   4.634   1.463 -0.3235 -0.0785  0.0626
14196W        W33050   5.563  13.757   3.457  0.0812 -0.0498 -0.0497
14197W        W33051  15.804   0.302   1.081 -0.0984  0.0164  0.0408
14198W        W33052  12.675  15.737   2.913 -0.0039  0.1792 -0.1031
14199W        W33053  12.410   6.721  13.676 -0.0164 -0.0862 -0.3874
14200W        W33054  10.997   2.636   3.743 -0.0064  0.0989  0.2380
14201W        W33055   9.104   4.429   3.763 -0.1226 -0.4058 -0.0117
14202W        W33056  16.578   0.493   3.510 -0.0089  0.0169 -0.1576
14203W        W33057   5.947  14.885   1.768 -0.4210 -0.1664 -0.1276
14204W        W33058   5.698   3.408  13.206 -0.0225 -0.0226  0.1398
14205W        W33059  16.908   5.792  11.066  0.0149  0.0715 -0.2091
14206W        W33060  11.055  14.604   3.524 -0.0962 -0.0010 -0.2460
14207W        W33061  18.065   5.542  14.933 -0.0341  0.1678  0.2845
14208W        W33062   4.786  17.357  14.472 -0.0785 -0.0486 -0.1281
14209W        W33063  11.251   0.376  13.855  0.1038  0.0571 -0.1909
14210W        W33064  17.559  11.350  11.511  0.1867  0.2956  0.1303
14211W        W33065   9.952   0.025   1.383  0.0485  0.0842 -0.1944
14212W        W33066   2.242   6.948  13.331  0.2537 -0.3079 -0.1690
14213W        W33067  18.261  18.008  12.476 -0.1667  0.4125 -0.3652
14214W        W33068   9.328   4.288  12.571 -0.5001  0.3238 -0.2285
14215W        W33069  10.272   6.395   4.124  0.0660  0.1179  0.0536
14216W        W33070  10.472   9.949   1.318  0.1294  0.1718 -0.0020
14217W        W33071  10.405   0.655  13.667 -0.0879  0.2414  0.0613
14218W        W33072   9.198  17.078   3.428  0.0639 -0.1473 -0.0075
14219W        W33073   5.827  15.737   4.232 -0.1067 -0.0360  0.0665
14220W        W33074  12.906   4.863  11.637  0.3050 -0.2124 -0.0178
14221W        W33075   7.703  11.015  10.876 -0.1172  0.0435 -0.0294
14222W        W33076   1.455   6.949   2.220 -0.0127 -0.1724 -0.2619
14223W        W33077   4.551  11.020   1.739  0.1336  0.1032 -0.2779
14224W        W33078   7.346  18.179  14.299  0.0119 -0.2047  0.0179
14225W        W33079  17.554  11.328  13.715 -0.2149  0.1179 -0.0141
14226W        W33080   9.341   3.087   2.527  0.0881 -0.0558  0.0709
14227W        W33081   9.693  18.313  10.515  0.2118 -0.2192  0.0469
14228W        W33082   4.024   3.743  11.861 -0.0952  0.1238 -0.1792
14229W        W33083  11.283   6.330   2.531 -0.0823  0.0525 -0.1673
14230W        W33084   7.098  12.820  10.257  0.2184 -0.1889 -0.0335
14231W        W33085   9.881  18.166  12.274  0.1882 -0.1254  0.1813
14232W        W33086  16.428  14.320  13.049 -0.0621  0.6269  0.1414
14233W        W33087   7.301   5.742   2.985 -0.0369 -0.2294  0.0501
14234W        W33088   9.194   2.349  14.949  0.1557 -0.1576  0.0087
14235W        W33089   4.549  10.566  12.554  0.0849 -0.3000  0.0149
14236W        W33090   0.994  11.835   3.620  0.0559 -0.0480 -0.2759
14237W        W33091   4.935  17.442  12.528 -0.2412 -0.0550 -0.2937
14238W        W33092   6.501   0.394   2.014  0.0276 -0.1287  0.2604
14239W        W33093  16.700   3.453  12.652  0.1987 -0.0755 -0.2795
14240W        W33094   4.604  11.843   1.886  0.0394 -0.0795 -0.0407
14241W        W33095  15.953  15.924   0.356  0.0754  0.2910  0.3063
14242W        W33096  11.255  15.048  12.828 -0.3996 -0.0568  0.0064
14243W        W33097  12.138  17.739  12.962  0.1372 -0.0318 -0.3262
14244W        W33098   7.798   7.966   0.817  0.0631 -0.1945  0.0291
14245W        W33099  10.106  15.547   0.456  0.1104  0.1659  0.3626
14246W        W33100   8.288   7.472  15.349 -0.0604  0.0731 -0.0442
14247W        W33101  13.529  12.694  12.442 -0.1537 -0.2582 -0.2004
14248W        W33102  16.793   5.764   3.315  0.2379  0.0090  0.0988
14249W        W33103   6.458  15.176   1.274 -0.2120  0.0504 -0.4140
14250W        W33104  12.766   8.545   0.468 -0.0084  0.0688  0.0367
14251W        W33105  18.044   5.226  10.574 -0.1650 -0.0045  0.2539
14252W        W33106   1.575  15.439   3.019  0.1173  0.0108  0.0228
14253W        W33107   7.296   8.655   3.641 -0.2559  0.0062  0.3230
14254W        W33108  11.390   3.075   5.675 -0.1315 -0.4239 -0.2557
14255W        W33109  17.719  14.223  14.567 -0.1536  0.1077 -0.1398
14256W        W33110   1.669   7.075   4.201 -0.1539 -0.1930  0.0652
14257W        W33111   8.623   6.588  13.287  0.2767  0.0030 -0.0097
14258W        W33112  14.343  12.073  12.647  0.0446 -0.0595 -0.2103
14259W        W33113  12.842   2.721   3.662  0.1861  0.0865 -0.0948
14260W        W33114  17.693   1.057  15.215 -0.0318 -0.0101  0.0920
14261W        W33115   4.350   5.870  14.282  0.1322 -0.1172  0.4585
14262W        W33116   2.290  17.950   0.592  0.0256  0.2260  0.2394
14263W        W33117   8.230   1.225  11.517  0.0401  0.1300  0.2514
14264W        W33118   4.124   9.714  12.009 -0.0473  0.0855 -0.2801
14265W        W33119  15.789   6.606  10.149  0.0439  0.1565 -0.1061
14266W        W33120   3.997  11.006   1.921 -0.1824 -0.3435 -0.0979
14267W        W33121   7.351  10.412   2.491 -0.0006  0.4992  0.2063
14268W        W33122  13.464   5.584  11.465  0.2832 -0.2629 -0.3026
14269W        W33123   2.996   1.210   5.336  0.0865 -0.0122 -0.2235
14270W        W33124   7.271  16.159   1.050 -0.1678  0.1038 -0.0075
14271W        W33125   4.666  17.719   1.225 -0.3213  0.0307  0.3867
14272W        W33126   9.616   4.813  14.391 -0.1639  0.1500 -0.2037
14273W        W33127   9.264  14.944  10.353 -0.2323  0.0389  0.1414
14274W        W33128   0.434   2.769   2.236 -0.0178 -0.2194 -0.1342
14275W        W33129  17.946  13.805   1.159 -0.1184  0.1760 -0.1130
14276W        W33130  11.445   7.317   3.823  0.2580  0.1834  0.0407
14277W        W33131  10.178   5.888  14.983  0.1999  0.0349 -0.0471
14278W        W33132  17.405  12.704   3.195 -0.1755  0.1508  0.2522
14279W        W33133   7.443   9.305  13.733  0.0929 -0.1529 -0.1058
14280W        W33134  10.139  10.839   0.147  0.0250  0.0327 -0.0315
14281W        W33135  11.484  13.735  12.746  0.1242 -0.1627  0.0656
14282W        W33136   0.588   8.968   1.052  0.0811  0.0412 -0.3371
14283W        W33137   6.448  17.897  11.529  0.2266 -0.0391  0.4363
14284W        W33138   8.241   4.563  13.487 -0.0160 -0.0501  0.0249
14285W        W33139  10.146   6.141  14.574 -0.0915 -0.0776  0.0212
14286W        W33140  11.570   2.681   1.087 -0.4915 -0.3093  0.0873
14287W        W33141   7.186   9.833  14.369 -0.1198  0.1376 -0.3413
14288W        W33142   5.665  18.477   2.707 -0.1074 -0.0677  0.0991
14289W        W33143  11.201   8.313   0.111 -0.1332  0.0547 -0.1760
14290W        W33144   3.847   7.270   3.884  0.0212 -0.1654 -0.1673
14291W        W33145  15.083   8.528   3.219  0.0199  0.2527  0.1254
14292W        W33146  16.973  15.886  11.285 -0.1479  0.1042  0.0898
14293W        W33147   5.958   1.517  11.167  0.1285 -0.0636  0.1184
14294W        W33148   2.080  16.953  13.666  0.2463  0.0148  0.0282
14295W        W33149   9.426   9.306   2.976  0.0962 -0.1933  0.1114
14296W        W33150   2.146   0.475  15.016  0.0583 -0.0338  0.0648
14297W        W33151   8.201   4.953   3.595  0.2257  0.0905  0.0158
14298W        W33152  15.714  12.296   1.666  0.1407  0.1693 -0.0796
14299W        W33153   6.955  12.378  14.362 -0.0046  0.0884 -0.1496
14300W        W33154  16.997  15.226  12.689 -0.0421  0.0745 -0.1151
14301W        W33155  14.657   8.335  13.144 -0.1106  0.2642  0.0388
14302W        W33156  13.807   0.854   1.285  0.4008  0.1975 -0.1853
14303W        W33157   1.598  10.769  14.966 -0.1050  0.2992 -0.1913
14304W        W33158  18.163   2.892   2.497 -0.0135  0.1542  0.2558
14305W        W33159  16.162  17.996   1.140 -0.5310 -0.0655  0.0153
14306W        W33160   7.842  17.883  13.436 -0.0860  0.0806  0.0205
14307W        W33161   6.855  15.526   2.116 -0.1104 -0.0634  0.1748
14308W        W33162  15.429  11.882   1.542  0.2757 -0.2950  0.1185
14309W        W33163   9.560   4.133   0.356  0.1513 -0.0126  0.0991
14310W        W33164   1.164  13.503   0.638 -0.3490  0.1516  0.1950
14311W        W33165   9.510  12.400  10.523  0.2548 -0.2643 -0.1769
14312W        W33166  17.857  12.841   3.053 -0.2576  0.5829 -0.2607
14313W        W33167  10.139  17.273   4.675 -0.0560 -0.1853  0.0268
14314W        W33168   8.841   6.292   0.314  0.2759 -0.0623  0.2325
14315W        W33169  15.807  17.170  12.843  0.0308  0.0979 -0.0516
14316W        W33170  17.144  17.181  13.000 -0.2105 -0.3914 -0.1628
14317W        W33171  16.633  11.203  11.307 -0.1761 -0.0829  0.0942
14318W        W33172   2.987  14.961  13.227 -0.1045  0.4468 -0.0544
14319W        W33173   2.535   8.890  13.006 -0.0964 -0.1310  0.1268
14320W        W33174   9.109  13.163  11.589 -0.1419  0.1688 -0.1125
14321W        W33175   3.998   7.228  11.253  0.2871 -0.0283  0.3266
14322W        W33176  17.487   4.013  11.985 -0.0250 -0.1319  0.2137
14323W        W33177   7.746   8.589   4.282  0.1059  0.1721 -0.2098
14324W        W33178  16.969   0.478  10.915 -0.0182 -0.0994 -0.1165
14325W        W33179   9.079   5.076  12.829  0.1663  0.0143  0.0306
14326W        W33180  11.123  17.508   3.913  0.0448  0.3754 -0.0279
14327W        W33181  13.698  12.677  15.143 -0.1092  0.3055  0.0026
14328W        W33182  12.382   7.682   5.185  0.2577  0.1407  0.0564
14329W        W33183  15.594   6.063  12.799 -0.1303  0.0843 -0.0943
14330W        W33184   4.009  10.374  14.784  0.0957  0.1235 -0.2008
14331W        W33185  17.282   5.856  11.627 -0.0241  0.1173 -0.0346
14332W        W33186  14.093  18.045   2.171  0.0222  0.0279 -0.3559
14333W        W33187   1.574   3.957  11.408  0.0344  0.3843 -0.0953
14334W        W33188  16.234   7.493   1.808 -0.0910 -0.1000 -0.1523
14335W        W33189   8.278  17.480  11.969 -0.1773  0.2112  0.2779
14336W        W33190   2.136   1.346  13.467  0.1622 -0.0769 -0.0753
14337W        W33191  12.540  17.662   3.583 -0.1563  0.0103  0.4182
14338W        W33192  17.852  13.537   3.563  0.3901  0.2626  0.0967
14339W        W33193   7.052  13.358   2.701 -0.2391  0.0011 -0.2037
14340W        W33194  14.242   3.149  12.088  0.1977 -0.1216  0.1223
14341W        W33195   3.555   1.268  11.237 -0.0206  0.1819  0.1375
14342W        W33196  14.910  11.830   3.178 -0.2904  0.0131  0.2731
14343W        W33197  17.373  17.491  14.394  0.3440  0.2247 -0.1412
14344W        W33198   0.030   6.895   1.764 -0.2537  0.0961 -0.0485
14345W        W33199   6.198   3.879   0.105  0.3985 -0.0149 -0.2257
14346W        W33200  16.689   3.699   2.814 -0.0379  0.1016 -0.0285
14347W        W33201  10.444  14.968   2.726  0.0892 -0.0478  0.1264
14348W        W33202  10.394  17.984  14.010  0.1275  0.0537  0.1802
14349W        W33203  12.009  10.694   2.939  0.1127  0.4441 -0.1098
14350W        W33204   0.214  11.329  15.328  0.1392  0.2641 -0.1582
14351W        W33205  11.839  10.933  13.263 -0.0731 -0.1326  0.0222
14352W        W33206   2.049  17.210   0.769 -0.0582 -0.1345  0.0887
14353W        W33207  16.527   1.389   1.113  0.0402 -0.0033 -0.0280
14354W        W33208   7.452   0.739   0.655 -0.0959  0.0501  0.1546
14355W        W33209   5.676  14.827   2.314  0.0684 -0.0260  0.1408
14356W        W33210  14.204   6.932  13.370 -0.2916 -0.1607  0.2461
14357W        W33211  10.444  12.859  11.209  0.0542  0.0588 -0.3407
14358W        W33212   8.322   3.450  11.825 -0.1620  0.0226 -0.1860
14359W        W33213  15.660  14.247   4.741 -0.0166  0.3629  0.1703
14360W        W33214   8.423   0.059  10.560 -0.1138  0.0371 -0.0082
14361W        W33215  15.193   3.429   4.249  0.0984  0.3030 -0.1105
14362W        W33216  16.626   7.147  12.231  0.0164  0.1086 -0.3139
14363W        W33217   6.618   8.355  10.763  0.0046 -0.0578 -0.1688
14364W        W33218  11.736  15.080  13.867 -0.0332 -0.0965 -0.3056
14365W        W33219   9.932  10.591  12.248 -0.1971 -0.0557  0.0035
14366W        W33220   2.652  13.999   0.058  0.1801 -0.1821 -0.0698
14367W        W33221  13.114  11.852  13.829  0.4056 -0.1622 -0.1488
14368W        W33222   4.301   2.163   3.765 -0.5313  0.1758 -0.0946
14369W        W33223   4.090   5.930   4.964 -0.2601 -0.3100  0.0303
14370W        W33224  13.993  10.048  12.532 -0.1735 -0.0944 -0.1602
14371W        W33225   9.465  10.116   1.356 -0.0616  0.0527  0.1827
14372W        W33226  15.209  10.793   3.561  0.2913  0.2181  0.0310
14373W        W33227   2.411   6.660  14.670  0.2000 -0.1673  0.1684
14374W        W33228  11.230  17.666  13.615  0.0929 -0.0916  0.0199
14375W        W33229   6.446   9.238   2.856 -0.1051 -0.2066  0.1931
14376W        W33230  10.388  10.826  12.046 -0.2139  0.3936 -0.0070
14377W        W33231   4.940   3.382  10.960  0.1301 -0.4672  0.0496
14378W        W33232  13.301  16.449   2.668 -0.1524  0.0255  0.1579
14379W        W33233   1.164  15.619  13.671 -0.1180 -0.2140  0.1975
14380W        W33234  16.809   3.305   3.744  0.0160 -0.2348 -0.2657
14381W        W33235   4.763   6.808   3.459 -0.0353 -0.2267 -0.2367
14382W        W33236  18.540  12.878  14.645  0.1192 -0.1292 -0.0204
14383W        W33237   5.756   0.411  13.009 -0.1779 -0.0538  0.2296
14384W        W33238  13.232   1.496   4.004 -0.0473  0.0188  0.2065
14385W        W33239   3.332  17.075   0.053 -0.2531  0.1139 -0.1414
14386W        W33240   0.606   7.840   1.439  0.1048 -0.2642 -0.1496
14387W        W33241  11.532  12.773  14.514 -0.1829 -0.0399 -0.1465
14388W        W33242   8.169  16.442   3.478  0.0464  0.0948  0.3230
14389W        W33243   1.566   7.914   0.496 -0.0201  0.2913 -0.0396
14390W        W33244  13.277  13.652  12.958  0.1632 -0.3167 -0.0406
14391W        W33245   4.183  12.031   1.658 -0.2576  0.0814  0.0607
14392W        W33246  14.271  13.584   4.445  0.0582  0.1049  0.1581
14393W        W33247   9.273  17.442   1.823  0.0414  0.1647 -0.0229
14394W        W33248   9.953   4.179   4.466 -0.0220  0.0389  0.0995
14395W        W33249   5.905   6.570  12.364 -0.1741 -0.0409  0.0560
14396W        W33250   2.788  12.277  14.397 -0.0451 -0.4291  0.2427
14397W        W33251  10.538  11.217  14.197 -0.0987  0.2358  0.3014
14398W        W33252  16.434  14.433   1.361 -0.0287  0.0344 -0.1831
14399W        W33253  10.666   7.795   0.612  0.1295  0.2356 -0.2415
14400W        W33254  10.404  15.553  11.285 -0.3381 -0.1531  0.1795
14401W        W33255   1.312   0.449  15.318 -0.2100  0.1522  0.1258
14402W        W33256  14.352   9.736   1.578 -0.1237 -0.1791 -0.0848
14403W        W33257   2.338   8.499  11.157 -0.0080 -0.0616  0.0040
14404W        W33258   6.568   7.771  14.266 -0.0313  0.0451 -0.3515
14405W        W33259   3.054  17.105   3.064  0.1988  0.2103 -0.0100
14406W        W33260  13.669   4.156   3.764 -0.2603 -0.0514  0.1759
14407W        W33261  13.737   0.666  12.393 -0.1871 -0.1749 -0.1875
14408W        W33262   9.896   6.397  15.007  0.3498 -0.0396 -0.3071
14409W        W33263   5.297   9.596  14.922  0.0794  0.0548  0.2217
14410W        W33264   6.640   0.411   4.671  0.0875  0.1357  0.1995
14411W        W33265   3.050  18.283   3.234 -0.2940 -0.2599  0.0521
14412W        W33266   8.919  14.592   1.461 -0.0116 -0.1508 -0.0025
14413W        W33267  13.473   2.242  13.662 -0.1985 -0.1139 -0.1757
14414W        W33268   4.225   9.214  13.048 -0.3222  0.0085  0.3004
14415W        W33269   3.605   3.336  11.961 -0.0927 -0.1277 -0.3655
14416W        W33270   9.396   2.893   3.162 -0.2024 -0.1995  0.0284
14417W        W33271   1.464  17.034  12.840  0.2135  0.0626 -0.0906
14418W        W33272  13.545   8.848   2.055 -0.1626 -0.0056  0.1327
14419W        W33273  12.925  16.291   5.097 -0.2176 -0.0443  0.1102
14420W        W33274   6.894  13.049  12.161  0.1367 -0.0639 -0.0697
14421W        W33275  12.145  14.071   1.977  0.1376 -0.2600 -0.0470
14422W        W33276  11.407   5.922   6.028 -0.0930 -0.0271 -0.1078
14423W        W33277  17.749  17.413   4.952 -0.1407  0.0004  0.1271
14424W        W33278  17.715   5.051   3.996  0.1289  0.0215 -0.0520
14425W        W33279   9.894  16.601   5.406 -0.0907 -0.0508 -0.0983
14426W        W33280   7.673  13.676   4.325 -0.2519 -0.1258 -0.3495
14427W        W33281  15.899  15.839   3.325 -0.2476 -0.2037 -0.0298
14428W        W33282   2.068   2.876   4.066  0.0954 -0.2102  0.2550
14429W        W33283  16.577   0.252   0.321 -0.0889 -0.3405 -0.2028
14430W        W33284  15.452   1.132   3.523  0.1020  0.1050  0.0355
14431W        W33285  11.050   6.251  14.831 -0.0054  0.1328 -0.2274
14432W        W33286   9.078  12.179   1.757  0.0273 -0.1803 -0.0085
14433W        W33287   7.988  16.390   2.595  0.1520  0.0612  0.1034
14434W        W33288   0.198   0.903  14.904 -0.0932  0.1198  0.2206
14435W        W33289   8.822   4.804   0.424  0.2333  0.3821 -0.0844
14436W        W33290   2.150   8.666   0.783 -0.2751 -0.1385  0.1780
14437W        W33291  10.257   2.584   2.839 -0.0537 -0.3006 -0.0230
14438W        W33292  11.987  14.279  13.763  0.0500 -0.1691  0.1295
14439W        W33293   5.218  14.940   2.582 -0.4349 -0.2131 -0.1570
14440W        W33294   9.880   6.379   3.720 -0.2602 -0.3406 -0.1264
14441W        W33295   8.433  13.666   4.580 -0.2292 -0.0882 -0.3198
14442W        W33296  16.327  10.656   1.009  0.0711 -0.0302  0.2666
14443W        W33297  16.620   0.353   3.016  0.0105 -0.1942 -0.2790
14444W        W33298  16.270  16.049   1.187  0.0900 -0.0715  0.0008
14445W        W33299  12.431  12.200   0.895 -0.0484 -0.2673 -0.1100
14446W        W33300   3.188   1.589  14.676  0.4276 -0.0244  0.1572
14447W        W33301  17.643   5.329  15.004 -0.1634 -0.3387  0.0848
14448W        W33302  12.202   9.804   1.942 -0.0334  0.0033  0.0847
14449W        W33303   3.394   8.742  12.650  0.0295  0.2502  0.0939
14450W        W33304   3.490  15.500   0.725  0.2500  0.0858  0.1141
14451W        W33305  11.318   5.320  10.234  0.0164 -0.0656 -0.1283
14452W        W33306   1.163   3.796  12.308  0.1430 -0.0134 -0.1003
14453W        W33307   7.516   9.124  11.863  0.0772 -0.2121 -0.0475
14454W        W33308  15.673   6.772  15.008 -0.0112 -0.0154 -0.0461
14455W        W33309  16.692  15.729   0.860  0.2921  0.1499 -0.0569
14456W        W33310  18.355  10.898   2.624 -0.0952 -0.2380  0.0128
14457W        W33311   5.927   1.919  12.503  0.1370  0.1641  0.0740
14458W        W33312  11.014   1.145  15.265  0.0476  0.0062 -0.1116
14459W        W33313   5.866   2.215  14.366 -0.1015 -0.1266 -0.1052
14460W        W33314   3.689   0.896  14.917  0.0094  0.1265  0.1076
14461W        W33315   6.084   7.279  14.129 -0.1200  0.3537 -0.3840
14462W        W33316  14.473   6.968  11.136  0.0805  0.3422  0.0676
14463W        W33317  12.205   5.289   0.544  0.1204  0.2603  0.1605
14464W        W33318  14.652  12.617   5.601 -0.0086 -0.0584  0.3494
14465W        W33319  11.792   9.551   2.157 -0.1187 -0.1906 -0.1869
14466W        W33320  17.146   7.973  10.690  0.0947 -0.0427 -0.0256
14467W        W33321  10.087   3.443  14.611  0.0225 -0.2974  0.0515
14468W        W33322  17.424   8.338   2.759  0.3210  0.2137  0.0517
14469W        W33323   3.130   7.652  12.402 -0.1558 -0.4688  0.0954
14470W        W33324   0.423   2.423  10.560 -0.1315  0.2590  0.0977
14471W        W33325   0.421   0.015  13.631 -0.1589  0.0505  0.0679
14472W        W33326   9.729  12.241   4.003  0.1436 -0.5463 -0.3054
14473W        W33327  17.103  13.535   3.928  0.1198 -0.1412 -0.1477
14474W        W33328  17.609  16.380  13.033  0.1607  0.0602 -0.0098
14475W        W33329   7.721  10.647  13.698  0.2466 -0.0496 -0.1505
14476W        W33330   7.432  10.144   1.528  0.0602 -0.0882  0.0342
14477W        W33331   8.425  12.547  11.357  0.1372  0.1315 -0.0568
14478W        W33332  18.477   8.321  14.050  0.0743  0.1649 -0.1235
14479W        W33333   0.957  12.879  12.716  0.1924 -0.0249 -0.0290
14480W        W33334  16.943  10.814  13.485 -0.3904 -0.0180 -0.2751
14481W        W33335  18.122   9.445  12.965 -0.0525  0.1021  0.1895
14482W        W33336   0.310   6.714  12.706 -0.2744 -0.1029  0.1657
14483W        W33337  14.199   5.729  14.659 -0.1725 -0.2406 -0.0284
14484W        W33338   1.941  14.589  10.209  0.1588 -0.0050  0.3076
14485W        W33339  18.542   0.937   2.388 -0.2383  0.1597  0.0982
14486W        W33340  14.707  16.084  12.786 -0.1003  0.2545 -0.2046
14487W        W33341  14.285   4.268   3.662 -0.1111 -0.2447  0.1356
14488W        W33342  17.557  18.492   0.217  0.0569 -0.0125  0.1406
14489W        W33343   0.421   7.543   0.841 -0.1344 -0.2018  0.0435
14490W        W33344  12.733  16.093  13.142  0.2819  0.0217 -0.0834
14491W        W33345  15.811  11.249   3.886  0.1427 -0.1419 -0.1141
14492W        W33346  13.838   9.638   1.710 -0.1702 -0.0437 -0.0319
14493W        W33347   9.456  12.324   3.537  0.0992  0.2502 -0.0164
14494W        W33348   1.688  17.043  11.552  0.3772 -0.1578  0.0222
14495W        W33349  16.720  12.661   4.011 -0.2307  0.1377  0.1250
14496W        W33350  10.717  11.406   0.121 -0.0519 -0.1687 -0.2307
14497W        W33351   3.489   7.896  13.194  0.0338  0.0791  0.0023
14498W        W33352   5.598  15.314  12.512  0.0496 -0.1743  0.0644
14499W        W33353   1.604   2.600  12.690  0.2356 -0.2173  0.0328
14500W        W33354   7.135   9.287   1.771 -0.1659 -0.0598 -0.0716
14501W        W33355   2.274  12.643  12.331  0.0337 -0.1696  0.1783
14502W        W33356  13.705  18.435   1.267 -0.1316 -0.0150 -0.0059
14503W        W33357  14.613  10.895  15.132 -0.0858  0.1841  0.1075
14504W        W33358   5.288   3.736  13.303 -0.0027 -0.0029 -0.1970
14505W        W33359   1.807   8.752   2.053  0.1596  0.0636  0.1215
14506W        W33360  17.632   4.317  11.240 -0.1153  0.2363  0.0166
14507W        W33361  13.302   7.846  11.426 -0.0136  0.2253  0.2945
14508W        W33362  15.528   6.135  13.297  0.2375  0.3020  0.0332
14509W        W33363  11.296   4.954   5.563  0.1285  0.0928  0.0448
14510W        W33364  15.872   5.056  10.841 -0.0680  0.1938 -0.2429
14511W        W33365   5.595   7.840  14.900 -0.0808  0.0081  0.1137
14512W        W33366   8.662  15.874  14.069  0.1663 -0.0352  0.1709
14513W        W33367   3.710  17.080  12.566 -0.3240  0.0021  0.0043
14514W        W33368   3.564  11.608  13.224  0.3253  0.2389 -0.0938
14515W        W33369  18.340   9.121   3.175 -0.2267 -0.0118  0.1427
14516W        W33370   8.132   2.364   1.070 -0.3032 -0.0586 -0.3350
14517W        W33371  13.133  15.701  13.769  0.1271  0.2362 -0.2676
14518W        W33372  18.498   9.542  14.523  0.0166  0.1792  0.2348
14519W        W33373  10.220   3.628  14.068  0.2083 -0.1721  0.1398
14520W        W33374   7.008   5.728  12.344  0.1076 -0.3086 -0.3344
14521W        W33375  17.822   9.783   0.102 -0.2671 -0.0183 -0.2103
14522W        W33376   6.083   1.072   2.603  0.0743  0.0116 -0.0798
14523W        W33377   1.574  17.814   0.104  0.1446  0.0201 -0.2165
14524W        W33378   2.835   6.885  14.858  0.0406  0.0963 -0.0699
14525W        W33379   4.431  11.928  14.363  0.0486  0.1006 -0.1039
14526W        W33380  10.816   2.562  15.219 -0.0309 -0.1940 -0.3271
14527W        W33381   0.975  18.253   4.122 -0.1700  0.2810  0.0665
14528W        W33382  14.510   5.642   4.188  0.3201  0.0563  0.3146
14529W        W33383   2.499  10.461   3.113  0.1456 -0.1414 -0.2223
14530W        W33384   7.797   1.563   3.604 -0.0905 -0.0443 -0.0205
14531W        W33385  10.691   6.097   3.994  0.2571 -0.0074  0.1657
14532W        W33386  14.876  12.260   1.029  0.0721 -0.2044 -0.0433
14533W        W33387  10.925   5.683   0.191  0.1118 -0.0535 -0.1956
14534W        W33388  14.702  14.155   2.440  0.0129  0.0850 -0.1804
14535W        W33389  15.585  10.448  13.342 -0.0579  0.0735 -0.1541
14536W        W33390  12.025  10.175   2.889  0.1835 -0.0339 -0.3723
14537W        W33391   1.081   2.228   2.034  0.2879  0.0613 -0.0521
14538W        W33392  11.398   9.589   4.303 -0.3394 -0.0040  0.1245
14539W        W33393  16.229  15.059   0.889 -0.2597  0.1336  0.0641
14540W        W33394   1.966   0.929   0.984 -0.1174  0.0807 -0.1150
14541W        W33395   5.851  12.413   3.874  0.1410 -0.0942  0.0508
14542W        W33396   0.803   4.658   0.169 -0.0835  0.2341  0.2755
14543W        W33397  16.788   7.056  13.077 -0.2812  0.0403 -0.0622
14544W        W33398   8.397   5.688  12.083 -0.1190 -0.1199  0.1247
14545W        W33399  12.757   7.889  14.252 -0.2205  0.0899  0.0438
14546W        W33400  13.407  13.079   1.250 -0.1633  0.3333  0.1235
14547W        W33401  10.079  10.392  11.839 -0.1372 -0.1875  0.1976
14548W        W33402   9.092   6.169  14.909 -0.1392 -0.3099 -0.0870
14549W        W33403   8.249  16.747  13.947  0.2484 -0.0144 -0.0291
14550W        W33404   4.491  18.391  14.157 -0.2527  0.3792 -0.3010
14551W        W33405   3.877   2.916   3.528  0.1808  0.1029 -0.2149
14552W        W33406   3.959   8.860  10.238 -0.0023 -0.1406 -0.1117
14553W        W33407   5.738  17.539  13.547  0.2177  0.0222 -0.3327
14554W        W33408   9.122   5.584   1.200 -0.0745 -0.0330  0.2629
14555W        W33409   6.292  10.141   3.860 -0.1142  0.3631 -0.1503
14556W        W33410  14.596  17.032   2.051  0.1138 -0.2943  0.1071
14557W        W33411  14.544  13.741   2.185  0.0374  0.0691 -0.0173
14558W        W33412   6.002  12.178  12.424 -0.1581  0.0502  0.1707
14559W        W33413   6.250  18.064  15.088 -0.2502  0.2185  0.0870
14560W        W33414  15.000   0.233  14.831 -0.2219  0.2101 -0.0716
14561W        W33415   9.355   1.653   4.121  0.1244 -0.0146  0.1273
14562W        W33416   6.579   0.303  11.397 -0.0215 -0.0203 -0.2198
14563W        W33417   7.867  13.355   3.388  0.1757  0.0268 -0.4396
14564W        W33418  12.098   1.978  13.765  0.1933 -0.0470  0.1744
14565W        W33419  13.848  11.303   0.155  0.0310  0.1527  0.1370
14566W        W33420  15.099  18.203  13.606 -0.0125  0.1111  0.1760
14567W        W33421   9.253   5.758  14.111  0.4022 -0.1097  0.0181
14568W        W33422   2.851  10.883  14.722  0.1361 -0.0887  0.1365
14569W        W33423   2.127  16.118  12.478 -0.2888  0.0757 -0.2750
14570W        W33424  13.473  13.674  13.870  0.1226 -0.2943 -0.0161
14571W        W33425  14.260  17.680  15.080 -0.1321 -0.2707 -0.2705
14572W        W33426  12.058   9.204  13.215 -0.2264 -0.2427  0.0196
14573W        W33427  16.318  13.531  12.498  0.0829 -0.0417  0.1716
14574W        W33428   6.990   9.465  13.637 -0.1938 -0.1871 -0.3479
14575W        W33429   9.568  13.825   0.033  0.1614 -0.1586  0.4882
14576W        W33430  10.961   5.355  12.506  0.2096 -0.1957  0.0792
14577W        W33431   4.792  10.810  13.966 -0.1383  0.0826  0.0422
14578W        W33432  13.732  17.006   0.908 -0.1898  0.1274 -0.0013
14579W        W33433  11.699  15.739   2.712 -0.3252  0.4392 -0.0359
14580W        W33434  12.604  17.559  11.650 -0.2572 -0.0217  0.0646
14581W        W33435   6.180   3.986  14.899 -0.1680 -0.1466  0.2900
14582W        W33436  11.532   1.736  12.643 -0.3289  0.0002 -0.0216
14583W        W33437   2.600   9.437  13.009 -0.2575  0.2194 -0.1455
14584W        W33438   5.142  17.625   5.040  0.2366  0.2067 -0.1293
14585W        W33439  12.784   7.244   3.709 -0.1425  0.0261  0.1889
14586W        W33440  15.829   8.445   0.665 -0.0429 -0.2161 -0.1886
14587W        W33441  10.937  11.249   4.231  0.1472  0.1030  0.2443
14588W        W33442   2.230   4.655  11.013  0.1418 -0.0280 -0.1295
14589W        W33443  12.432  17.263   0.614  0.0794  0.1696  0.1625
14590W        W33444   7.287   9.587   3.156  0.1098  0.2491 -0.1368
14591W        W33445   1.727   6.890  11.526 -0.0648 -0.1945  0.2799
14592W        W33446  10.251   5.145   3.177  0.1821 -0.2028  0.1529
14593W        W33447   0.205  11.917  10.575 -0.3290  0.1213  0.2012
14594W        W33448  14.113   7.218  14.592  0.0861  0.1344 -0.0246
14595W        W33449   7.065   3.140  10.316  0.2311  0.2213 -0.1495
14596W        W33450  15.221   5.381  11.113 -0.0104 -0.1791  0.3700
14597W        W33451  11.912  15.777   2.253  0.2573 -0.0092 -0.3217
14598W        W33452  15.161  12.970  14.523 -0.1022 -0.2239  0.3102
14599W        W33453  13.437   6.071  11.579  0.1661  0.1292  0.2780
14600W        W33454  17.233  10.841   4.510  0.1758  0.0885  0.1335
14601W        W33455   8.028   8.568  12.901 -0.1224  0.2186  0.2021
14602W        W33456   8.433  15.802  12.620 -0.0912 -0.2669  0.0162
14603W        W33457   4.108   4.697  12.214  0.0055 -0.0107  0.1845
14604W        W33458   1.435   6.268   3.734  0.1849  0.4085 -0.0749
14605W        W33459  17.197   3.194  10.984 -0.1147  0.2967 -0.3953
14606W        W33460  14.230  14.260  14.173 -0.3531 -0.0488  0.0264
14607W        W33461  14.040  14.711   3.123 -0.2048  0.0153  0.0711
14608W        W33462   4.380   7.204   4.544  0.1315 -0.0863 -0.3067
14609W        W33463   5.186   6.577   3.692  0.2610  0.0980 -0.5976
14610W        W33464  12.718  15.815   0.803  0.0707  0.1700  0.1327
14611W        W33465   8.636   0.521  11.150 -0.2857  0.1535 -0.0780
14612W        W33466   2.068   3.804  12.120  0.0820  0.1696  0.2746
14613W        W33467   8.695  13.774   0.033  0.0194  0.2322  0.0820
14614W        W33468   9.771  13.499   2.635 -0.0519  0.1542  0.1938
14615W        W33469  12.399  13.289  14.030  0.1952  0.0737 -0.0581
14616W        W33470   5.792   0.400   3.033  0.0832  0.2576 -0.0284
14617W        W33471   4.941   4.186  15.373 -0.2624 -0.3678  0.3644
14618W        W33472  11.749   1.288   3.302 -0.2667 -0.2655  0.1668
14619W        W33473  14.882   4.871   4.125 -0.1057 -0.2506 -0.1948
14620W        W33474  17.574  10.811  14.467 -0.1233  0.3941  0.1843
14621W        W33475   9.896   1.322   1.598 -0.0821 -0.0612 -0.4014
14622W        W33476  15.202  17.216  12.955 -0.2487  0.0222  0.1640
14623W        W33477   6.661  15.847   4.168  0.3801 -0.2574  0.1979
14624W        W33478   8.924  12.614   2.167  0.0797  0.1521  0.1090
14625W        W33479   1.903  15.619  13.513 -0.1399  0.1254  0.0861
14626W        W33480   9.180   4.130   0.915  0.0516  0.3001 -0.1816
14627W        W33481   1.946  11.379  10.843  0.3666 -0.1081 -0.0857
14628W        W33482   1.564   3.827  10.904  0.0770 -0.0545  0.3371
14629W        W33483   5.809  11.920  12.059 -0.1612 -0.1259  0.0557
14630W        W33484   7.242   1.913   2.005 -0.0682 -0.1200  0.3387
14631W        W33485  17.890  12.409  14.256  0.3788 -0.2059 -0.2028
14632W        W33486  12.051  17.639   3.747 -0.0812 -0.0938  0.1948
14633W        W33487  12.929   4.086  15.143  0.3037 -0.2718  0.0760
14634W        W33488   9.529   7.540  13.352 -0.2305 -0.0212  0.0520
14635W        W33489   1.736  10.896  10.831 -0.2039  0.2650  0.4901
14636W        W33490   8.261   3.204   0.443  0.0775  0.2652 -0.3737
14637W        W33491   1.327   4.756  14.593 -0.1279  0.2347  0.0283
14638W        W33492   6.345  11.182  10.522  0.0446 -0.0208 -0.2626
14639W        W33493   7.277   1.040   0.287  0.2314 -0.1691 -0.1513
14640W        W33494  17.192  15.172   4.357 -0.2972  0.1204  0.2626
14641W        W33495  14.110  13.834   3.480  0.1423 -0.1288  0.2705
14642W        W33496   3.436   2.618  13.805  0.1598 -0.1488  0.1409
14643W        W33497  10.602  16.971  12.938  0.1164 -0.2504  0.2652
14644W        W33498   9.250   8.363  12.962 -0.2377  0.3971 -0.0778
14645W        W33499   5.716   6.836   2.229 -0.0727  0.0109 -0.0267
14646W        W33500   0.274  17.554  11.506 -0.2250 -0.0126 -0.4237
14647W        W33501   7.721   4.756   4.192  0.0051  0.1716  0.0989
14648W        W33502  11.812  15.179  14.467 -0.0114 -0.3318  0.2755
14649W        W33503  14.963  12.603   4.664  0.2878  0.0345 -0.1708
14650W        W33504  10.343   4.448   2.865  0.0654 -0.1862  0.4011
14651W        W33505  15.672  18.406  12.563  0.1831  0.5459 -0.1261
14652W        W33506  16.725   3.656   1.024 -0.2885 -0.1898 -0.0923
14653W        W33507   9.844   1.509   3.712 -0.2152  0.1829 -0.2636
14654W        W33508  16.258  13.025  12.127  0.1105 -0.2406  0.1715
14655W        W33509   8.071   1.956   0.860 -0.0580  0.0835 -0.3398
14656W        W33510   9.073  16.977   0.988 -0.0380 -0.0001 -0.1401
14657W        W33511  15.224   0.830   4.393 -0.2085  0.0414 -0.1907
14658W        W33512  11.886   5.970   1.426 -0.0123  0.0885  0.0609
14659W        W33513   0.459  16.491   3.016  0.3669  0.0174 -0.0841
14660W        W33514   8.245  15.873   9.782  0.1719  0.0145  0.1268
14661W        W33515  15.616  16.524  13.465 -0.3084 -0.4860  0.0860
14662W        W33516  17.469   0.649   2.757  0.1365 -0.5265 -0.0853
14663W        W33517   9.396   6.604   1.905  0.0660 -0.0545 -0.2698
14664W        W33518   8.496   7.788   1.290  0.1590  0.1097  0.2954
14665W        W33519   3.344  14.323   3.343  0.3567 -0.0701 -0.1872
14666W        W33520  11.024  16.929  13.400 -0.1505  0.0950 -0.2575
14667W        W33521  16.604   4.148  11.754  0.0664  0.1330  0.2917
14668W        W33522  16.109  11.829   0.809  0.0565 -0.0386  0.0447
14669W        W33523   1.075  13.180  15.133 -0.2364 -0.0161 -0.0415
14670W        W33524  17.513   6.818  15.088 -0.1209  0.3974 -0.1260
14671W        W33525  16.348  14.257  14.211  0.1583 -0.2669  0.1762
14672W        W33526   0.087  11.898  13.331 -0.2463  0.1564 -0.0827
14673W        W33527   0.443   5.127   2.497  0.1314  0.2880  0.0687
14674W        W33528  15.108   6.130   1.220 -0.1442 -0.0365 -0.3430
14675W        W33529   4.219   3.551  12.841 -0.0171  0.2583 -0.2047
14676W        W33530  14.444  13.918  11.289  0.1827 -0.1457 -0.0963
14677W        W33531   8.901   0.551  13.704  0.2579 -0.1149  0.2709
14678W        W33532  15.964  12.851  15.461  0.1100  0.2453 -0.2028
14679W        W33533   8.170  13.890   2.310 -0.0651 -0.0021  0.1033
14680W        W33534   7.074  13.538   0.973  0.3129 -0.0715  0.0166
14681W        W33535  11.974  15.940  15.037 -0.1586  0.2025  0.0146
14682W        W33536   7.138  15.615  11.764 -0.1978  0.1464 -0.0663
14683W        W33537  12.526  12.520  14.539 -0.0910 -0.0162 -0.2183
14684W        W33538   9.447   1.403   3.265  0.0680  0.0857 -0.0972
14685W        W33539   2.495   9.907  15.369 -0.0741 -0.1428 -0.2838
14686W        W33540   7.566   5.869  12.108 -0.0628  0.0908  0.0681
14687W        W33541   4.813  16.192  12.778  0.0723  0.1188  0.0699
14688W        W33542   3.050   3.641   4.709 -0.1556 -0.2549 -0.1480
14689W        W33543   1.504   7.103  11.115 -0.0378 -0.1074 -0.2746
14690W        W33544   5.663   9.922  15.021  0.0247  0.0679  0.3418
14691W        W33545   6.892   4.758   1.655  0.2272 -0.0297 -0.2210
14692W        W33546   8.146   1.871  15.329 -0.3572 -0.0718 -0.0912
14693W        W33547  10.963  18.303   0.860  0.0431 -0.2431 -0.2548
14694W        W33548  11.402   0.847   0.574  0.2770 -0.0703  0.2684
14695W        W33549   2.245   9.595   2.593  0.2408  0.0135  0.0794
14696W        W33550  16.492  10.330  13.857 -0.2892  0.2156 -0.0854
14697W        W33551   0.349   8.525   0.832 -0.4000  0.0405  0.1463
14698W        W33552   4.234  11.114   4.502  0.0418  0.0658  0.1362
14699W        W33553   1.953  16.675  14.198 -0.1533 -0.0356  0.1330
14700W        W33554   2.906  11.306   0.594  0.0462  0.3639 -0.2547
14701W        W33555   7.755   1.977   1.801  0.1167  0.2015  0.3419
14702W        W33556  15.861   1.701   2.660 -0.0542  0.0133  0.0241
14703W        W33557   9.592   0.224   0.065 -0.3629  0.2180 -0.0809
14704W        W33558  13.923   6.232  12.077 -0.2079 -0.2226  0.1713
14705W        W33559   0.807   5.553   1.722 -0.2512  0.2229 -0.0819
14706W        W33560   5.566   4.001   4.166 -0.1029  0.2080  0.1703
14707W        W33561   3.237  12.200  14.087 -0.0771  0.1828  0.3086
14708W        W33562  11.537  15.179   0.362  0.0495 -0.0187 -0.4058
14709W        W33563   4.747   0.825   3.228  0.1874  0.0623  0.1468
14710W        W33564   7.544  11.287   3.447  0.2630  0.0700  0.1747
14711W        W33565   7.316   2.320  15.157 -0.0979  0.1448 -0.2303
14712W        W33566  11.923  13.150  13.832  0.1587 -0.1049  0.4904
14713W        W33567  17.968   0.298  11.228 -0.0079 -0.1938  0.1270
14714W        W33568   3.860   1.990   3.328 -0.2682  0.1917  0.0232
14715W        W33569  15.998  13.291   2.146 -0.2458 -0.2187 -0.2864
14716W        W33570   2.868   9.182  13.321 -0.2901  0.1129 -0.2045
14717W        W33571   5.257  12.757  12.681 -0.1900 -0.1479  0.1412
14718W        W33572   3.893   6.225   2.391 -0.2607 -0.1773 -0.0215
14719W        W33573   3.738  10.908   0.594 -0.3614 -0.1249 -0.0086
14720W        W33574  14.164   2.642   1.680 -0.0413 -0.0785 -0.0234
14721W        W33575   1.040   4.557  15.099 -0.1947  0.2852  0.3860
14722W        W33576   4.336  12.945  11.573 -0.0007  0.1824 -0.2924
14723W        W33577  11.371  18.140   0.468  0.1507 -0.0594 -0.0365
14724W        W33578  15.423   8.052   4.436 -0.2604  0.0355  0.0562
14725W        W33579  15.083  16.693   4.447 -0.0275 -0.0163  0.1331
14726W        W33580  10.694   6.908   0.647 -0.3263  0.4679  0.0161
14727W        W33581  14.242  17.757  13.310 -0.1119 -0.2091 -0.0048
14728W        W33582  12.273  11.441   0.418  0.2420  0.0479 -0.0441
14729W        W33583   8.127   2.831   3.307  0.2152 -0.2717 -0.3883
14730W        W33584   6.495   1.681   0.464 -0.0578  0.4236 -0.1272
14731W        W33585  12.646   8.392   4.587  0.0246 -0.1922  0.1973
14732W        W33586  11.578   9.308  13.435  0.0027  0.0072  0.2998
14733W        W33587  13.210   2.546   4.204  0.0149  0.3492  0.1962
14734W        W33588   9.081   5.744  15.241 -0.1664 -0.1215 -0.0933
14735W        W33589   0.483  12.249  15.247  0.0261 -0.0793 -0.2097
14736W        W33590   0.556   4.007  12.171 -0.1885 -0.2896 -0.0649
14737W        W33591  12.232  17.638  11.322  0.0337  0.3290 -0.0405
14738W        W33592  16.480   6.985  11.785  0.1811  0.2713 -0.0774
14739W        W33593  17.277  10.069  13.934  0.3960 -0.2329 -0.0654
14740W        W33594   0.609   0.823  13.590  0.2002 -0.2189 -0.1927
14741W        W33595  16.579   6.926   2.089 -0.1617 -0.1595 -0.3433
14742W        W33596   8.679   3.298   5.727  0.1694 -0.2240  0.1247
14743W        W33597   4.312  17.563   3.484  0.1579 -0.4193  0.2340
14744W        W33598   0.563   4.808   2.944  0.3015 -0.2598  0.0917
14745W        W33599   7.045   2.052   9.969  0.1082  0.2214  0.0460
14746W        W33600  18.419  18.125   2.480 -0.0373 -0.0447 -0.0334
14747W        W33601  13.479   0.750   3.060 -0.1394  0.0391 -0.4273
14748W        W33602  11.318  11.700  14.428 -0.0046  0.1056 -0.1927
14749W        W33603   7.414  11.681  13.774 -0.1840 -0.2063  0.0761
14750W        W33604   8.505   3.111  11.509 -0.1039  0.1437 -0.0227
14751W        W33605   7.408  10.764   2.118 -0.2229  0.1852 -0.0475
14752W        W33606  17.627   3.386  13.863 -0.1424  0.3363 -0.1796
14753W        W33607   6.524   3.321   0.773 -0.0681 -0.0183 -0.2119
14754W        W33608   5.057  15.245   0.086  0.1740  0.1287  0.1724
14755W        W33609  17.485   4.060   0.064  0.1359 -0.1782 -0.1727
14756W        W33610   5.380  12.092  11.800 -0.3121 -0.1322  0.1778
14757W        W33611   2.305  15.275  14.742 -0.2441 -0.2318  0.1501
14758W        W33612  13.896   2.745   0.677 -0.1668  0.3987  0.0811
14759W        W33613  18.176  17.061   0.047  0.1347  0.1793  0.1827
14760W        W33614   0.949  13.084   1.183 -0.3373  0.0400 -0.3151
14761W        W33615  15.273   3.402  13.842  0.2853  0.0643 -0.0928
14762W        W33616   8.842   8.591   2.680  0.2397 -0.1137 -0.1051
14763W        W33617   4.470   4.539   2.284 -0.2116 -0.0480 -0.1874
14764W        W33618   7.621  15.772   2.881  0.5865 -0.1138  0.0196
14765W        W33619  13.140   0.487   3.686 -0.0317  0.1513  0.1027
14766W        W33620   0.413   1.435   0.378 -0.0681  0.1836 -0.1248
14767W        W33621  16.708  18.427  10.984  0.0912 -0.1932 -0.0733
14768W        W33622   2.384  13.678   1.322  0.1492  0.0120  0.1114
14769W        W33623   0.512   7.859   0.433  0.1120  0.0313 -0.0499
14770W        W33624   9.503   2.170   1.040 -0.2836 -0.1015  0.2105
14771W        W33625  14.908   5.686   4.517 -0.2661 -0.1402 -0.2889
14772W        W33626   7.465   1.218  14.970  0.4167 -0.1108  0.0916
14773W        W33627  10.371   1.987   4.765 -0.2153  0.2659 -0.1021
14774W        W33628  10.540   6.884  11.059 -0.1014 -0.2785 -0.0616
14775W        W33629   9.674  17.451   3.753  0.2458  0.0771 -0.2156
14776W        W33630   0.032  11.285  12.684 -0.2884  0.1146 -0.0446
14777W        W33631  14.540  11.865   1.689  0.0112  0.1026 -0.0929
14778W        W33632  16.820   5.590  11.601 -0.0558 -0.0574 -0.1628
14779W        W33633   7.765  15.538   2.376 -0.2695  0.1530  0.0618
14780W        W33634   7.054   3.709   2.648  0.0994 -0.2791  0.0363
14781W        W33635  10.147   9.694  12.925 -0.0186  0.0801 -0.1196
14782W        W33636   4.801  14.178   0.265  0.0262  0.0562  0.0686
14783W        W33637  12.803   9.888   4.480 -0.1003  0.0351 -0.1916
14784W        W33638   3.372   5.214  11.820  0.3553 -0.0259 -0.0022
14785W        W33639   5.272  10.077  14.713  0.1795  0.0160  0.0948
14786W        W33640  11.796   5.977   4.020 -0.0568  0.0935  0.0725
14787W        W33641   3.683  16.463  15.425  0.3093  0.0102 -0.0359
14788W        W33642   3.998  10.273  14.154  0.4053  0.4117 -0.2532
14789W        W33643   2.441   7.510  13.193  0.2261 -0.0498  0.0573
14790W        W33644   8.516  16.013   3.546  0.2112 -0.1222 -0.0475
14791W        W33645  17.342  10.682   2.220 -0.4348 -0.1960 -0.1712
14792W        W33646   0.339  17.191  13.308 -0.0951 -0.1034  0.0831
14793W        W33647  15.106  16.951   2.366 -0.0992 -0.0652 -0.0593
14794W        W33648  10.863   6.008  13.913  0.0304 -0.0967  0.0535
14795W        W33649  15.579  13.981   0.896 -0.2550 -0.0736  0.1540
14796W        W33650   8.175   6.602  13.508 -0.0895 -0.1323  0.1953
14797W        W33651   6.164  14.179   0.075 -0.0075 -0.1494  0.1132
14798W        W33652  11.393   9.149   3.495 -0.2246 -0.0992  0.0624
14799W        W33653  18.079  15.248  10.519 -0.1875 -0.0830  0.2204
14800W        W33654  12.181  12.157  14.088 -0.0343 -0.4854  0.0477
14801W        W33655  11.529  18.476   4.599 -0.1665 -0.1523  0.2010
14802W        W33656  17.194  11.649   3.081 -0.1945  0.0443 -0.0440
14803W        W33657   2.925   8.327   1.675 -0.1238 -0.1173 -0.1097
14804W        W33658   2.719   8.840  12.033 -0.0654 -0.0538  0.0197
14805W        W33659   7.062   0.126  11.584  0.2022 -0.0727 -0.0056
14806W        W33660  16.213   1.576  12.168 -0.0912 -0.3159  0.1191
14807W        W33661   1.279   8.330  12.698 -0.0445  0.2287 -0.0023
14808W        W33662  13.676  10.680   1.628 -0.1200 -0.0006  0.1180
14809W        W33663  12.649   7.812   3.921  0.1111 -0.0905  0.0079
14810W        W33664   7.789  17.292   2.170  0.1223 -0.1948  0.1522
14811W        W33665  13.683  17.414  12.708  0.3701 -0.3009  0.1644
14812W        W33666   4.311   3.625   3.257  0.0861  0.0172  0.0167
14813W        W33667   8.480   3.473  15.203 -0.0559 -0.2274 -0.0253
14814W        W33668   0.432   6.786   4.360 -0.1519 -0.2904 -0.0791
14815W        W33669  16.671   6.817  14.523  0.1547 -0.5665  0.4125
14816W        W33670  16.512   2.434  11.170  0.0374 -0.1951 -0.0889
14817W        W33671  11.617   3.906  10.300  0.2167  0.0902 -0.1050
14818W        W33672  14.804  15.439  12.225 -0.1068  0.0692  0.2716
14819W        W33673  12.187  13.136   1.791 -0.0788  0.1836 -0.2448
14820W        W33674  15.466   4.837  15.164 -0.2972 -0.0164  0.2291
14821W        W33675  15.298   1.925  10.281 -0.1988 -0.0117  0.0036
14822W        W33676  15.995  15.227   4.248 -0.1011  0.1691 -0.1118
14823W        W33677   2.290  14.459  14.666 -0.0285  0.0085 -0.1695
14824W        W33678   1.719   5.674   2.700  0.1640  0.0942 -0.1663
14825W        W33679   5.433   1.332  13.524  0.0523  0.0155 -0.2179
14826W        W33680  15.037  12.768   2.386 -0.2286  0.0354 -0.0011
14827W        W33681  16.955   9.775   0.728  0.1079  0.1580  0.1909
14828W        W33682   5.118  14.852   1.331 -0.0340  0.1430 -0.0040
14829W        W33683   4.038  16.094   3.562 -0.0895 -0.2875  0.0535
14830W        W33684  14.685   1.686  14.680 -0.0686 -0.1180 -0.0741
14831W        W33685   8.172   5.525   4.298  0.1769 -0.1155 -0.0564
14832W        W33686  10.676   8.004   0.132 -0.1224 -0.0317  0.3784
14833W        W33687  14.561   7.118  12.740  0.0219 -0.1452  0.1712
14834W        W33688   2.021  15.827  12.899  0.3529 -0.2213  0.1851
14835W        W33689   0.543   5.738   1.290 -0.1839 -0.2041 -0.1977
14836W        W33690  15.483   8.740   3.003 -0.0207 -0.4035 -0.1113
14837W        W33691   5.672  18.335   0.198 -0.0342  0.1357  0.2053
14838W        W33692  10.220  13.825   4.065  0.1755 -0.0557  0.1021
14839W        W33693  15.669  17.808   2.527  0.3027  0.0350  0.1071
14840W        W33694   8.039  12.198  13.768  0.0265 -0.3648 -0.2670
14841W        W33695  10.382  18.457   0.067  0.1639 -0.0488  0.4159
14842W        W33696   5.142   8.316   0.759  0.0412  0.1049  0.1006
14843W        W33697  17.308  18.408   0.652  0.0442  0.0378  0.4759
14844W        W33698  11.120  15.733   2.578  0.1229 -0.1656  0.2251
14845W        W33699  11.939   9.941  14.251  0.1462 -0.2069 -0.0017
14846W        W33700   7.639  14.738   1.826 -0.3248  0.0773  0.0695
14847W        W33701  14.524  12.612   2.296 -0.4515  0.0278 -0.0780
14848W        W33702  11.129   3.321  15.287 -0.0340  0.1973  0.0679
14849W        W33703  18.129   7.397  11.265 -0.3064  0.1066 -0.2173
14850W        W33704  14.047   2.944   4.675  0.1515  0.0475  0.1743
14851W        W33705  16.189   6.331  12.154 -0.2829  0.0340  0.0384
14852W        W33706  16.845  11.001   5.749  0.2379 -0.2231  0.2275
14853W        W33707   0.634   1.070   2.899 -0.3188  0.1498  0.0016
14854W        W33708   4.094  11.626   3.306  0.1929  0.0699 -0.0199
14855W        W33709  11.057   8.987  10.022 -0.1228 -0.3498  0.1085
14856W        W33710  12.655  12.910  13.616  0.2532 -0.3060 -0.1624
14857W        W33711  13.993  17.310  13.100  0.2243  0.1842  0.2635
14858W        W33712  15.242   7.851  14.184 -0.0588  0.5418  0.2669
14859W        W33713  17.782  17.108   0.938  0.0938  0.1240  0.0491
14860W        W33714   1.396  16.693  13.240 -0.1863  0.2655  0.4462
14861W        W33715   4.899  14.636   4.131 -0.1063 -0.3031  0.3608
14862W        W33716   3.260   7.767  11.692 -0.3188  0.2071 -0.1825
14863W        W33717  14.540  16.206  14.974  0.4930  0.1265 -0.0456
14864W        W33718   0.662  10.437  12.954  0.1970  0.1258  0.1793
14865W        W33719  18.514  15.385  11.923  0.1860  0.0739  0.2216
14866W        W33720  16.032  10.333   2.681 -0.2865 -0.0818 -0.1490
14867W        W33721  11.743  16.477   2.176 -0.0542 -0.2307  0.0897
14868W        W33722  12.993   8.650   1.379  0.1091 -0.2097 -0.0239
14869W        W33723   6.282   8.214  13.400  0.0302 -0.0220  0.1981
14870W        W33724  18.383  17.633  11.212 -0.0974  0.2337 -0.0503
14871W        W33725   2.286  15.437  12.678  0.2264  0.1216  0.0513
14872W        W33726   2.625   9.831  12.303 -0.1998 -0.0185  0.2721
14873W        W33727   2.280   6.013  14.991 -0.0768 -0.1114 -0.2393
14874W        W33728   4.854   7.135   4.572 -0.2236 -0.0647  0.0981
14875W        W33729  14.476  13.252  12.462 -0.0920 -0.2536  0.0825
14876W        W33730  13.429  15.120  14.935  0.0323 -0.0116 -0.1079
14877W        W33731   2.082   1.235   0.100 -0.2043  0.0522  0.0427
14878W        W33732   9.391   5.876  11.004 -0.2216  0.3638  0.1665
14879W        W33733   8.577   9.260  13.620 -0.0998 -0.2126 -0.0548
14880W        W33734  17.647   2.783  11.298 -0.3049  0.0959  0.0456
14881W        W33735   6.553   3.990   3.700 -0.1566  0.1499  0.0895
14882W        W33736  14.448  12.624   0.256  0.0804  0.2125 -0.1016
14883W        W33737  13.761  18.098   2.814 -0.1486 -0.0933 -0.3322
14884W        W33738  17.263  16.729  11.237  0.1032  0.1640 -0.1120
14885W        W33739  16.290  14.174  12.058  0.1546 -0.2970 -0.1100
14886W        W33740  12.211   3.965   1.117 -0.0882  0.1558 -0.0143
14887W        W33741   7.472  12.037   2.106 -0.0300 -0.0336  0.4380
14888W        W33742   5.600   4.958   4.199 -0.0183  0.3746 -0.3326
14889W        W33743   2.720  16.313  13.912 -0.3531 -0.1961  0.1358
14890W        W33744  15.908   1.007  12.438  0.0724  0.2218  0.0593
14891W        W33745  14.583  13.236  10.968 -0.2829 -0.2383  0.1887
14892W        W33746   5.338   3.152   2.217  0.0527 -0.0121  0.0776
14893W        W33747  15.011   6.189  13.526 -0.2408 -0.0544  0.0486
14894W        W33748   6.814  15.295   3.428  0.0076 -0.0871  0.1441
14895W        W33749  12.691   9.416   3.135 -0.1388 -0.2546  0.0010
14896W        W33750   6.684   2.508  15.413 -0.1988 -0.2384 -0.1272
14897W        W33751  15.374   5.710  15.170  0.0132 -0.2902 -0.0855
14898W        W33752   2.346  15.712   3.956  0.0232 -0.2182 -0.4222
14899W        W33753  10.356  12.724   2.008 -0.2753 -0.0843  0.3836
14900W        W33754   9.822  12.979  13.076  0.0464  0.0148 -0.3217
14901W        W33755   1.060  10.557   2.749  0.3762  0.1946 -0.0291
14902W        W33756   2.600   4.354   0.135 -0.0383  0.1926  0.2056
14903W        W33757   8.074  14.792  13.617  0.2650  0.1308 -0.1755
14904W        W33758   4.243   5.861   0.187  0.0447 -0.0068  0.0307
14905W        W33759   5.199   2.160   3.775 -0.1356  0.0553 -0.1747
14906W        W33760  15.073   1.920  13.907 -0.3409  0.1612  0.2875
14907W        W33761   1.095  12.816   2.830  0.0890 -0.0912  0.3453
14908W        W33762   5.826  16.215   2.171  0.0597 -0.2949 -0.1206
14909W        W33763  11.580   2.931  11.893 -0.3366  0.2397  0.1431
14910W        W33764  13.879   0.739   0.807 -0.0960  0.0342  0.2523
14911W        W33765   0.935  15.028  14.521 -0.2241  0.2500 -0.0622
14912W        W33766   6.479   7.310  13.372  0.1360  0.1407  0.1897
14913W        W33767   0.144   0.346  12.558  0.3397 -0.4859  0.1421
14914W        W33768   1.038  13.735  15.462 -0.1121  0.0100 -0.0278
14915W        W33769   9.697   6.610   4.159  0.0789  0.0387  0.1772
14916W        W33770   4.782  17.644   4.263  0.0510  0.0642  0.1358
14917W        W33771  10.701  14.124   0.774 -0.2315 -0.2420 -0.1298
14918W        W33772  15.344  17.395   2.494 -0.2171  0.0446  0.0499
14919W        W33773  14.653   4.215   1.796  0.0267 -0.1039  0.2815
14920W        W33774   3.816   9.460  15.414 -0.2612 -0.2331 -0.2232
14921W        W33775  14.698  13.773  12.019  0.1261  0.1119  0.4965
14922W        W33776  17.926   6.378  13.963 -0.1392 -0.1143 -0.2340
14923W        W33777  13.341   0.692  14.130  0.1964  0.1163  0.1286
14924W        W33778   5.935   3.597   3.999 -0.2156  0.1997 -0.2102
14925W        W33779  12.475   4.160   2.774  0.0208  0.0954 -0.2070
14926W        W33780   6.209  15.761   3.864 -0.1184  0.1886 -0.2970
14927W        W33781   9.206  11.065  12.790 -0.0019 -0.0154  0.3537
14928W        W33782  16.637  11.472  15.077 -0.1146 -0.1853 -0.0714
14929W        W33783  13.863   6.717  15.287 -0.0618 -0.0273 -0.2766
14930W        W33784  15.282  13.562   2.881  0.1134 -0.1965  0.2751
14931W        W33785  15.881   9.847  10.668 -0.1116  0.1679 -0.2514
14932W        W33786  18.438  12.813   1.950  0.0118  0.3198  0.0485
14933W        W33787  12.677  17.290   4.819  0.2685 -0.1012 -0.2295
14934W        W33788  14.480  17.512   2.799  0.0909  0.1088 -0.0172
14935W        W33789  13.198  14.221  14.118 -0.0762 -0.0481 -0.0253
14936W        W33790   2.279   6.105   3.495  0.0174  0.0206  0.0238
14937W        W33791   6.894   9.177  11.324  0.1930  0.0821 -0.1775
14938W        W33792   8.454  16.959  13.500  0.0092  0.0861  0.1041
14939W        W33793   9.295   0.914   3.472 -0.2065  0.0175 -0.1767
14940W        W33794   1.417  18.433  12.474 -0.0637  0.1601 -0.0663
14941W        W33795  10.507   6.532  12.178  0.1086  0.2152 -0.1419
14942W        W33796   8.216   1.344   0.121  0.0879 -0.3112 -0.2368
14943W        W33797   5.186   9.599  13.571 -0.1630  0.1823  0.3475
14944W        W33798   0.996  10.084   1.915 -0.0267  0.1123 -0.2020
14945W        W33799   1.435   7.075   2.885  0.1313 -0.1412  0.1250
14946W        W33800   2.190  14.426   2.145  0.2501 -0.1503  0.1411
14947W        W33801   1.069  15.771   3.173  0.0312 -0.1825  0.2271
14948W        W33802   6.612  14.021   2.276  0.2240 -0.1959  0.0654
14949W        W33803   4.360  14.944  11.639 -0.1040 -0.1055 -0.0654
14950W        W33804   4.044  11.743   0.233 -0.0119 -0.0580 -0.2860
14951W        W33805  13.720   8.600  13.533 -0.3091  0.1410  0.2351
14952W        W33806   1.053  13.915   1.569 -0.2246  0.0440 -0.0335
14953W        W33807  10.891   5.610   2.872  0.1394 -0.4919  0.4103
14954W        W33808   7.947   2.768  10.341 -0.1335 -0.0841  0.0517
14955W        W33809   5.701  12.731  14.964  0.0492  0.0695 -0.0819
14956W        W33810  15.061   7.039   4.297 -0.3052  0.0251 -0.2286
14957W        W33811  12.950   4.728   3.020 -0.0602  0.1410  0.2048
14958W        W33812  13.913  13.213   1.369 -0.0705 -0.1530 -0.0475
14959W        W33813   2.612   9.606   1.167  0.0573 -0.0322  0.1353
14960W        W33814  11.001   1.189   1.712  0.1998  0.1235 -0.0458
14961W        W33815  17.973   1.235  14.346 -0.5212  0.0130  0.0806
14962W        W33816  14.981   0.912  11.243 -0.0962 -0.0855 -0.0701
14963W        W33817  14.469  10.086   0.065 -0.0212 -0.0547  0.1610
14964W        W33818  14.071   6.245  12.904  0.3026 -0.0129 -0.1181
14965W        W33819  12.735   9.646   3.562 -0.1416 -0.3477 -0.2104
14966W        W33820   0.541  14.488  13.542  0.2652  0.2726 -0.3027
14967W        W33821  12.766  16.137  14.709  0.1554  0.0585  0.1942
14968W        W33822   9.674   3.319   2.835 -0.2478  0.1753  0.2283
14969W        W33823   3.850   2.232  11.165  0.0586 -0.0573 -0.0540
14970W        W33824   3.280   9.994  14.834 -0.1228  0.1337 -0.1072
14971W        W33825  17.872   9.261   0.082  0.1571  0.2624  0.2984
14972W        W33826   5.523   8.905  11.187  0.0200 -0.2552 -0.1257
14973W        W33827   8.448   8.846  14.211  0.0011 -0.2413  0.0340
14974W        W33828  13.144  13.434   0.303 -0.0752  0.0934 -0.1870
14975W        W33829   4.096   3.317   0.848  0.2444  0.0044 -0.1516
14976W        W33830   6.799   9.927   1.097 -0.2210  0.3732 -0.2065
14977W        W33831   9.109  17.573   5.460 -0.1852 -0.0957 -0.2920
14978W        W33832   0.008   1.493   0.104  0.1607 -0.0358  0.2314
14979W        W33833  15.391   8.611  13.685 -0.2991 -0.0212 -0.1875
14980W        W33834  17.285   1.215   0.569  0.2408  0.0640 -0.2118
14981W        W33835   8.131   8.341   3.368  0.3460 -0.2077 -0.3578
14982W        W33836  10.717  11.753   4.048  0.1248  0.1504  0.1167
14983W        W33837  11.412  14.565   3.994  0.1779  0.1938  0.0397
14984W        W33838  17.563  16.396  12.085  0.2380  0.1798 -0.1295
14985W        W33839   6.364  16.358   3.975  0.0195 -0.0529 -0.0202
14986W        W33840  18.451  11.204  14.450 -0.0202  0.0651 -0.0668
14987W        W33841   0.331   6.810   1.312  0.3298 -0.2411 -0.2492
14988W        W33842   5.011   2.856  10.343 -0.0302 -0.0039 -0.0120
14989W        W33843  16.629  11.112  13.065  0.3272 -0.0083  0.2155
14990W        W33844  15.609   8.500  12.984 -0.3152  0.1264  0.1842
14991W        W33845  10.953   9.612   0.078 -0.2620 -0.0888  0.1682
14992W        W33846   5.343   1.093  12.526  0.0640  0.0176  0.2153
14993W        W33847  11.481  16.135  11.261 -0.0548  0.3141 -0.1714
14994W        W33848  14.751   0.217   4.518 -0.0249  0.0280 -0.1291
14995W        W33849  15.500  15.710   1.179 -0.2992 -0.1442 -0.3043
14996W        W33850   4.958  17.229   3.935 -0.3173 -0.5661 -0.0319
14997W        W33851  15.199  10.204  13.735  0.0730 -0.1219  0.1572
14998W        W33852   3.128   1.167  12.770 -0.0835 -0.4197  0.1824
14999W        W33853   6.383  10.974   4.843 -0.0121  0.0226 -0.0117
15000W        W33854   7.246  12.090   3.928  0.2278  0.0606 -0.0107
15001W        W33855   5.841  15.014   4.919  0.0944 -0.4165 -0.0176
15002W        W33856  13.678   6.516  11.018 -0.0426  0.2008 -0.2820
15003W        W33857  16.419  17.029   4.286  0.0040 -0.2935 -0.1067
15004W        W33858  10.729  17.883   0.907  0.1157 -0.0303 -0.1940
15005W        W33859  17.291   9.933   0.409 -0.0428 -0.1273  0.1349
15006W        W33860   4.117   3.640  11.301 -0.1219  0.0093  0.2317
15007W        W33861   3.765   2.395   3.848  0.1255 -0.1520 -0.1990
15008W        W33862   1.252  10.201  11.339 -0.2015 -0.3804  0.1186
15009W        W33863   2.540  15.995  11.221 -0.2918  0.1286 -0.2036
15010W        W33864   8.890  11.424  13.117 -0.0711 -0.1311 -0.3031
15011W        W33865   6.606   6.772  11.488  0.0217  0.3658  0.0436
15012W        W33866   6.613   0.779  15.340 -0.0082 -0.0245 -0.1640
15013W        W33867   3.495   9.472   1.729  0.1292 -0.2416 -0.0892
15014W        W33868  10.068   2.862   3.819  0.1197  0.2473  0.3005
15015W        W33869  13.423  10.537  13.821 -0.1682  0.0645 -0.1733
15016W        W33870  17.788   4.309   0.929 -0.1194 -0.0807  0.1389
15017W        W33871  11.633   5.454  15.053 -0.1807 -0.0631 -0.0088
15018W        W33872  10.362  11.973   0.651  0.2324 -0.1422  0.0386
15019W        W33873  11.981  14.404  13.259 -0.1468  0.0651 -0.3639
15020W        W33874  13.906  16.778   1.502  0.0186 -0.0797  0.0347
15021W        W33875  17.551   2.996  14.624  0.0172  0.0476 -0.0407
15022W        W33876  15.319  10.998  13.242  0.4169 -0.0490  0.0575
15023W        W33877   4.913   1.012  12.856 -0.0400 -0.2239  0.1343
15024W        W33878   7.496  10.085   3.247  0.1473 -0.1093  0.0267
15025W        W33879  16.328   1.667  14.885  0.2470 -0.0483  0.0295
15026W        W33880  14.450  10.800  12.955 -0.0888 -0.1736 -0.1445
15027W        W33881   6.360  15.061   3.515 -0.0248  0.1954  0.1985
15028W        W33882   2.327  10.930   0.189  0.2989 -0.2098  0.1334
15029W        W33883  16.690  11.421   4.964 -0.1898  0.0470  0.0922
15030W        W33884   9.089  14.155   1.747  0.1320 -0.2451  0.0191
15031W        W33885   2.641   9.572  14.270  0.2074 -0.1742  0.4028
15032W        W33886   7.140   4.087   0.668  0.0522  0.1370  0.0827
15033W        W33887   1.465   0.310  12.863 -0.0283  0.0048  0.1064
15034W        W33888   9.498   8.078   2.616 -0.0660  0.2278  0.1829
15035W        W33889   4.929   6.911  12.256 -0.1706 -0.0061 -0.3578
15036W        W33890   7.470   0.608  10.340 -0.0196 -0.1115 -0.1529
15037W        W33891  10.020   3.627   3.200 -0.1335  0.0484  0.2497
15038W        W33892   7.290   5.850  10.126 -0.0120 -0.0933 -0.1035
15039W        W33893  11.281  15.240   3.399 -0.2593  0.0199  0.1023
15040W        W33894   1.106  11.180  15.027 -0.1330 -0.0294 -0.0523
15041W        W33895   2.307   3.723  11.694  0.0773  0.2247 -0.0026
15042W        W33896  12.626  13.763  11.525  0.1625 -0.3223  0.0316
15043W        W33897   5.842   3.687   1.736 -0.0771 -0.0273  0.1242
15044W        W33898   9.609  14.841  12.615 -0.1232 -0.0827 -0.0007
15045W        W33899  15.673  10.741  12.929 -0.3591 -0.2994 -0.3085
15046W        W33900  10.078  16.914  15.044  0.1578  0.0983  0.0716
15047W        W33901   5.416  15.146   1.583 -0.0292 -0.4475 -0.0837
15048W        W33902  13.408  13.440   1.597  0.0665  0.1160  0.2356
15049W        W33903  14.562   9.927  12.692  0.2019 -0.0645  0.1839
15050W        W33904   6.401   9.984   4.671  0.2136  0.0319  0.1506
15051W        W33905   6.910  17.105  12.706 -0.1827 -0.3004  0.0304
15052W        W33906   8.746   0.799   4.892 -0.1688 -0.1411  0.0495
15053W        W33907   7.042   6.371   0.330 -0.2855  0.1775 -0.1474
15054W        W33908   8.203   7.466  11.859 -0.0565  0.2122 -0.1981
15055W        W33909   1.061  11.784   1.251 -0.1011 -0.0680  0.0589
15056W        W33910   0.760   7.336   3.817 -0.0468 -0.0071 -0.2368
15057W        W33911   0.301   4.965   1.070  0.0302 -0.2419 -0.1286
15058W        W33912   2.811  17.390   0.318  0.3664 -0.2654  0.1022
15059W        W33913   0.319   5.749   4.995 -0.0734  0.2370 -0.0323
15060W        W33914  14.188   8.882   3.326  0.0169  0.0928 -0.0488
15061W        W33915   9.078  14.397  14.208 -0.0707  0.2794  0.0343
15062W        W33916   1.645   2.970  13.395  0.2062  0.0563 -0.2367
15063W        W33917   4.620   8.499   5.561  0.1113  0.0996  0.3429
15064W        W33918   2.394   3.015  15.092 -0.1425  0.2026 -0.1848
15065W        W33919   8.445   9.697  14.524  0.2599  0.0880  0.0898
15066W        W33920   1.757  13.260  14.790  0.1486 -0.3796 -0.1731
15067W        W33921   1.391   9.618   1.893 -0.0614  0.3504  0.1051
15068W        W33922  15.311  12.755   3.270  0.2249  0.3820  0.4963
15069W        W33923   2.717  10.086   1.289 -0.1525 -0.0469 -0.0702
15070W        W33924   3.272  12.757  14.616  0.4728  0.1695 -0.1143
15071W        W33925  12.213   2.597  14.068 -0.3195  0.2835 -0.2866
15072W        W33926  15.660   7.393  12.105  0.0270 -0.0056 -0.1093
15073W        W33927  18.416   9.381  11.391  0.1285 -0.2198 -0.0811
15074W        W33928  15.024  14.254  14.645  0.0874 -0.1914 -0.1098
15075W        W33929  11.286  11.619  15.451  0.1429  0.2788  0.0328
15076W        W33930  12.624   8.468   0.956 -0.2050  0.0201  0.2446
15077W        W33931  18.324   1.623  10.987 -0.2185  0.1118 -0.0869
15078W        W33932   2.074   7.997  11.976 -0.1113 -0.1727  0.0272
15079W        W33933   0.011   3.463  13.972 -0.0966 -0.2967  0.1513
15080W        W33934   0.318   7.385   3.550 -0.2046 -0.3290 -0.2697
15081W        W33935   2.984   3.656   3.155  0.0923 -0.2031  0.1742
15082W        W33936   4.061  17.471  15.435 -0.2354  0.0748 -0.1018
15083W        W33937   1.855   2.025  14.083 -0.2094 -0.1734 -0.1516
15084W        W33938  12.186   7.159  12.542  0.0729 -0.1585  0.0287
15085W        W33939  17.931   8.207  11.829 -0.1122 -0.1309  0.3483
15086W        W33940   0.693  18.491   5.013  0.1882 -0.1315  0.0145
15087W        W33941  12.578   8.842   1.283  0.0357  0.2127  0.2760
15088W        W33942   0.369   7.132   0.431 -0.0590 -0.0699  0.0454
15089W        W33943  15.077  14.660   1.286  0.0080  0.0120 -0.0978
15090W        W33944   5.070  12.687   2.156  0.0244 -0.1186 -0.0343
15091W        W33945   7.631  18.451  14.725 -0.5009  0.5301 -0.1028
15092W        W33946  13.458  12.206   2.907  0.0201  0.2953 -0.5383
15093W        W33947   2.522  17.033  11.958  0.1912 -0.2363  0.2586
15094W        W33948   4.149  11.962  13.949 -0.2204 -0.0724 -0.0905
15095W        W33949  10.453   7.576   3.665  0.1500 -0.0757  0.2027
15096W        W33950   5.597  16.637   3.003 -0.0739  0.0748  0.1538
15097W        W33951   9.649   4.945   2.401  0.1372 -0.3528 -0.1947
15098W        W33952  12.936  15.056  14.523  0.1006  0.0166 -0.1746
15099W        W33953  10.971  10.352  12.330  0.2246  0.1208  0.1892
15100W        W33954  17.106  11.308   4.738 -0.1078  0.0564 -0.1862
15101W        W33955   5.253   3.697  14.379  0.0543 -0.1499  0.0065
15102W        W33956   8.195   3.667  14.381  0.1239  0.0694  0.0522
15103W        W33957   4.787   4.664  12.474  0.0132  0.1489  0.1000
15104W        W33958  13.734  12.974   5.795  0.0586  0.1926  0.2924
15105W        W33959   1.242  16.686  13.726 -0.2278 -0.1821  0.0038
15106W        W33960   9.201  15.075  12.428 -0.0966  0.2895 -0.2513
15107W        W33961   9.678   9.321  14.008 -0.0445  0.0604 -0.0545
15108W        W33962  13.486  12.328  10.524  0.0001 -0.0528 -0.0246
15109W        W33963   6.161  17.630  11.938  0.0198 -0.1588 -0.1507
15110W        W33964   1.171  12.406  13.066  0.0132 -0.1420 -0.2254
15111W        W33965  14.170  17.714  14.580  0.0046 -0.2193 -0.2628
15112W        W33966  12.184   5.773   0.584  0.2240  0.0839  0.3937
15113W        W33967  14.298   7.493  14.987  0.0214  0.1688  0.0329
15114W        W33968  17.913  16.139  12.563 -0.2748  0.0525 -0.1107
15115W        W33969  13.255   0.418  11.931  0.0087  0.2227 -0.2838
15116W        W33970   9.489   0.643  13.381 -0.0981  0.0175  0.1495
15117W        W33971   1.912  14.707   1.387  0.0946  0.0653  0.1853
15118W        W33972  12.674   9.461   2.151 -0.1221 -0.0649  0.0091
15119W        W33973  13.629   5.149   1.621  0.2748  0.1643  0.1295
15120W        W33974   0.561  14.081  11.315 -0.3544 -0.3238  0.0544
15121W        W33975   4.440   3.221  14.121  0.1067 -0.0481 -0.0184
15122W        W33976   8.666   5.018   2.203  0.0550 -0.0474  0.0525
15123W        W33977   7.243   3.466  10.699 -0.1613 -0.1451 -0.0565
15124W        W33978   7.128   8.477   2.165 -0.0760  0.0044  0.2089
15125W        W33979   4.023   6.811  12.795 -0.0126 -0.0230 -0.0274
15126W        W33980  13.951  14.807   2.640  0.0588 -0.4568  0.1436
15127W        W33981   4.926   2.347  12.716  0.2356 -0.2427  0.0872
15128W        W33982   6.756   4.776  13.374  0.2271 -0.1259  0.1667
15129W        W33983  14.341   5.780  11.439 -0.0338 -0.0836  0.0550
15130W        W33984  12.467   7.481  12.835  0.0988 -0.0753 -0.1236
15131W        W33985   8.599   4.999   3.113 -0.1307 -0.2093 -0.1857
15132W        W33986  11.448   4.942  11.413  0.0984  0.1886 -0.0155
15133W        W33987   4.841  12.384  11.029  0.0733  0.0797  0.0274
15134W        W33988   3.728   0.736   3.134 -0.2181  0.2554 -0.0884
15135W        W33989   8.900   7.591   4.221  0.1630 -0.2742 -0.0641
15136W        W33990   6.308  12.861  13.551 -0.1565 -0.1994 -0.1047
15137W        W33991   2.511   8.355   1.375  0.1414 -0.0141 -0.0303
15138W        W33992   3.397   6.914   0.835 -0.0638  0.1616  0.1325
15139W        W33993   1.075  16.903   2.326  0.1881 -0.0060 -0.1846
15140W        W33994   4.089   4.899  10.485  0.0568  0.0726 -0.0472
15141W        W33995   1.743  13.470  13.954  0.2577 -0.0286 -0.3528
15142W        W33996  17.007   6.970   3.743 -0.0264 -0.0272  0.1816
15143W        W33997   2.923   7.498  11.957 -0.1465  0.3088 -0.0664
15144W        W33998   4.620  13.854   1.653 -0.0716  0.1293 -0.2993
15145W        W33999  10.090   2.878  10.994  0.1628 -0.1761 -0.1865
15146W        W34000  11.097  17.698  14.088 -0.0949 -0.4572 -0.1604
15147W        W34001   5.344  14.560  11.678 -0.1863 -0.1178 -0.1406
15148W        W34002  17.664  15.236  14.469  0.0620 -0.1018  0.2415
15149W        W34003  10.790  16.636   3.068  0.3819 -0.1287  0.0599
15150W        W34004  11.459   0.726  10.554 -0.1539  0.4002  0.1310
15151W        W34005   8.285  17.229  13.919  0.4400 -0.1103  0.4202
15152W        W34006   2.526   2.127   2.175  0.0173 -0.0673  0.0388
15153W        W34007  10.771  16.205   1.409 -0.0231  0.0611  0.3516
15154W        W34008  10.520   3.922  12.014  0.1512 -0.0420  0.2599
15155W        W34009   2.823  15.039   3.801  0.0020  0.1624 -0.6793
15156W        W34010   5.774  11.278  11.348  0.2012 -0.1692  0.1555
15157W        W34011  15.388   3.986  11.648 -0.3476  0.1725 -0.1059
15158W        W34012  18.070  12.034  12.582  0.0108 -0.1483 -0.0428
15159W        W34013   2.373  15.365   3.586  0.0263  0.2199  0.1571
15160W        W34014  11.610   8.198   3.729 -0.0515 -0.0144  0.5083
15161W        W34015   4.997  10.837   1.683 -0.0860 -0.0457 -0.4427
15162W        W34016  17.069  16.835  12.302  0.0088 -0.1663  0.5476
15163W        W34017  18.441   8.999  12.822 -0.0327 -0.0482 -0.0254
15164W        W34018   0.204  12.033  14.798  0.1865  0.1285 -0.0438
15165W        W34019  16.941  15.347   1.158  0.2311  0.1205  0.0907
15166W        W34020  18.408  17.233  10.962 -0.1506  0.3050 -0.0846
15167W        W34021  16.258   7.855   4.287 -0.0332  0.1222 -0.1806
15168W        W34022  17.041   2.337  15.452  0.1765 -0.1390 -0.1776
15169W        W34023   7.768   1.560  15.383  0.0979 -0.0360 -0.0143
15170W        W34024   4.741   2.120   4.865  0.1679  0.0537  0.0758
15171W        W34025  11.086   7.070   3.364  0.0668  0.0229 -0.0068
15172W        W34026   0.539   3.543  14.032 -0.1101  0.1542  0.1187
15173W        W34027  13.294  15.185   3.556  0.3920  0.0688  0.0827
15174W        W34028   7.495   5.334  15.117 -0.1590  0.1900 -0.0816
15175W        W34029  11.373  16.242   0.717 -0.0733  0.0065  0.0875
15176W        W34030   4.540   3.296   2.894  0.0243  0.1360 -0.1104
15177W        W34031  14.551  10.693   0.775 -0.1978 -0.0504 -0.0330
15178W        W34032   5.879   3.200   0.641  0.0025 -0.1135 -0.0131
15179W        W34033  16.674  17.342  11.427  0.0772  0.2719  0.0606
15180W        W34034  12.822  14.623   4.068  0.0914  0.2731  0.1739
15181W        W34035  18.046  15.491  14.070 -0.2952 -0.2345 -0.1303
15182W        W34036   3.749   0.440   0.766 -0.1100 -0.0410 -0.0314
15183W        W34037   4.790  14.073  14.659 -0.0665  0.2280  0.2723
15184W        W34038   7.143   1.637   4.329 -0.0531 -0.1820  0.0751
15185W        W34039   0.084  14.511  15.053 -0.1405 -0.0640 -0.1820
15186W        W34040   8.699  12.133  14.758  0.0633  0.2244  0.1683
15187W        W34041   1.134   9.188  10.592 -0.1849 -0.1027  0.1154
15188W        W34042  10.628   1.732   0.376  0.1672 -0.1142 -0.0808
15189W        W34043   1.680   3.039   0.423 -0.3231  0.1027  0.3067
15190W        W34044  14.603  18.297   4.507  0.0627 -0.1645 -0.1129
15191W        W34045   0.654   2.626   4.244 -0.0367 -0.2309  0.1906
15192W        W34046   9.868  16.322   1.025  0.1778 -0.0908  0.0104
15193W        W34047   3.096   9.675  12.135  0.0268 -0.0635  0.1570
15194W        W34048   6.845  16.840   0.687  0.0373 -0.2369  0.3229
15195W        W34049   8.158  14.442  12.742  0.3239 -0.1375  0.3914
15196W        W34050  16.019   5.770   0.534  0.0441 -0.0634 -0.0938
15197W        W34051   2.062  13.133  15.194  0.1592 -0.3492  0.1691
15198W        W34052  16.685  14.608  10.822 -0.1606 -0.4209 -0.1371
15199W        W34053  15.120  17.385  15.293  0.0365  0.0228  0.0582
15200W        W34054   4.502   0.483   2.180 -0.2549  0.0296  0.2312
15201W        W34055   5.359  13.666  13.279 -0.1221 -0.1857  0.1312
15202W        W34056   7.331   9.959  11.104 -0.1001  0.0900 -0.1716
15203W        W34057   7.905  16.587   3.054 -0.0748  0.1494  0.0243
15204W        W34058   0.455  16.478   1.523 -0.0182 -0.2139 -0.0871
15205W        W34059  14.566  12.397  14.838 -0.4624  0.1786  0.2343
15206W        W34060  12.386  14.977  12.060 -0.1209  0.1726 -0.0555
15207W        W34061   3.207  14.412  14.516  0.1868 -0.1063 -0.0311
15208W        W34062   2.828  13.314  13.549  0.0206 -0.0189 -0.1631
15209W        W34063  13.886  12.790   3.254  0.0872 -0.2998  0.0966
15210W        W34064  16.651  15.873   3.815  0.0007  0.1166 -0.0801
15211W        W34065  11.204  12.963  15.430  0.0774 -0.1499  0.0706
15212W        W34066  16.961  14.581   4.268  0.1630  0.1895 -0.1986
15213W        W34067  15.591   4.175  15.174  0.1548 -0.1946 -0.0527
15214W        W34068   1.209   3.259  11.735 -0.1331 -0.0799 -0.2004
15215W        W34069   7.156  14.652   1.933 -0.2920 -0.2140 -0.4506
15216W        W34070  10.697   7.695   1.953 -0.3674  0.1171 -0.0046
15217W        W34071   6.460   2.128   1.854  0.4518  0.0313  0.1638
15218W        W34072   2.688   3.613  14.408 -0.1857  0.5267  0.1903
15219W        W34073  13.304  18.283  10.903  0.0096  0.1189 -0.0241
15220W        W34074  13.684   6.078  12.594 -0.2529  0.1577  0.4089
15221W        W34075  14.712  17.403   0.544 -0.0849  0.1547 -0.1523
15222W        W34076  15.002   3.496   0.741 -0.0512  0.5726  0.2185
15223W        W34077  12.628  18.378   2.636  0.2182 -0.1919  0.0054
15224W        W34078   4.112   4.160  15.048 -0.0617  0.2539  0.1274
15225W        W34079  17.494  15.922  12.780 -0.1193 -0.0028  0.4134
15226W        W34080  15.426   5.151  13.661  0.2662 -0.0430  0.1068
15227W        W34081   2.194   6.004  11.634 -0.0039 -0.3519 -0.2142
15228W        W34082  13.375   7.216   2.209 -0.3204  0.1194  0.1093
15229W        W34083   2.294   5.741  11.088  0.0224 -0.2876 -0.4397
15230W        W34084   4.307   9.707  13.479  0.0110 -0.5401 -0.0385
15231W        W34085   6.873   5.918  13.416  0.2810 -0.0612 -0.1173
15232W        W34086   2.732   0.332  12.880 -0.1413 -0.0815  0.0368
15233W        W34087   2.366   1.645   2.100 -0.0279  0.1344 -0.3972
15234W        W34088   2.355  18.008  13.349  0.1478  0.2711 -0.1026
15235W        W34089   7.368   4.714  10.825 -0.0229 -0.1005 -0.2065
15236W        W34090   8.191  17.570   1.842 -0.2212 -0.3066  0.3976
15237W        W34091   3.720   4.836   2.630  0.0145  0.1171 -0.1245
15238W        W34092   5.109  13.342  11.295 -0.0705  0.1028 -0.1567
15239W        W34093   8.296  12.226  11.019  0.0164  0.2041 -0.2010
15240W        W34094   6.228  11.914  12.788 -0.3234 -0.2355  0.2411
15241W        W34095   2.005   3.753  14.988  0.1594 -0.0158  0.0299
15242W        W34096   6.869   1.526  11.556  0.4063  0.2760 -0.1237
15243W        W34097  15.304  10.553  12.368 -0.0999  0.0078 -0.1670
15244W        W34098   2.738   6.873   1.255  0.2873  0.0136  0.1550
15245W        W34099   4.474  18.091   1.523  0.0876 -0.0067 -0.1908
15246W        W34100  18.124  14.730   4.078 -0.3709  0.0928  0.3841
15247W        W34101   0.190   2.037  12.657  0.0746  0.1753  0.0520
15248W        W34102   1.032   4.758   0.957 -0.1653 -0.3180 -0.2959
15249W        W34103  10.065  12.980   2.355 -0.1043 -0.1978 -0.0448
15250W        W34104  11.503  17.070   0.881 -0.3585 -0.1238  0.0147
15251W        W34105  10.848  17.488   3.396  0.0850  0.1019 -0.1829
15252W        W34106   0.516  12.804   1.184 -0.1230 -0.2622  0.1198
15253W        W34107  11.695  10.330   2.512  0.0664  0.0331  0.2283
15254W        W34108   7.864   1.784  11.868  0.2373 -0.0118  0.2045
15255W        W34109   8.585   8.215   3.480 -0.1562 -0.0522 -0.1872
15256W        W34110  12.916  10.826   3.973  0.0129  0.0114 -0.0648
15257W        W34111   4.293  17.680   0.647 -0.2519  0.1471  0.0799
15258W        W34112  12.899   5.761  14.497 -0.0473 -0.0152  0.2467
15259W        W34113   7.982  13.039  11.935  0.5297 -0.1957 -0.1897
15260W        W34114   1.379   7.902   0.964 -0.0996 -0.0952  0.1649
15261W        W34115  16.190   4.412   2.385  0.1093  0.3099  0.1499
15262W        W34116   7.726   6.698  11.545 -0.0081 -0.1927 -0.1703
15263W        W34117   9.523   4.322  14.119 -0.0366  0.0852 -0.2476
15264W        W34118  17.100   0.065  14.686  0.1615  0.1854 -0.3654
15265W        W34119   8.341  16.974   3.462  0.0100  0.0028 -0.0342
15266W        W34120   0.544  16.442  13.750 -0.3344  0.0406 -0.1024
15267W        W34121   4.826  14.292   2.027 -0.0002 -0.0545 -0.1832
15268W        W34122   5.476   3.107   2.743  0.2456  0.0624  0.1306
15269W        W34123   7.697   3.367  13.338 -0.2456 -0.2698 -0.1194
15270W        W34124   6.011   9.307  13.727  0.0696  0.0345  0.0234
15271W        W34125   6.406  11.691   5.687  0.0894  0.0305 -0.1152
15272W        W34126  14.020   4.098   1.323 -0.0241 -0.2033  0.1698
15273W        W34127   5.738   2.821   2.288  0.0107 -0.0543  0.3041
15274W        W34128   2.139   4.900  15.124  0.4606  0.2707 -0.0582
15275W        W34129   5.895   4.937  11.217 -0.0763  0.3881  0.3852
15276W        W34130   0.999   3.119   1.501  0.3029 -0.0882 -0.0625
15277W        W34131   7.163   6.609  14.980 -0.0811 -0.2749 -0.2445
15278W        W34132   0.851   0.207  15.261  0.0475 -0.1662  0.2174
15279W        W34133   4.755   9.163   1.015 -0.2664  0.0003 -0.2563
15280W        W34134  12.701  16.547  11.414 -0.0694 -0.0485 -0.2698
15281W        W34135   6.913  10.043  12.786  0.0699 -0.0770 -0.0454
15282W        W34136   7.119  11.280  14.782 -0.3846 -0.1197 -0.2978
15283W        W34137  10.218  12.148  11.663 -0.0808  0.1328  0.2036
15284W        W34138   4.874   9.165   3.965 -0.0893 -0.0451  0.1101
15285W        W34139  11.115   3.411  12.018  0.1306 -0.2013  0.1612
15286W        W34140   0.605   4.987  13.578 -0.5209  0.1449 -0.2505
15287W        W34141  14.734  15.469   1.251  0.0150 -0.2195  0.2155
15288W        W34142  12.546  18.035  11.117  0.2973 -0.0904 -0.1649
15289W        W34143  12.611  13.791  13.545 -0.3698  0.0942 -0.0604
15290W        W34144   9.811  15.719   1.733  0.0886 -0.1954 -0.1941
15291W        W34145  18.054   5.223  11.578 -0.2037 -0.1084  0.3157
15292W        W34146  16.766   3.005  11.580 -0.1780  0.0199 -0.4578
15293W        W34147  13.310   8.731   2.966 -0.0325  0.0949  0.2326
15294W        W34148   2.253  11.859  11.752  0.0851  0.0798  0.0081
15295W        W34149   5.086  15.106  14.192 -0.0226 -0.2864  0.1980
15296W        W34150  17.201  10.759   9.954  0.3353  0.0964  0.0162
15297W        W34151   8.346   1.768   1.799  0.1069  0.0675  0.1089
15298W        W34152  10.375   2.209  15.318  0.0608  0.0877 -0.2517
15299W        W34153   7.007  11.074   2.311 -0.2588 -0.1429 -0.0024
15300W        W34154   0.393  11.734   2.537  0.1247  0.2053 -0.0534
15301W        W34155  12.450  11.846  12.530  0.1008  0.2456  0.3399
15302W        W34156  12.418  11.711  14.194 -0.2088  0.2055 -0.2918
15303W        W34157   5.216   5.480   2.808  0.0027  0.4336  0.0613
15304W        W34158   4.891  11.680  13.697 -0.1709  0.1047  0.2824
15305W        W34159   9.516   3.126  11.971 -0.2143  0.2824 -0.2510
15306W        W34160   0.955  15.818  13.278  0.1028  0.0715 -0.3180
15307W        W34161   4.783  13.202  12.832  0.2579 -0.2537  0.0996
15308W        W34162  10.077   8.331   1.234 -0.1905 -0.0836  0.2591
15309W        W34163  17.064  11.464  11.272  0.1819  0.0447  0.0759
15310W        W34164   0.375   8.178   3.868  0.3269  0.0493 -0.1237
15311W        W34165  14.664  11.848  15.174  0.1220 -0.0427  0.0320
15312W        W34166  12.867   1.526  12.542  0.0908 -0.1781  0.0971
15313W        W34167   9.313   1.029   0.279 -0.3350  0.0511 -0.0951
15314W        W34168   1.602  10.901   0.074  0.3899  0.3340  0.0475
15315W        W34169   8.254   7.005  12.154 -0.0777  0.3734 -0.1626
15316W        W34170   0.877  15.796  15.112 -0.4804 -0.0520 -0.0064
15317W        W34171  16.092   8.589  15.178 -0.2229 -0.0127 -0.1724
15318W        W34172   1.988   1.465   3.254 -0.2292  0.2521  0.5875
15319W        W34173   9.605   7.645   1.881  0.2010 -0.1937 -0.0891
15320W        W34174   8.103   8.049   0.404 -0.1334  0.0743  0.0430
15321W        W34175   8.084   4.089   4.540 -0.1209 -0.3112  0.0207
15322W        W34176  13.098   0.788  14.960  0.1828  0.1827 -0.1399
15323W        W34177  10.663  17.220   0.317  0.1031  0.1719  0.3571
15324W        W34178  11.501  17.567   1.546  0.2215  0.1473 -0.0452
15325W        W34179   2.649  18.240   0.530  0.1605  0.0281 -0.0934
15326W        W34180   1.499   1.410   2.480  0.1745  0.0025 -0.4515
15327W        W34181  11.497  18.385   5.143 -0.2117  0.0874  0.1726
15328W        W34182   9.525   6.855  13.834  0.1097  0.1341 -0.2514
15329W        W34183   5.917   8.717   0.464  0.1670  0.4801 -0.1077
15330W        W34184   8.478   1.309   2.495  0.0201 -0.0711  0.1143
15331W        W34185  16.422  17.200  13.681 -0.1776  0.0559 -0.1355
15332W        W34186   7.195  11.219   1.829 -0.0265  0.0585  0.0573
15333W        W34187   7.913  10.553  11.109 -0.0811  0.1433  0.0553
15334W        W34188   2.757   4.813   3.483 -0.0152 -0.2777  0.0708
15335W        W34189   0.506   3.322  15.265 -0.0963 -0.1097  0.0489
15336W        W34190   8.976   2.880   1.270  0.0518  0.1417  0.0024
15337W        W34191  12.906  17.641   2.763  0.0485 -0.0294 -0.0694
15338W        W34192  12.540   0.740   4.240 -0.0025  0.0316 -0.0993
15339W        W34193  12.588  14.620   3.152  0.1177 -0.3844  0.0967
15340W        W34194  17.787   0.710   1.040  0.1217  0.1065 -0.0341
15341W        W34195   9.678   3.217   3.897 -0.2129  0.2214  0.1835
15342W        W34196   3.418   4.106   3.054  0.0519 -0.0681  0.1359
15343W        W34197   3.669   6.841  11.447  0.3531 -0.2412 -0.0683
15344W        W34198   6.249   9.126   4.799  0.2964 -0.1056  0.0408
15345W        W34199  12.043  16.321  15.376  0.0182 -0.0117  0.0091
15346W        W34200   7.074   6.397  14.506 -0.3452  0.1959 -0.0657
15347W        W34201   0.589   0.596  11.276 -0.0004 -0.2718 -0.3066
15348W        W34202   9.819   2.210  13.630 -0.0491  0.3351  0.1667
15349W        W34203   3.847   1.861   3.797 -0.3558  0.0645  0.0421
15350W        W34204   5.551   7.599   1.309  0.0242  0.1399  0.1407
15351W        W34205  10.270  15.908  12.151  0.0573  0.2761  0.2378
15352W        W34206   2.143   0.983  14.802  0.3021  0.2329  0.0775
15353W        W34207  10.588   0.580   0.511 -0.2117  0.3057 -0.2814
15354W        W34208  12.343  16.739   3.405  0.0300 -0.0662  0.0335
15355W        W34209  12.692  15.644   1.708 -0.0855  0.0098  0.0210
15356W        W34210   3.436  11.106  11.430  0.0146  0.1430  0.1478
15357W        W34211   4.617   6.776   0.661  0.1653  0.0873  0.1000
15358W        W34212   6.382   1.193   4.064 -0.0918 -0.1428 -0.2455
15359W        W34213  17.244   4.079  13.728 -0.0868  0.0043 -0.1824
15360W        W34214  10.538  11.824   4.978  0.0108  0.2623  0.1489
15361W        W34215   3.302   8.062   1.950 -0.0621 -0.1981  0.2996
15362W        W34216  14.988  14.607  14.222  0.0285  0.0365 -0.0960
15363W        W34217  15.227  13.138   1.252  0.2238  0.1947 -0.0113
15364W        W34218  10.951   7.076  15.337  0.1015 -0.1268  0.0996
15365W        W34219   7.277   0.522  12.695  0.1441 -0.1319 -0.1428
15366W        W34220  12.608   1.560   0.884  0.0502  0.2372  0.0737
15367W        W34221   7.744  12.590   2.857  0.0879 -0.3802  0.2912
15368W        W34222  16.650   9.247   5.428 -0.2449  0.1230 -0.2219
15369W        W34223   1.941   6.119   2.474 -0.5486  0.3223 -0.0408
15370W        W34224  14.695   9.953   2.311 -0.0947  0.3063 -0.1829
15371W        W34225  14.444   5.716   3.175  0.1700  0.0039 -0.0607
15372W        W34226  12.298   9.532   3.766 -0.3879  0.1567  0.2094
15373W        W34227   1.842   7.550   0.173 -0.0203  0.0408 -0.0491
15374W        W34228  17.247   6.424   2.566  0.0361  0.1829  0.1307
15375W        W34229   6.138  12.212  11.847 -0.0290  0.0592  0.0600
15376W        W34230  11.853   0.962   0.804  0.1968 -0.1897 -0.2411
15377W        W34231  16.426   0.050  13.204 -0.1512  0.1716 -0.0162
15378W        W34232  13.864  15.213  12.884  0.0383 -0.1090 -0.1469
15379W        W34233   8.471   5.501   1.947  0.3668  0.0401  0.1612
15380W        W34234  16.213   3.498  11.894 -0.1969 -0.1093 -0.0007
15381W        W34235   4.122   1.568   3.461 -0.0539 -0.2697  0.3159
15382W        W34236   9.249   8.203  11.071  0.1206 -0.0222  0.0247
15383W        W34237   4.276  15.607  10.807 -0.2026 -0.1981  0.0286
15384W        W34238  18.071  16.983  14.923  0.0737  0.2115 -0.2105
15385W        W34239   0.157  14.094   2.258  0.3153 -0.3331  0.0046
15386W        W34240   9.536  14.021  10.508 -0.1412  0.2190 -0.2669
15387W        W34241  11.548   4.829   1.128  0.0801 -0.0961 -0.0155
15388W        W34242  13.229   5.781   2.669 -0.0883  0.1289 -0.0718
15389W        W34243  10.466  13.189   1.136 -0.0152  0.3064 -0.0989
15390W        W34244   9.746  14.867  13.894 -0.2768 -0.2216  0.0610
15391W        W34245  18.005  15.304  11.758  0.0977 -0.2810 -0.2077
15392W        W34246  12.075  17.753   2.351  0.1936  0.0943  0.1059
15393W        W34247  14.198  12.808  11.642  0.1615  0.3095 -0.1095
15394W        W34248   3.747  12.675   2.744  0.1881  0.0549  0.0461
15395W        W34249   4.941  14.103   0.977 -0.0255  0.3068  0.3147
15396W        W34250  12.358   7.647   3.522  0.0728 -0.0660 -0.1432
15397W        W34251   3.685   2.146  14.511 -0.0151 -0.0821  0.3051
15398W        W34252  14.541   5.983  14.206  0.0743  0.2347  0.1691
15399W        W34253   2.208   1.693   0.272 -0.4244 -0.2112 -0.2476
15400W        W34254   9.659   0.685  11.215 -0.1920  0.0118 -0.0365
15401W        W34255  17.218  13.357  14.281  0.1643  0.0757  0.0188
15402W        W34256  16.409  14.748  14.397  0.1652 -0.0176  0.0986
15403W        W34257   1.973  11.180   2.895 -0.0919  0.0817  0.0825
15404W        W34258   2.039   3.806  10.682  0.2660  0.0207  0.0436
15405W        W34259  13.158   7.716  11.882  0.1992 -0.1279  0.1057
15406W        W34260   9.127  12.247  12.007  0.3920  0.1925 -0.0636
15407W        W34261  16.233  13.504  11.453  0.0908 -0.1017 -0.0372
15408W        W34262   5.026  16.169  15.163 -0.1328  0.0724 -0.0349
15409W        W34263   7.786   6.944  14.903  0.3348  0.0568 -0.2596
15410W        W34264  16.311   7.588  15.130 -0.3332 -0.0954 -0.0579
15411W        W34265   0.573  12.408  12.048  0.0927 -0.3608  0.1781
15412W        W34266  13.394   7.779   3.467  0.1029 -0.3584  0.2212
15413W        W34267  17.726   8.460  12.411  0.3129 -0.2254 -0.2343
15414W        W34268   7.328   5.048  14.449  0.1691  0.1152 -0.0393
15415W        W34269  10.791  16.274  14.594  0.1304  0.1258 -0.1089
15416W        W34270  13.804   9.942  11.981  0.5519  0.0641 -0.3497
15417W        W34271   6.569   9.572  13.440 -0.0691 -0.2163  0.1729
15418W        W34272  18.066   7.690  11.818  0.1510  0.0282 -0.0600
15419W        W34273   5.329  16.846  12.763 -0.1040 -0.0608 -0.2242
15420W        W34274   6.714   7.448   1.419  0.0269 -0.2316  0.0173
15421W        W34275  12.356   3.374   3.896  0.0453 -0.1719 -0.0129
15422W        W34276   1.391  14.642   1.080  0.1057 -0.4009 -0.2045
15423W        W34277   1.401  14.687   3.728 -0.2123 -0.1532  0.0982
15424W        W34278   4.816  13.295   5.096  0.2069  0.0626 -0.0300
15425W        W34279   7.984   3.695   3.199 -0.0190 -0.5332 -0.0313
15426W        W34280  17.598   6.304  15.318  0.1604 -0.0595  0.0292
15427W        W34281  17.474   2.210  10.588  0.0598  0.1304 -0.0500
15428W        W34282  18.269   4.532  14.888 -0.0128 -0.0908 -0.0746
15429W        W34283   0.033  11.241  13.913 -0.0142  0.1477 -0.1718
15430W        W34284  10.880   8.473   4.450 -0.1345  0.2582 -0.1005
15431W        W34285   2.587   1.454   0.096 -0.0824  0.0957 -0.0923
15432W        W34286   1.141   9.978   1.091  0.2576  0.2096  0.0995
15433W        W34287  17.416   7.329  14.983  0.0991 -0.0915 -0.0366
15434W        W34288  12.849   8.434  13.920  0.1620  0.0402  0.1441
15435W        W34289   6.527  12.369   2.062  0.0202 -0.1311  0.0280
15436W        W34290  18.278  12.152  14.928  0.1903 -0.0430 -0.1046
15437W        W34291  16.351  18.130   2.295 -0.3764 -0.1750 -0.1119
15438W        W34292   5.869  14.437   1.891 -0.1808  0.1207 -0.0344
15439W        W34293  18.310   3.021   4.449  0.1391 -0.0662 -0.0646
15440W        W34294  10.937  15.792   1.679 -0.0900  0.1889  0.1788
15441W        W34295  13.866   3.654   1.491  0.0952 -0.0911  0.3312
15442W        W34296  12.492  12.028  11.788 -0.1680  0.1066  0.0886
15443W        W34297   9.866  15.948  14.425  0.0297  0.0624 -0.3402
15444W        W34298  16.375  18.172  11.899 -0.0761 -0.4287  0.3897
15445W        W34299  17.567   2.189   3.526  0.0806  0.0117 -0.1463
15446W        W34300   1.299  16.294  13.993  0.2571  0.0563  0.0175
15447W        W34301  13.033  18.289  14.151  0.1769 -0.0867 -0.0081
15448W        W34302  17.624   0.854  12.709 -0.1479 -0.0218  0.2726
15449W        W34303   7.090  15.370   1.654 -0.0753  0.1105 -0.2516
15450W        W34304   8.636  14.647   3.910 -0.1223  0.0866  0.2439
15451W        W34305  14.251  15.766   3.187 -0.2533 -0.1166  0.1140
15452W        W34306  10.753   7.407  13.607  0.0625 -0.1902 -0.1027
15453W        W34307  14.185   0.140   3.517  0.3318  0.2115 -0.2000
15454W        W34308  12.462   1.052  13.153  0.0362  0.3054  0.1822
15455W        W34309   8.150  11.420   4.158  0.0207 -0.1208  0.0489
15456W        W34310   9.715  12.816  13.600 -0.1170  0.0509 -0.1897
15457W        W34311  13.678  12.111  15.190  0.0998  0.1777  0.0970
15458W        W34312  13.389  11.115   0.067  0.1074 -0.0289  0.0299
15459W        W34313   1.708   6.891  15.142 -0.0256 -0.0936 -0.0712
15460W        W34314   4.532   6.715   9.956 -0.1082  0.4002  0.2525
15461W        W34315   2.066   2.553   4.563 -0.1296  0.3022  0.2404
15462W        W34316  13.071   6.141  13.219 -0.0397 -0.2880 -0.1141
15463W        W34317   6.784   9.691   1.989  0.1350  0.0464  0.0002
15464W        W34318  15.251  11.010   2.663  0.0015  0.0387  0.1086
15465W        W34319  12.544  14.149  10.344  0.1962 -0.0047  0.0954
15466W        W34320   7.798  16.455   4.686  0.2189  0.0522  0.1116
15467W        W34321   4.567  16.428  14.749 -0.0176  0.3074 -0.1805
15468W        W34322   7.519  17.884  13.023  0.2062 -0.0477  0.3590
15469W        W34323  16.487  17.577   3.066  0.1052 -0.4525 -0.1882
15470W        W34324  16.239  12.180   4.275 -0.1002  0.1241 -0.0479
15471W        W34325   6.662   9.380  14.944 -0.0435  0.0362 -0.0910
15472W        W34326   6.719  13.418  11.798 -0.5273 -0.1293  0.1659
15473W        W34327   3.803   4.810  11.851 -0.2818 -0.2418  0.0391
15474W        W34328   1.448   9.241  12.758 -0.0183 -0.0895  0.0907
15475W        W34329   9.636   5.497  15.208 -0.1538 -0.0098 -0.2104
15476W        W34330   3.126   5.448  14.305 -0.0457 -0.2594  0.0989
15477W        W34331  16.906   9.330   3.269 -0.1936  0.1550  0.1564
15478W        W34332  10.049   7.212   0.273  0.1331  0.0845 -0.0153
15479W        W34333  11.252   2.532  12.297  0.0202  0.1837 -0.1101
15480W        W34334   4.663  14.171   2.471 -0.0116 -0.3732 -0.0814
15481W        W34335  12.520  14.221  11.243 -0.0391 -0.1339 -0.1070
15482W        W34336  14.682   1.321  11.472 -0.1493 -0.2659 -0.3194
15483W        W34337   7.529  16.316   2.895 -0.1801 -0.2552 -0.0901
15484W        W34338   8.926   9.895  11.263 -0.1085 -0.3350  0.2624
15485W        W34339   2.407  16.389   1.863 -0.0195 -0.0055  0.2696
15486W        W34340  12.544   1.668   3.427  0.0144  0.1469  0.1480
15487W        W34341   0.871   3.855   1.052  0.1255 -0.4311  0.0262
15488W        W34342   5.365   0.354  13.403  0.2009 -0.1336  0.0185
15489W        W34343  10.449  18.329  13.098  0.1084  0.1806 -0.1017
15490W        W34344  16.989  12.829  13.508  0.3204 -0.1026 -0.1272
15491W        W34345  10.235   4.266  13.290 -0.0702  0.0955 -0.0119
15492W        W34346   0.342  11.057  13.368 -0.2490 -0.1194  0.1441
15493W        W34347  10.539   4.769   3.346 -0.0543 -0.1262 -0.0990
15494W        W34348  10.822  17.756   1.756  0.1618 -0.0244 -0.0183
15495W        W34349  18.392  11.226   2.189  0.0454  0.0008 -0.1952
15496W        W34350   4.922  10.325  13.749  0.2032  0.2936 -0.1152
15497W        W34351  18.528   3.822   3.959 -0.1498  0.1929  0.1079
15498W        W34352  15.802  16.266   2.642 -0.2922  0.2611 -0.1401
15499W        W34353   8.835   8.945  11.540 -0.3363 -0.0137  0.1604
15500W        W34354   2.604  12.480  10.268 -0.0057  0.4800 -0.0237
15501W        W34355   8.940  16.175  14.896 -0.3634 -0.3022 -0.0215
15502W        W34356   1.502   7.854  13.857 -0.0544  0.1108  0.1212
15503W        W34357  17.464   9.329   0.566  0.1548 -0.1792  0.0177
15504W        W34358  13.733   1.713   3.899 -0.0278 -0.2812 -0.0326
15505W        W34359  15.608   6.243   2.780  0.2514  0.0835  0.2195
15506W        W34360   2.358   9.009   0.007 -0.0460 -0.1993 -0.0047
15507W        W34361  11.589   2.266  12.633  0.2084 -0.1504  0.0376
15508W        W34362   6.744   3.426  15.117 -0.1434  0.0442 -0.0063
15509W        W34363   0.984   7.193   0.002 -0.3167 -0.1089 -0.1226
15510W        W34364   5.445  17.992   1.391 -0.1619  0.0184  0.0522
15511W        W34365  18.529   6.203  11.373 -0.0385 -0.1724  0.1852
15512W        W34366   3.267   9.689   3.201  0.1795 -0.2837 -0.0980
15513W        W34367  15.913   9.653   4.958  0.1245 -0.0698 -0.1204
15514W        W34368   0.279   6.703  11.093 -0.0387 -0.2633 -0.1833
15515W        W34369   7.551  12.182  13.834  0.0951 -0.1206  0.1323
15516W        W34370  13.272  12.616  12.024  0.0497 -0.0838  0.0931
15517W        W34371  14.725   4.708  12.132  0.5101 -0.1990 -0.0067
15518W        W34372  15.002   1.856   4.687  0.1545  0.1659  0.0470
15519W        W34373   4.688   5.296  11.700 -0.2641 -0.0103  0.0475
15520W        W34374   2.912  10.092  11.917  0.1923 -0.1148  0.1714
15521W        W34375   6.254   2.378  14.743  0.2020 -0.0686 -0.1278
15522W        W34376   1.766  13.042   2.272  0.0696  0.0134  0.0823
15523W        W34377   1.675  11.821  13.916 -0.3090 -0.0034  0.1088
15524W        W34378   9.202   0.949  13.854  0.2344  0.0310  0.1844
15525W        W34379  18.567  13.911  14.547 -0.2766  0.0810  0.1836
15526W        W34380   1.515  11.062   0.601  0.0289 -0.0807  0.0829
15527W        W34381   1.037   0.040   2.861  0.0399 -0.1851 -0.3090
15528W        W34382  18.566  11.873   1.521 -0.3863 -0.2949 -0.1100
15529W        W34383   5.572   0.800   4.001  0.2124  0.0183 -0.1531
15530W        W34384  17.868   8.367  12.986  0.1003 -0.0086 -0.2320
15531W        W34385  12.957   0.518   0.901  0.0879 -0.1868  0.0604
15532W        W34386   6.563  13.558  12.862  0.2004 -0.5568  0.0955
15533W        W34387  15.580  14.672  13.408  0.1860 -0.1475 -0.0452
15534W        W34388   6.335  12.416   0.729  0.1654  0.1008 -0.3363
15535W        W34389   9.519  18.355   4.714 -0.2084  0.0109  0.1564
15536W        W34390   5.653   0.399  14.090 -0.0270  0.1797  0.1534
15537W        W34391   6.892   2.153   1.685 -0.0693 -0.2044  0.1211
15538W        W34392   8.157   6.513  14.509 -0.2890 -0.1215  0.1803
15539W        W34393   8.244   4.867  14.771 -0.0124  0.0696  0.0501
15540W        W34394  16.294  10.965   3.467  0.0058 -0.1907 -0.1402
15541W        W34395   3.398   6.190   0.402  0.4237 -0.0103  0.0369
15542W        W34396  15.005  15.028   0.811 -0.1383  0.0687  0.0288
15543W        W34397  10.661   3.076   2.429  0.1841 -0.2356  0.2944
15544W        W34398  17.290   7.556   3.912  0.1508  0.0983  0.1155
15545W        W34399   0.151  18.438  11.598 -0.0846  0.0700 -0.3456
15546W        W34400   6.959  13.266   3.170 -0.3545 -0.0994  0.1002
15547W        W34401   9.055  18.086  14.307 -0.0210 -0.0522  0.2032
15548W        W34402   0.415   2.039  14.113  0.0507 -0.1054 -0.2767
15549W        W34403  11.802  15.064  12.716  0.2221  0.0726 -0.1632
15550W        W34404   4.094  15.492  12.755 -0.2133  0.1328 -0.0053
15551W        W34405   0.341  10.442  14.060  0.3368  0.0595 -0.2078
15552W        W34406   0.848  18.332  15.057  0.0329  0.2093  0.1398
15553W        W34407   0.943  16.864   1.287 -0.0422 -0.0460  0.1958
15554W        W34408   4.150  12.648  14.594 -0.0774  0.0719 -0.0856
15555W        W34409   4.249  12.538  15.041  0.0713  0.0846 -0.3412
15556W        W34410  16.760   7.428   2.011  0.1784 -0.0000  0.0523
15557W        W34411   4.983  17.803  14.162 -0.1382  0.2252  0.0483
15558W        W34412  14.423   3.860   3.354  0.0511 -0.1036 -0.0831
15559W        W34413  13.976   8.333   3.322 -0.0552 -0.0022  0.0645
15560W        W34414   1.160  15.399   0.589 -0.1391 -0.0845 -0.3339
15561W        W34415  12.276  16.191  12.959 -0.0089  0.1182 -0.0444
15562W        W34416  16.159   6.196   1.146  0.2250 -0.0705  0.0298
15563W        W34417  10.030   0.083   4.586 -0.0609 -0.2356  0.2973
15564W        W34418   3.652   9.811   1.323 -0.0975 -0.0760 -0.4339
15565W        W34419   5.279   3.138   4.061 -0.2698  0.0050  0.3613
15566W        W34420   7.746   0.419  12.028 -0.1096  0.2684  0.0933
15567W        W34421   1.717  11.065   3.368 -0.1225  0.3052 -0.0099
15568W        W34422  15.141   3.707   2.755  0.0991  0.0625  0.3207
15569W        W34423   1.848   2.728   3.229  0.0612 -0.3169  0.3316
15570W        W34424   5.826   5.244  11.610 -0.1329  0.1081 -0.0779
15571W        W34425   2.760   5.614   4.078 -0.1166  0.2271 -0.3674
15572W        W34426   6.770   8.868   3.430  0.2848 -0.2577 -0.0264
15573W        W34427  13.214  14.431  11.909 -0.1360  0.0396 -0.0329
15574W        W34428   5.205   8.692   2.768 -0.2161 -0.0091 -0.0979
15575W        W34429   1.238   1.003   1.581 -0.6490  0.1630 -0.0434
15576W        W34430   4.772  13.748   2.165  0.2692  0.2538  0.1300
15577W        W34431  11.986  15.438   0.593 -0.3916  0.3331 -0.0652
15578W        W34432  11.372   5.475   0.140  0.3830 -0.0795 -0.2087
15579W        W34433   6.661  13.241   1.045  0.0893  0.0347  0.1446
15580W        W34434   7.282   4.000  13.268 -0.1699 -0.1468  0.0970
15581W        W34435   0.494  14.748   3.986  0.1463  0.0001  0.1448
15582W        W34436  10.895  11.053  12.018  0.3609 -0.0458  0.1249
15583W        W34437   0.075   5.837  11.055 -0.4305  0.3386  0.4462
15584W        W34438   4.220  14.888  13.139  0.0154 -0.1171  0.1938
15585W        W34439  10.018  13.964  15.303  0.1422 -0.0312  0.1056
15586W        W34440  13.758   5.992  14.736 -0.1679  0.1985  0.4933
15587W        W34441   7.992  13.574   1.946  0.0780 -0.0889 -0.0355
15588W        W34442  16.011   5.679  14.300 -0.0793 -0.4148  0.0454
15589W        W34443   6.640   6.537   1.478  0.2110  0.0512  0.0298
15590W        W34444  18.153   0.749   0.030 -0.1303 -0.0545 -0.3427
15591W        W34445  17.637   5.998  11.072 -0.3248  0.2358  0.3074
15592W        W34446  13.866  16.994   4.172 -0.1317 -0.1924 -0.3271
15593W        W34447   4.536  15.956  13.978 -0.1490 -0.0704  0.0238
15594W        W34448  11.397   7.059  11.241 -0.1449  0.1468 -0.2349
15595W        W34449   9.585  16.175   0.109  0.2939  0.0198  0.0380
15596W        W34450  14.811  14.763   2.899  0.5229 -0.2998 -0.1260
15597W        W34451  12.399  18.544  14.240  0.2337  0.1386 -0.1444
15598W        W34452  16.998  13.740  13.528 -0.0050  0.0634  0.1206
15599W        W34453   1.924  11.456  12.411 -0.1486  0.3714 -0.4880
15600W        W34454  12.434   4.225  14.297  0.2695 -0.2935  0.1087
15601W        W34455   1.689   2.314  15.317 -0.1792 -0.0815  0.0539
15602W        W34456   4.772   9.439   2.267 -0.0366  0.1785  0.1046
15603W        W34457  18.552  12.120   1.043  0.0690  0.1130 -0.0093
15604W        W34458  17.665  15.595  14.819 -0.1909 -0.0059  0.3024
15605W        W34459  16.265  11.914   2.374 -0.1369  0.3066  0.3359
15606W        W34460   5.682  10.315   1.786  0.2366 -0.1675 -0.1477
15607W        W34461  13.019  12.193   2.592 -0.0180 -0.0306  0.1815
15608W        W34462  18.468   4.462   0.231  0.0746  0.0316  0.1452
15609W        W34463  14.241   3.557  12.942  0.2332 -0.1645  0.0661
15610W        W34464   4.769   1.861  12.517 -0.0362  0.1585 -0.0137
15611W        W34465   7.365  18.460  12.942  0.1213  0.2506 -0.3255
15612W        W34466   8.701   4.522  11.190  0.0212 -0.0435  0.1077
15613W        W34467   1.339  15.823  10.609 -0.1762 -0.1695 -0.0338
15614W        W34468  16.555  16.269  13.588 -0.1009  0.0102 -0.1379
15615W        W34469  17.249  16.691  12.745 -0.1898  0.0994 -0.1174
15616W        W34470  13.594   3.981   0.993  0.1835  0.0935  0.3253
15617W        W34471  15.279  17.392  12.491 -0.2770 -0.1897  0.2256
15618W        W34472   5.784   7.842   0.521 -0.1633  0.0745 -0.3187
15619W        W34473   7.670  15.876   4.058  0.0103  0.1021 -0.3424
15620W        W34474   2.959  17.563  12.698  0.1149  0.1216  0.0036
15621W        W34475   0.718   7.848   3.820  0.3521 -0.0577 -0.2646
15622W        W34476  15.647   2.023   3.628  0.0259  0.0178  0.0061
15623W        W34477  11.067   9.212   4.458  0.2057 -0.4566  0.1113
15624W        W34478  15.156  12.212  14.850  0.3386 -0.0968  0.1416
15625W        W34479  11.344   0.326  15.340  0.2640 -0.0377  0.1085
15626W        W34480   3.458   9.493  15.024  0.0615  0.3058  0.0643
15627W        W34481   2.230  18.145  14.218  0.0317 -0.1491 -0.1626
15628W        W34482   4.586  15.473   2.355  0.0962  0.1091 -0.0924
15629W        W34483   8.723   3.956   3.873 -0.1091  0.1158 -0.2320
15630W        W34484   4.949  12.756   0.672  0.0583 -0.0640 -0.1486
15631W        W34485   8.594   7.993  14.455  0.0680 -0.3848  0.1698
15632W        W34486  12.945  11.949   1.650 -0.0168 -0.0762  0.1158
15633W        W34487   3.931  11.398  10.607  0.1711 -0.0664  0.0074
15634W        W34488  10.280  15.199  13.235 -0.2251 -0.0010  0.0931
15635W        W34489  17.714  13.529  15.006 -0.1232  0.3536  0.0399
15636W        W34490   6.767   1.161   3.282 -0.2125  0.0993  0.2888
15637W        W34491   3.633   8.880  13.847 -0.6026  0.0126 -0.0260
15638W        W34492   8.250  14.932   4.364  0.1288 -0.2340  0.1617
15639W        W34493  16.838   5.660   4.284 -0.4877 -0.2995 -0.0066
15640W        W34494   8.632  11.071   2.151  0.1382 -0.0587 -0.0480
15641W        W34495  17.259  14.564  14.716 -0.3302  0.0694 -0.2527
15642W        W34496  14.552   3.304   3.326  0.0101  0.0041  0.3394
15643W        W34497   0.034   2.771  11.252  0.0745  0.1690 -0.1920
15644W        W34498   3.722  14.153   5.117  0.2278 -0.1866 -0.1476
15645W        W34499   8.145  11.294   0.989 -0.0528 -0.3859  0.0579
15646W        W34500  17.969   4.540  13.314 -0.0392 -0.1172  0.3330
15647W        W34501  10.481   7.222  13.164 -0.1612  0.1175 -0.3128
15648W        W34502   6.287   9.058   4.210  0.0047  0.0084 -0.2315
15649W        W34503  11.180  18.108   5.966  0.0783  0.2303  0.0710
15650W        W34504  17.988   6.026  13.573 -0.1211 -0.0323  0.1771
15651W        W34505  16.346   6.364   3.399  0.1692  0.0757  0.0384
15652W        W34506   2.944  13.580  11.349  0.1806  0.0757 -0.0566
15653W        W34507  11.567   6.519  12.449 -0.0339  0.2783 -0.1802
15654W        W34508  14.967   6.487  11.861  0.1517 -0.1666  0.0391
15655W        W34509  15.413   7.027  11.786 -0.3134  0.1790 -0.0019
15656W        W34510  12.199  17.714   3.223 -0.3368 -0.0595 -0.1767
15657W        W34511  10.446   0.840  12.147 -0.0721 -0.0234 -0.3713
15658W        W34512  18.503   6.423  14.816 -0.0926  0.0631  0.0342
15659W        W34513  12.642   4.981   4.385 -0.0763 -0.1825  0.1087
15660W        W34514   3.053   4.434   3.237  0.0815 -0.1663 -0.2114
15661W        W34515  11.915   5.495  13.033 -0.0355  0.0757 -0.1219
15662W        W34516   2.147  11.679   4.591 -0.0362  0.2885  0.1159
15663W        W34517  12.824   9.018  12.818 -0.2304 -0.2642 -0.1421
15664W        W34518  13.146   7.330   1.514  0.0786  0.3046  0.1963
15665W        W34519   0.309  16.301  14.957  0.0556 -0.3243  0.2306
15666W        W34520  11.532   6.204  14.623  0.0513  0.0637  0.0824
15667W        W34521   2.968   6.515  11.706 -0.2811 -0.3927 -0.1244
15668W        W34522   2.048  15.049  14.079  0.0985  0.1798  0.3556
15669W        W34523   2.927  11.696  11.594 -0.5060 -0.1146  0.0728
15670W        W34524  16.290   7.531  11.499 -0.0360 -0.0048  0.0035
15671W        W34525   9.878  12.984  12.554 -0.0534  0.2204  0.0037
15672W        W34526   3.756   3.429  13.001  0.0894  0.0677  0.0868
15673W        W34527  15.894  11.899  12.210  0.2153 -0.0685 -0.1677
15674W        W34528   4.828  18.548   1.986  0.1450  0.1733 -0.2104
15675W        W34529   0.637   5.944  12.769 -0.1279  0.2578 -0.1442
15676W        W34530   4.395   0.982  11.666 -0.0479 -0.0171  0.0569
15677W        W34531   0.912   5.102   5.563  0.0049  0.0675 -0.0260
15678W        W34532  15.928  15.671  15.329  0.2085 -0.1862 -0.0810
15679W        W34533   2.050  18.548   3.401  0.1760 -0.0218  0.0374
15680W        W34534  15.248   2.060   3.289  0.0204  0.0293 -0.0176
15681W        W34535  16.602   2.325   3.616 -0.0132  0.1341 -0.0767
15682W        W34536  12.403   0.658   1.235  0.0986  0.3247 -0.1614
15683W        W34537   9.503  17.263   4.739  0.0336  0.2445  0.1244
15684W        W34538   3.804   8.555  15.064  0.2499  0.2029  0.0124
15685W        W34539   3.968   1.270  13.745  0.0622  0.4548 -0.1457
15686W        W34540  17.115   6.960   1.418 -0.0641 -0.1861  0.3062
15687W        W34541   0.291   1.277   4.293 -0.0849  0.1319 -0.0617
15688W        W34542   8.329  16.241   2.886 -0.0979  0.2647 -0.0776
15689W        W34543   0.740   6.546   1.649 -0.0205 -0.1263  0.2077
15690W        W34544   1.240   7.406   1.914  0.0909  0.0953  0.0045
15691W        W34545  14.262   8.404   2.900  0.0131 -0.0494 -0.0547
15692W        W34546  11.149  14.407  14.280 -0.0918 -0.1660 -0.3634
15693W        W34547   6.599   6.176  14.461 -0.3347  0.1958  0.0287
15694W        W34548  17.928  17.932  12.888  0.0494 -0.1215  0.2665
15695W        W34549   4.121   3.975   1.516  0.1360  0.1630 -0.1162
15696W        W34550  15.206   4.776  13.305 -0.0262 -0.1515  0.2533
15697W        W34551   9.665  14.859   0.943 -0.1585  0.1365 -0.1117
15698W        W34552  14.234   4.444   0.067 -0.1334 -0.0897 -0.3772
15699W        W34553   9.317   9.439   1.687  0.0404  0.2441 -0.1304
15700W        W34554   3.021  17.101  11.954  0.1032 -0.0007  0.2601
15701W        W34555   6.342  14.310  13.829 -0.1094 -0.1558  0.1887
15702W        W34556   6.582   9.844   4.142 -0.0696  0.1167 -0.1663
15703W        W34557  12.364   1.237  13.924 -0.3007 -0.1302 -0.0466
15704W        W34558   3.713  14.327   0.171  0.6007  0.1883  0.1846
15705W        W34559   0.053   0.776  12.323 -0.1323 -0.2012 -0.0018
15706W        W34560   0.115  14.898  14.740 -0.0086 -0.0034  0.2513
15707W        W34561   3.955   1.423   1.120  0.0631  0.4212  0.1932
15708W        W34562  12.982   1.349   2.209  0.1003 -0.2585  0.1003
15709W        W34563  18.480   1.485  10.261  0.0299  0.2149 -0.1150
15710W        W34564   5.004   2.926  14.747  0.0947 -0.0807  0.6152
15711W        W34565  17.188   3.791  12.773  0.1425  0.1201 -0.1837
15712W        W34566   0.844   3.276  12.752  0.3370  0.2132  0.2542
15713W        W34567   7.009  16.238  13.960  0.1217  0.0183 -0.2037
15714W        W34568   9.642   0.942  13.721 -0.1163 -0.2370 -0.0083
15715W        W34569   6.920  17.701   1.724 -0.0725  0.0390 -0.0864
15716W        W34570   9.509   2.548  15.427  0.0911  0.0763 -0.2699
15717W        W34571   6.544   7.861  11.341 -0.2790 -0.0032  0.1275
15718W        W34572  15.248   1.417  15.112  0.1459 -0.1886  0.2376
15719W        W34573  13.790   0.518  15.335  0.0215 -0.0117 -0.0516
15720W        W34574   0.232   4.401   3.312  0.0296  0.0856 -0.0355
15721W        W34575   1.016   0.225  12.514  0.2503 -0.2968  0.1217
15722W        W34576   2.208  13.597   3.420  0.1952 -0.1862 -0.1814
15723W        W34577   0.715  15.015   2.703  0.0898  0.2382 -0.2469
15724W        W34578   7.905   3.911   3.717 -0.0830  0.2397  0.0338
15725W        W34579   2.029   6.150   0.938 -0.1975 -0.2187  0.2544
15726W        W34580  17.966   3.863   3.261 -0.2916 -0.0732  0.2991
15727W        W34581  10.443   7.760  10.009 -0.2907 -0.4456  0.3842
15728W        W34582   3.150  11.444   1.182  0.0827 -0.0101  0.1452
15729W        W34583   8.998  16.446  12.131 -0.1265  0.1077  0.0793
15730W        W34584   5.510   4.233  13.489  0.1121 -0.1449  0.0575
15731W        W34585  11.977   3.587  13.061 -0.0671  0.1018 -0.2428
15732W        W34586   1.408  11.935   4.073  0.0933  0.1850 -0.1715
15733W        W34587   7.552  12.233  13.003  0.4501  0.0307 -0.0570
15734W        W34588   0.371  10.809  10.585  0.0627  0.2252 -0.3252
15735W        W34589   9.552  15.807   4.307 -0.0778  0.0769 -0.1591
15736W        W34590  11.841   6.933  14.468 -0.1276  0.2939  0.1672
15737W        W34591   1.904   9.406  11.823 -0.0063  0.2568  0.1053
15738W        W34592   0.777   3.063   2.508  0.1613 -0.0807  0.2195
15739W        W34593   7.104   8.411   4.904  0.0009  0.0762  0.0935
15740W        W34594   7.330  10.819   0.799  0.1917  0.1630  0.3976
15741W        W34595   6.920   8.877   5.203  0.0937  0.1902 -0.2040
15742W        W34596   7.631  15.558  14.338 -0.0465 -0.2732 -0.2517
15743W        W34597   0.524  17.732  13.232  0.0339  0.0959 -0.0245
15744W        W34598  17.887  18.439   0.643  0.1002  0.1207  0.1679
15745W        W34599  10.532   9.203   0.021 -0.2381 -0.2469  0.0740
15746W        W34600   0.819  10.782   3.165  0.2844  0.0175  0.1277
15747W        W34601  11.925   3.370  13.581 -0.1772 -0.0435 -0.0722
15748W        W34602  14.984  10.241   1.503  0.1667  0.3309  0.1809
15749W        W34603  11.091   7.500  13.222  0.2979 -0.2306  0.0210
15750W        W34604  13.804   5.920  13.664 -0.0561  0.0982  0.1537
15751W        W34605  17.812   6.802   3.156  0.1200  0.0742  0.2050
15752W        W34606  11.249  10.079   2.674 -0.0497  0.0769 -0.0078
15753W        W34607  16.182   8.045  15.289  0.2576 -0.1387 -0.0598
15754W        W34608   4.338  10.869   5.070 -0.2432  0.1850  0.0302
15755W        W34609   2.874  16.221   2.085  0.0790  0.2097 -0.0601
15756W        W34610   7.624  13.878   3.447 -0.2066 -0.1049 -0.2440
15757W        W34611   2.781  17.534   2.033 -0.4933  0.1252  0.3014
15758W        W34612   5.907  13.587  14.180 -0.0100 -0.2073 -0.0123
15759W        W34613  18.036  12.066  11.988  0.2658  0.0189 -0.5607
15760W        W34614  13.643   7.342   4.744  0.1672 -0.3666 -0.0288
15761W        W34615   9.031   9.944  15.319  0.1432  0.0575  0.2145
15762W        W34616   3.380   6.128  12.013 -0.0355 -0.0124  0.1680
15763W        W34617   1.695  12.220   1.139 -0.1203  0.0920 -0.1870
15764W        W34618  12.876  11.881  15.195  0.0174 -0.0728 -0.1308
15765W        W34619   0.915   5.644   0.675  0.1178  0.2502 -0.1504
15766W        W34620  13.594   1.483  12.016  0.0195 -0.1724  0.1492
15767W        W34621  18.559   5.228  12.888 -0.5504 -0.1939 -0.0832
15768W        W34622   2.174  16.877   2.164 -0.0534 -0.3824  0.0860
15769W        W34623   5.785   7.429   1.685 -0.0888  0.1214 -0.2659
15770W        W34624  10.244  15.329   3.982  0.0940  0.0310  0.0947
15771W        W34625  10.546   1.118  15.038 -0.0558 -0.1221 -0.1133
15772W        W34626  17.031  15.895  12.238  0.4830  0.0591 -0.0564
15773W        W34627   3.450   6.721  11.901  0.0094  0.1173 -0.0877
15774W        W34628  11.572  17.517   0.549  0.1977 -0.0117 -0.3465
15775W        W34629  11.418  10.955  12.828  0.2290  0.0300 -0.0629
15776W        W34630  15.505   7.049  15.413 -0.2790  0.1873  0.0085
15777W        W34631  17.243  14.212   3.323  0.3163 -0.2843  0.0487
15778W        W34632   5.715  14.907  15.165 -0.2147 -0.0607  0.1616
15779W        W34633   6.139  17.975  14.511  0.0270 -0.2094  0.1438
15780W        W34634  12.495   9.024   4.563  0.0263 -0.0378  0.1704
15781W        W34635   8.717  14.191  13.349  0.3278  0.0947  0.0250
15782W        W34636   2.677   0.114  13.970 -0.2396  0.2035 -0.2036
15783W        W34637   6.700   9.093   0.393  0.2726 -0.0730 -0.2459
15784W        W34638  14.612  15.784  11.925 -0.1449  0.2744  0.1246
15785W        W34639  17.270  16.712  11.793  0.0922 -0.2123 -0.0217
15786W        W34640  13.208  16.255  12.523  0.0576  0.1147  0.0384
15787W        W34641   5.664  13.202   4.136 -0.2838  0.0804 -0.0768
15788W        W34642  10.683  12.050  11.836  0.2000 -0.0137 -0.1645
15789W        W34643   5.607   6.721   0.954 -0.0783 -0.0916  0.0405
15790W        W34644  11.866   2.433  13.100  0.2151  0.0359 -0.1088
15791W        W34645   1.127   9.092   0.711 -0.2304 -0.2943  0.0990
15792W        W34646  15.846   4.569  11.145  0.2206 -0.4079 -0.0971
15793W        W34647  16.673   2.100  13.705  0.0463  0.0102 -0.4173
15794W        W34648   9.055   7.524  12.033  0.1506 -0.0596 -0.0046
15795W        W34649   8.135   9.261   2.359  0.2877 -0.0305  0.0541
15796W        W34650  18.315  14.863   4.792 -0.1147  0.2525 -0.0791
15797W        W34651   1.697   7.783   2.166  0.2306 -0.1699 -0.1943
15798W        W34652   3.771  12.176  11.122 -0.0465 -0.1142 -0.2603
15799W        W34653  13.960  17.584  11.790 -0.0468 -0.1117 -0.0317
15800W        W34654   8.222  10.039  11.733  0.0494 -0.3458 -0.0963
15801W        W34655   2.870   9.015  15.452 -0.3099  0.1160  0.3090
15802W        W34656  12.341  18.130  14.932 -0.0264 -0.1135 -0.1218
15803W        W34657  10.332  15.450  12.436 -0.0139 -0.2682  0.3202
15804W        W34658  13.418   5.325  15.195 -0.0695  0.0048  0.0444
15805W        W34659  17.629   1.796  10.760 -0.1373  0.3026  0.2976
15806W        W34660   8.255   7.920   3.832 -0.1426  0.2729 -0.1737
15807W        W34661  12.474  10.211   2.039  0.1145 -0.1971 -0.0590
15808W        W34662   8.858   0.093   1.185  0.0634  0.0766 -0.3138
15809W        W34663   1.446  11.635  10.781 -0.1204 -0.0966 -0.1163
15810W        W34664   0.397   6.004  11.531 -0.1666 -0.0888  0.1914
15811W        W34665   3.812   0.960  10.048  0.1822  0.0964  0.0395
15812W        W34666  14.491  17.825  14.240 -0.0251  0.0020  0.0212
15813W        W34667   9.366   7.579  11.239  0.1221  0.2698  0.3525
15814W        W34668  15.908   5.159   2.515  0.1191 -0.0320 -0.0868
15815W        W34669   7.565   7.905  14.748 -0.0155 -0.0157  0.0967
15816W        W34670   4.145  14.434   2.647 -0.1030  0.0326 -0.2779
15817W        W34671   9.591   5.332  12.595 -0.0481  0.0369 -0.0720
15818W        W34672  10.506  17.866   3.409  0.1147  0.0835  0.1316
15819W        W34673   1.196   1.480  10.458 -0.1660 -0.1131 -0.0845
15820W        W34674  12.941   0.999   3.992 -0.1078 -0.1575  0.1706
15821W        W34675  16.685   4.767   2.472  0.1268 -0.1155  0.1419
15822W        W34676   0.064  13.467   3.305 -0.2257 -0.0975  0.2816
15823W        W34677  12.167  16.686  14.123 -0.1156  0.3268  0.0258
15824W        W34678  17.176  18.356   2.543 -0.0665 -0.3408  0.0995
15825W        W34679   9.756  13.227  14.178  0.1647 -0.1451 -0.0579
15826W        W34680  10.158   7.895  15.171 -0.0594 -0.3172  0.1188
15827W        W34681   0.039  11.870   3.719  0.1067 -0.0411 -0.0717
15828W        W34682   7.117   8.578   3.153  0.1132 -0.0453  0.3013
15829W        W34683  13.642  11.836   9.803  0.1830 -0.2896  0.1804
15830W        W34684   6.402  13.822  11.907  0.1479  0.4383  0.1683
15831W        W34685  14.704   8.508   2.009 -0.1530 -0.2829 -0.2915
15832W        W34686  16.194   5.645   9.988  0.0769 -0.0916 -0.1780
15833W        W34687  17.453   0.498  13.191 -0.0600  0.1188 -0.2146
15834W        W34688  10.718   2.592  13.728 -0.0682 -0.3705 -0.1106
15835W        W34689  17.203  18.059  13.389  0.1056  0.3686 -0.0184
15836W        W34690   6.678   0.816   3.866  0.0346  0.2547 -0.0965
15837W        W34691  11.856   0.029   2.885 -0.0450  0.0458  0.2317
15838W        W34692  16.645   2.317  11.639 -0.1640  0.1585 -0.0787
15839W        W34693   7.877  10.781  13.133 -0.0350  0.3710 -0.3015
15840W        W34694   4.521   0.508  12.365 -0.1808  0.1882  0.0475
15841W        W34695  17.594   7.642   3.454 -0.2062  0.0359 -0.0798
15842W        W34696  10.397   7.561   0.096  0.2522 -0.0847 -0.1275
15843W        W34697  18.354   2.468   3.676 -0.1210 -0.0171 -0.0744
15844W        W34698   6.515   6.397   2.734  0.2728 -0.2571  0.1338
15845W        W34699  12.976   8.070  13.494 -0.1005  0.0463  0.1488
15846W        W34700  13.389   2.451  12.316  0.2998  0.2629 -0.2199
15847W        W34701  13.777  17.546  14.271  0.0385 -0.1442  0.0045
15848W        W34702   9.068   0.266  12.709  0.2097  0.3153  0.1442
15849W        W34703   3.214   1.724   4.524  0.0545 -0.0610  0.2509
15850W        W34704   6.499   0.868   1.236  0.1593 -0.0988 -0.0912
15851W        W34705   2.698   6.560   2.787 -0.2932  0.0784 -0.0176
15852W        W34706   2.997   3.337  13.445 -0.0129  0.1309 -0.0562
15853W        W34707  11.177   7.080   2.891  0.1584  0.1489 -0.0189
15854W        W34708   4.334   9.661  12.826  0.0440 -0.0916 -0.2994
15855W        W34709   5.916  13.914   1.774  0.0486  0.1399  0.2380
15856W        W34710   8.107   9.532  12.621  0.0061 -0.1437 -0.2896
15857W        W34711  15.832  14.055  10.761  0.1807  0.2596 -0.1633
15858W        W34712   5.991  18.483  10.792  0.0783 -0.0104 -0.0127
15859W        W34713  10.855   5.216  10.387 -0.1544  0.2094  0.0429
15860W        W34714  10.112   0.357   2.459  0.0016 -0.2919 -0.0567
15861W        W34715   5.357  15.302  15.090  0.0197  0.1105  0.0309
15862W        W34716  17.040   4.471  15.269 -0.0001  0.1128 -0.0580
15863W        W34717   7.137   7.939  12.113 -0.0193  0.1662 -0.2849
15864W        W34718   7.225  18.133   4.551  0.3447 -0.1054  0.0083
15865W        W34719  14.253  14.345   2.211 -0.2134  0.1756  0.0437
15866W        W34720   7.807   6.742  12.288  0.2258  0.1445  0.2439
15867W        W34721  15.905   9.826  14.262 -0.0284 -0.0511  0.1048
15868W        W34722   5.889  11.623  13.819  0.0924  0.0364 -0.1413
15869W        W34723   1.816   3.603   1.605 -0.0831  0.1685  0.3257
15870W        W34724   3.892   7.178  10.540  0.0299  0.3318 -0.2266
15871W        W34725   8.374   8.577  15.246  0.1712  0.1381 -0.5863
15872W        W34726  13.550   6.611  13.765  0.0768 -0.1680 -0.0158
15873W        W34727   8.911  16.135   0.933  0.2711  0.1863  0.1198
15874W        W34728   6.302   5.843   2.954  0.0042 -0.0638 -0.0210
15875W        W34729   6.872   4.432  15.209 -0.2590 -0.0315  0.2477
15876W        W34730  10.657  13.156  13.224 -0.1930  0.0023 -0.1079
15877W        W34731   1.641   4.618  11.498 -0.0736 -0.0100  0.0228
15878W        W34732  16.647  10.640  11.113  0.0724 -0.0742 -0.0106
15879W        W34733   9.662  13.700  14.069  0.1261 -0.1062  0.3663
15880W        W34734   5.845   6.716  11.337  0.1432  0.0494  0.0933
15881W        W34735   4.950   2.952   3.735 -0.1053  0.1202  0.2832
15882W        W34736  10.670   0.840  11.449  0.1241 -0.0243  0.2105
15883W        W34737   4.205   0.819  12.166 -0.1192 -0.0270  0.1581
15884W        W34738  11.176  11.680   4.272 -0.1677 -0.0762  0.0850
15885W        W34739   8.877   7.163  14.447 -0.2549  0.0937 -0.1007
15886W        W34740  17.080  17.607  11.249 -0.1223 -0.1895  0.1309
15887W        W34741   1.049   8.778   2.207  0.0446 -0.0009 -0.0109
15888W        W34742  14.297  10.666  11.385  0.0557 -0.0963 -0.1014
15889W        W34743   2.744  12.147   4.064  0.1636 -0.0923 -0.2007
15890W        W34744  10.237   6.024  11.224 -0.0793 -0.0273 -0.0573
15891W        W34745   6.856  16.296   3.882  0.1788  0.0573  0.1788
15892W        W34746   0.473   8.863   2.058  0.0148 -0.0857  0.2863
15893W        W34747  14.876   6.437   4.212  0.3422  0.1453 -0.2113
15894W        W34748   8.442  17.207   3.943  0.1259  0.0479  0.0073
15895W        W34749  16.819  10.716  13.993 -0.0464 -0.1890 -0.1483
15896W        W34750   3.157  12.053   3.824 -0.0104 -0.1547 -0.1424
15897W        W34751   8.158   1.464  10.005  0.2805  0.2942  0.1283
15898W        W34752  13.313  14.652   4.246 -0.0526  0.2419 -0.0539
15899W        W34753  14.629   8.446  15.106  0.1884  0.2649 -0.3248
15900W        W34754   4.661  17.290  15.361  0.1786  0.3578 -0.0764
15901W        W34755   6.632   7.466  12.918 -0.1796 -0.2017 -0.1697
15902W        W34756  10.854   4.396  14.025  0.2706  0.0608  0.3417
15903W        W34757   9.099  15.714  15.018  0.1390  0.2624 -0.1453
15904W        W34758  15.931   2.984   0.444  0.1781 -0.2640  0.0675
15905W        W34759   8.903  14.612   2.049  0.0637  0.0447  0.2142
15906W        W34760  15.045   4.411   4.333  0.1653 -0.1313  0.0471
15907W        W34761  12.889  15.212  12.025 -0.0430  0.2106  0.1794
15908W        W34762   1.689   0.521   0.771  0.0475 -0.3308  0.2253
15909W        W34763  15.642   1.781  13.303 -0.1537 -0.2750  0.1074
15910W        W34764   3.106  14.816   1.650  0.2460 -0.1660 -0.1031
15911W        W34765   8.781  12.901   1.057  0.0228 -0.0735  0.0745
15912W        W34766   7.145   8.802   0.283 -0.1462  0.0442 -0.1560
15913W        W34767  13.874  10.921   3.624  0.0480 -0.3906 -0.0252
15914W        W34768  14.439   0.688   2.025  0.2254  0.4198  0.0132
15915W        W34769  10.857   4.436  14.519  0.1840  0.1893  0.0284
15916W        W34770  11.049   6.698  12.098 -0.0173  0.1166  0.1556
15917W        W34771   0.089  14.300  13.650  0.0279  0.0611 -0.1476
15918W        W34772  13.117  16.476  15.193 -0.0734  0.0514  0.1095
15919W        W34773  10.256   1.931  12.983  0.0005 -0.3114 -0.0666
15920W        W34774  11.688   6.179   0.881 -0.1160  0.1141  0.0898
15921W        W34775   6.370   7.310   4.616  0.2324 -0.0396  0.1496
15922W        W34776   5.238  15.437   0.486  0.2299 -0.2274  0.3027
15923W        W34777  13.719   8.851  12.509 -0.1407 -0.1061  0.2910
15924W        W34778  11.924   4.518   1.334 -0.0274 -0.3415  0.1828
15925W        W34779   3.415   9.740  11.310  0.0330  0.0561  0.0375
15926W        W34780   1.190  17.560  10.947 -0.2821  0.0818 -0.2807
15927W        W34781   3.526   3.292  10.636  0.0755 -0.1563 -0.0477
15928W        W34782   2.192   0.549  12.205 -0.1768  0.3670  0.1853
15929W        W34783  15.870  12.325  15.461  0.1008 -0.0254 -0.3195
15930W        W34784   1.791  14.276  12.534 -0.0234  0.1598 -0.1272
15931W        W34785   6.684   2.651   1.884  0.1710  0.0350  0.0560
15932W        W34786  12.346   9.982  12.691 -0.5250  0.0185  0.0727
15933W        W34787   5.447   0.624   4.493 -0.1947 -0.0862  0.0391
15934W        W34788   1.958   3.120   1.474  0.0400 -0.1457  0.2012
15935W        W34789  12.708   1.460  12.998 -0.0131  0.2049  0.2399
15936W        W34790   4.256  15.689   2.642 -0.0542 -0.0178 -0.2089
15937W        W34791   6.765  14.024  13.831 -0.1031  0.1397  0.1677
15938W        W34792  13.123  15.326  11.502  0.0523  0.1745  0.0282
15939W        W34793   5.096   5.532  13.309 -0.2883  0.2501  0.0821
15940W        W34794  12.017   2.354   1.292 -0.0870 -0.0006 -0.1320
15941W        W34795   3.513  12.024  15.044  0.0904  0.0114  0.0703
15942W        W34796  18.214  10.344  11.252  0.0442  0.1497 -0.1955
15943W        W34797   8.011   5.203   3.994  0.1630 -0.0344 -0.0273
15944W        W34798  13.501  16.993   1.976  0.0819 -0.1411 -0.0912
15945W        W34799   4.643   8.708  11.240 -0.1942 -0.0382 -0.2081
15946W        W34800  17.212   8.570  12.332 -0.3983 -0.1798 -0.0511
15947W        W34801  10.126  18.536   4.079  0.2791 -0.0601 -0.0369
15948W        W34802   7.750   7.929   3.604 -0.1460 -0.0362  0.1586
15949W        W34803  13.234   9.316  14.834 -0.2297  0.1502  0.1684
15950W        W34804   4.262   9.813  11.490  0.3298 -0.0565 -0.0666
15951W        W34805   5.916  12.664   0.338 -0.0847  0.1927  0.0783
15952W        W34806   6.324   3.975  13.486 -0.1186  0.0212 -0.0729
15953W        W34807   7.160  15.869   4.148  0.0751 -0.0039 -0.1107
15954W        W34808   6.952  11.099  14.360 -0.1096  0.0526  0.2904
15955W        W34809   2.951   1.853  12.336 -0.1838 -0.1754 -0.0321
15956W        W34810  13.148  18.417   3.664 -0.1245  0.1312 -0.2210
15957W        W34811  11.480   5.305   1.144  0.2186 -0.0145  0.1601
15958W        W34812  10.790  12.006   4.512  0.2517  0.0918  0.1768
15959W        W34813   6.746   9.371   4.090  0.3148  0.2355 -0.5096
15960W        W34814   5.095  16.650   1.152  0.0354 -0.0687 -0.0707
15961W        W34815  17.506  18.037  13.747  0.0072  0.3418  0.1211
15962W        W34816  12.620  16.491  13.670 -0.0981 -0.0673  0.1887
15963W        W34817   1.970  16.138   3.547 -0.2739 -0.1253 -0.0272
15964W        W34818  18.513   1.100  13.998 -0.0618 -0.0660  0.1561
15965W        W34819  18.450  16.177   4.898 -0.1090  0.0456 -0.1367
15966W        W34820  15.017  11.598   4.962 -0.0977 -0.2229 -0.2771
15967W        W34821   4.741   6.325   3.668 -0.1996 -0.2686  0.0246
15968W        W34822  16.391   5.441   3.203 -0.1609 -0.2278  0.1221
15969W        W34823  15.846   0.308  12.417 -0.1029 -0.1801  0.0756
15970W        W34824   0.349  17.754   2.209  0.0592 -0.0610  0.0851
15971W        W34825   3.768   5.610   4.320 -0.0326 -0.2638 -0.0136
15972W        W34826   9.652   5.752  12.868 -0.2153  0.1185  0.2363
15973W        W34827  16.079   6.264   0.522  0.0551  0.1228 -0.3193
15974W        W34828   3.184  15.994  11.536 -0.0444  0.1062 -0.0308
15975W        W34829   3.970   3.994   4.782 -0.1393 -0.0415  0.0416
15976W        W34830   1.703   1.127  13.326  0.1395  0.2377 -0.0137
15977W        W34831  16.151  16.831  15.442  0.3383  0.0285  0.3268
15978W        W34832  13.174  16.374  11.418  0.2264 -0.1311 -0.0119
15979W        W34833   0.659   7.144  14.863 -0.2884  0.3246  0.0637
15980W        W34834   7.844   4.526   4.624 -0.2352 -0.1291  0.2412
15981W        W34835  15.291   1.133   0.422 -0.0995 -0.0983 -0.1191
15982W        W34836  13.632   7.197   2.630  0.0278 -0.2779 -0.0027
15983W        W34837  10.112   8.769  13.363 -0.3250 -0.0095  0.2159
15984W        W34838   9.445   8.283  11.565 -0.1015  0.1528  0.0436
15985W        W34839  17.547   7.650  13.156  0.0468  0.0576 -0.3682
15986W        W34840   3.388  13.778  11.834  0.2931 -0.0430 -0.0931
15987W        W34841  17.530  10.189   5.100  0.0655 -0.0475  0.0531
15988W        W34842  15.556  10.637   2.894  0.0785  0.0240 -0.1762
15989W        W34843  12.449  11.959   1.740  0.2337  0.1012  0.2166
15990W        W34844   2.258   4.980  14.002  0.0440  0.1609 -0.1878
15991W        W34845  15.890   6.702   2.827 -0.1898  0.3959  0.0508
15992W        W34846   3.097   8.654  11.246  0.0120  0.1233  0.1224
15993W        W34847  18.188  12.714   3.488 -0.0838 -0.0172  0.0833
15994W        W34848   2.971  12.964  12.106 -0.1877  0.1899  0.0065
15995W        W34849  16.339  15.134  13.377 -0.3944 -0.1072 -0.2290
15996W        W34850  17.832   8.946  12.263 -0.0674  0.0560 -0.0037
15997W        W34851   5.812   6.152  12.026 -0.2052 -0.2809 -0.4866
15998W        W34852  11.469  13.695   0.164 -0.0774 -0.3350 -0.1535
15999W        W34853  13.576   1.686   0.519 -0.0529  0.0145  0.1471
16000W        W34854   1.582   0.162  14.549 -0.0139 -0.0190  0.2591
16001W        W34855   9.470   9.226  13.138  0.0709  0.2283 -0.2764
16002W        W34856   4.547   1.036  13.971  0.0260 -0.0373  0.1623
16003W        W34857  16.033  10.338  14.794  0.1237  0.1042  0.0444
16004W        W34858   8.332  16.256   3.978 -0.0738  0.3972  0.1093
16005W        W34859   4.884   4.713   0.751  0.1798  0.2462  0.1052
16006W        W34860   8.852   3.130  15.248  0.0539  0.1413 -0.4765
16007W        W34861   4.020   2.309  12.504 -0.0884  0.0984 -0.1905
16008W        W34862   3.514   0.335   3.399 -0.0120  0.0482  0.4782
16009W        W34863   2.197   1.733  11.787  0.1639 -0.2954 -0.1698
16010W        W34864   9.969   7.689   3.588 -0.2011 -0.3732 -0.0640
16011W        W34865   7.484   9.621  12.945  0.0058 -0.0129  0.1552
16012W        W34866   8.102   1.318  12.066  0.2406  0.1843  0.0140
16013W        W34867   8.232   5.915   3.305  0.1226 -0.1668 -0.2170
16014W        W34868   2.914   7.739   2.705 -0.2996 -0.2669 -0.1836
16015W        W34869   8.927  13.793  15.011  0.0735  0.0934 -0.0929
16016W        W34870  14.868   3.458  12.037 -0.1543  0.0058 -0.0739
16017W        W34871  11.158  14.804  13.332  0.2158 -0.0092  0.0231
16018W        W34872   9.447   0.994   1.438  0.0420 -0.1291 -0.2295
16019W        W34873  15.017  11.621   3.646 -0.2545  0.0695  0.0190
16020W        W34874   2.227  12.523  11.261  0.0199  0.0144 -0.2652
16021W        W34875  15.007  13.410  13.272  0.0120 -0.0167 -0.3559
16022W        W34876  16.745   4.817   0.124 -0.4606 -0.2826 -0.1919
16023W        W34877   3.324  11.118  12.377  0.2013  0.2154  0.1891
16024W        W34878   7.000   7.885  11.169  0.1638  0.0117  0.0127
16025W        W34879  15.697  17.696   3.577 -0.1069  0.2040 -0.4111
16026W        W34880   0.578   4.843  14.240 -0.2857 -0.1631  0.0104
16027W        W34881   5.800   8.478   1.516 -0.2274 -0.1987  0.0415
16028W        W34882   2.486  15.297  11.782  0.0648 -0.3002  0.1613
16029W        W34883   4.923  11.395   1.867 -0.0969  0.2837 -0.4930
16030W        W34884   9.803   2.227  14.424 -0.0686 -0.0425 -0.0694
16031W        W34885   4.079  13.730   1.832  0.2117 -0.0801  0.2646
16032W        W34886  16.856   9.191   0.166  0.1290 -0.1977  0.1924
16033W        W34887  15.423   9.153  10.811  0.1674  0.0476  0.0676
16034W        W34888   1.319   7.320  11.997  0.0631  0.4988  0.3089
16035W        W34889  14.090  18.548   2.325 -0.0943  0.1772 -0.1870
16036W        W34890   0.203   7.919  12.672  0.1083  0.0080  0.0778
16037W        W34891  13.243   7.970  15.190 -0.3152 -0.1730 -0.0265
16038W        W34892   7.936   4.283   4.089  0.1015  0.0435 -0.0437
16039W        W34893   2.217  13.472   0.752 -0.0848  0.2166  0.1752
16040W        W34894  18.472  10.569  14.564 -0.0497  0.0195  0.0892
16041W        W34895  14.545  16.520  11.510  0.2441  0.1088  0.1662
16042W        W34896  15.738  13.818   4.293  0.2789  0.0663 -0.0774
16043W        W34897   5.468   0.993  14.801 -0.1807  0.3352 -0.1179
16044W        W34898  18.362   3.995   2.535  0.2862 -0.0676 -0.1358
16045W        W34899  13.001   2.812   1.036  0.1700  0.0935  0.2675
16046W        W34900   0.685  10.723  13.663  0.0882 -0.0349 -0.0150
16047W        W34901   8.774  15.400  13.827  0.1043  0.2317  0.0709
16048W        W34902  11.920   9.241   2.542 -0.0826  0.2314  0.2163
16049W        W34903   9.878   1.814   4.197  0.1445 -0.0041  0.0777
16050W        W34904  17.112  17.455   0.321 -0.0603 -0.3634  0.2935
16051W        W34905   0.948  11.600  13.781 -0.0474  0.0840 -0.0364
16052W        W34906   4.717   3.303  14.534 -0.0439  0.1301 -0.2032
16053W        W34907   4.043  11.511   3.914 -0.1935  0.1214 -0.0763
16054W        W34908  12.942   3.875  11.548  0.1061 -0.0502  0.1232
16055W        W34909  11.529  14.715  12.488 -0.2541 -0.1248 -0.0359
16056W        W34910  16.993   4.520   1.947  0.0151 -0.1759 -0.2704
16057W        W34911  14.307   9.051  11.839 -0.1511  0.0956 -0.2515
16058W        W34912  13.810  13.690  11.931 -0.2338  0.0357  0.1058
16059W        W34913  13.731  14.924  15.306  0.1368 -0.1325  0.0795
16060W        W34914   7.699  15.396   0.755 -0.0793  0.0949  0.4975
16061W        W34915  13.710   9.713   0.417  0.2943 -0.2639 -0.0436
16062W        W34916   6.814   5.820  14.853  0.1786  0.4055 -0.0160
16063W        W34917  17.342   1.223   3.757  0.1480  0.1324 -0.1541
16064W        W34918  13.946  14.029  12.976 -0.0673 -0.0472 -0.0100
16065W        W34919  11.211  15.020   3.899 -0.1469  0.1826  0.1434
16066W        W34920  10.387   7.701   0.989 -0.0075  0.0453 -0.1062
16067W        W34921   5.259   9.415   3.143  0.0372 -0.2084  0.1980
16068W        W34922   2.210  13.892   2.186 -0.1246 -0.2787 -0.0271
16069W        W34923   6.395   9.354  13.017 -0.2794 -0.1977 -0.1298
16070W        W34924   4.269   4.875   2.842  0.5616  0.1874  0.3332
16071W        W34925  10.444   4.534   4.286 -0.3932 -0.1430  0.2485
16072W        W34926  14.912   5.784  15.009  0.3843  0.2003 -0.2151
16073W        W34927  14.174   4.937   0.175 -0.3019 -0.0212 -0.0714
16074W        W34928  12.522  15.691  12.884 -0.1676  0.1534  0.0133
16075W        W34929   3.859   9.472  12.712 -0.1380  0.2857  0.1226
16076W        W34930  17.681  12.679   2.484  0.1699  0.3793 -0.0126
16077W        W34931   2.753  14.684   2.033  0.1458 -0.2450 -0.0025
16078W        W34932  13.533  14.549  11.075 -0.0083 -0.0375 -0.1131
16079W        W34933   0.024   0.171  12.029 -0.3483  0.3065 -0.0828
16080W        W34934  13.594   9.709  12.900  0.0050  0.1339 -0.1414
16081W        W34935  11.484  13.241  14.649 -0.4133 -0.1266  0.2394
16082W        W34936   2.806  10.924  12.405  0.4323  0.2417  0.2668
16083W        W34937   1.445   6.580   2.810 -0.0939  0.0626  0.0687
16084W        W34938   3.746  17.316  14.997  0.0730 -0.1091 -0.2583
16085W        W34939   6.654   8.736  14.059  0.1660  0.2317 -0.0461
16086W        W34940   3.240  12.772   2.754  0.3008  0.1432  0.3568
16087W        W34941   4.607   4.539  14.225  0.0180 -0.0750 -0.0905
16088W        W34942  15.878  18.164   3.646  0.0895 -0.1029  0.0487
16089W        W34943   6.941   7.107   1.742  0.0366  0.0062  0.0864
16090W        W34944   8.657   6.607  10.915  0.0104 -0.1703  0.1868
16091W        W34945   9.373   9.340  12.317  0.1922 -0.2229 -0.0902
16092W        W34946   7.652   8.234  12.992  0.0869  0.0472  0.1829
16093W        W34947  14.847   9.151   0.854  0.1679 -0.0585 -0.0782
16094W        W34948  16.476   0.087  11.934  0.2840 -0.0325 -0.3195
16095W        W34949  10.259   0.940   0.369  0.0744 -0.0933 -0.1742
16096W        W34950  16.578   8.876  13.091  0.0181  0.0341  0.2500
16097W        W34951   1.190   2.564  14.242 -0.1019 -0.3654  0.2713
16098W        W34952  17.083   1.037  14.607 -0.1947  0.4026  0.0792
16099W        W34953   7.173  14.917  13.788  0.1379  0.0555 -0.0788
16100W        W34954   9.862   4.981   4.052 -0.0094  0.1842  0.2777
16101W        W34955   8.601  10.566   3.696 -0.0293 -0.3071 -0.1906
16102W        W34956  12.675   1.249   1.505  0.2710 -0.0135  0.2798
16103W        W34957   4.726  16.328  14.248  0.0195  0.3557 -0.0193
16104W        W34958  13.592  18.429   2.415 -0.0825 -0.2405 -0.1145
16105W        W34959   8.687   2.758  14.245  0.3499  0.4963  0.0521
16106W        W34960   1.461   3.394  13.784  0.0993  0.0691 -0.2470
16107W        W34961   1.662   9.020   2.629 -0.3466 -0.0682  0.2147
16108W        W34962   0.162   7.281   1.494 -0.0760  0.1756 -0.0207
16109W        W34963   4.745  16.750   1.630  0.1763 -0.2259 -0.0874
16110W        W34964  10.048  16.962  13.460 -0.3874  0.2871  0.0864
16111W        W34965   7.125  11.529   1.334 -0.3850 -0.1178  0.2312
16112W        W34966  12.651  14.259   2.712  0.3684 -0.1753  0.1251
16113W        W34967   8.811   5.425   4.552  0.0225 -0.1715 -0.0584
16114W        W34968  11.031  13.207  14.893 -0.0462 -0.0499  0.2702
16115W        W34969  15.689  11.290  10.974  0.1777 -0.0229  0.0293
16116W        W34970   7.012  11.466  12.661 -0.0586 -0.2010  0.3670
16117W        W34971   4.963   1.752   4.536  0.0092 -0.3003  0.4191
16118W        W34972  14.303  10.263   3.514  0.0333 -0.1065 -0.2501
16119W        W34973  12.187  12.053   1.298  0.0210  0.2798  0.1101
16120W        W34974   9.294   0.963  14.801 -0.2100  0.3517 -0.0394
16121W        W34975  10.188  18.435   2.242 -0.2457 -0.1507  0.0055
16122W        W34976   5.833   5.141  15.448  0.2723 -0.0994 -0.2028
16123W        W34977   8.472   0.175  14.868  0.1675  0.2117  0.1237
16124W        W34978  11.376   2.524   1.925 -0.0978  0.1376 -0.2148
16125W        W34979   1.228   5.279   1.951  0.0681 -0.0184 -0.1460
16126W        W34980   2.144   2.045   3.532 -0.2651  0.2962 -0.2737
16127W        W34981  17.106  14.942   1.380  0.2341 -0.1653 -0.0321
16128W        W34982  16.811   3.410   3.268 -0.1128 -0.1501 -0.0734
16129W        W34983   1.364   5.885   0.092 -0.1239 -0.2122 -0.0253
16130W        W34984   5.890  10.142  11.842  0.0133  0.0540  0.1656
16131W        W34985   1.375   2.616   2.987 -0.1708 -0.0104 -0.0916
16132W        W34986   5.139  16.885   3.694 -0.2168 -0.1763  0.0396
16133W        W34987   2.703   5.850   2.303 -0.2001  0.3160 -0.2697
16134W        W34988  13.929  13.449  13.528  0.1737 -0.2432 -0.2961
16135W        W34989   9.413   3.429  12.410 -0.0713 -0.2100 -0.2904
16136W        W34990  11.270  15.281   4.332  0.0815  0.0650  0.1128
16137W        W34991  14.915   9.278  15.304  0.0485  0.1655  0.0441
16138W        W34992  17.783   1.976  10.276  0.2169 -0.0721 -0.0102
16139W        W34993  12.841   9.626  14.536  0.0450 -0.1605  0.2790
16140W        W34994  11.885  18.365   1.010  0.2405 -0.1589  0.0073
16141W        W34995   8.752  17.720  11.827  0.1939 -0.0359 -0.0559
16142W        W34996   0.524   6.163   0.238 -0.0103 -0.1021  0.3158
16143W        W34997   1.703  16.081   2.429  0.2820 -0.0007  0.1022
16144W        W34998   5.835  10.050  12.609 -0.1064  0.0654 -0.4593
16145W        W34999  14.358   0.659   4.946 -0.1495  0.1261 -0.0367
16146W        W35000   6.849   9.889   3.192  0.2128 -0.3868 -0.3327
16147W        W35001  12.059   4.675  14.597 -0.1708  0.0975 -0.0730
16148W        W35002  15.144   4.219   2.714 -0.2605 -0.5249 -0.2430
16149W        W35003   4.256  12.868  14.030  0.1407 -0.2109 -0.1780
16150W        W35004   5.264  17.625   2.162  0.1781  0.1138  0.2674
16151W        W35005   8.669  13.607   3.133  0.0349  0.2791 -0.0450
16152W        W35006   6.365   0.976  14.135 -0.0026  0.0743  0.0517
16153W        W35007  11.333   0.378   4.435 -0.0400 -0.1087  0.0656
16154W        W35008   5.223  17.728   3.855  0.2892  0.0546  0.1396
16155W        W35009  17.891   5.487  13.191  0.1099 -0.0012 -0.0229
16156W        W35010   5.357   4.173  14.512 -0.1741  0.1361 -0.1693
16157W        W35011   3.836   2.514  14.178  0.2315 -0.2159 -0.0669
16158W        W35012   7.340   2.944   3.160 -0.0882  0.1406  0.2227
16159W        W35013   9.524  17.200   1.124  0.0247 -0.0335  0.1108
16160W        W35014  15.674  14.946   3.992  0.1548 -0.2692  0.0932
16161W        W35015  17.344  11.748   1.105  0.0961 -0.0183  0.1633
16162W        W35016  17.420   3.477  11.994  0.0651  0.0058  0.0419
16163W        W35017  17.953  10.758  12.206  0.0373 -0.5283  0.3113
16164W        W35018  15.636   4.873   2.812  0.3523 -0.2395 -0.3943
16165W        W35019   6.690   2.042  14.058 -0.0877  0.2533 -0.1775
16166W        W35020   4.932   1.315  14.215 -0.1929  0.1164  0.1287
16167W        W35021   4.281  18.341   4.689  0.0924 -0.0140 -0.0483
16168W        W35022   4.727  13.627  11.137  0.0188  0.1401 -0.0136
16169W        W35023  15.454   4.900  14.635  0.1384  0.1655  0.2034
16170W        W35024  10.414   9.795  11.497  0.3225 -0.1532 -0.2561
16171W        W35025   7.920   9.517   1.384 -0.0054  0.0282 -0.2056
16172W        W35026  11.040   5.827  13.406  0.0965 -0.1636 -0.1852
16173W        W35027   2.925  18.161   2.350 -0.1033  0.0550 -0.2598
16174W        W35028  15.065   7.004   1.144 -0.0858 -0.1629 -0.2768
16175W        W35029  15.127   0.602  12.143 -0.1570 -0.1973 -0.3481
16176W        W35030   2.572   0.215   3.699  0.5181  0.0573 -0.0732
16177W        W35031  15.451  12.211  10.992 -0.1397  0.1751 -0.1163
16178W        W35032   2.955   7.498  14.806 -0.0717  0.2051  0.2034
16179W        W35033   5.020   0.802   1.468  0.0089 -0.0022  0.1620
16180W        W35034   5.595   1.789   3.299  0.1016  0.3093  0.0912
16181W        W35035   8.172  15.982  11.565  0.0625 -0.0750  0.1021
16182W        W35036   5.302  18.514  11.647 -0.2616  0.0946  0.0321
16183W        W35037   0.032   5.187   1.470  0.0862  0.1473  0.4710
16184W        W35038  14.202  15.568  14.651  0.1701  0.0979  0.1163
16185W        W35039   9.612  18.270   0.683  0.1554 -0.0497 -0.0330
16186W        W35040   4.007  15.726  11.197 -0.1793 -0.1563  0.0233
16187W        W35041   6.935  17.150  13.672 -0.0802  0.1931  0.1713
16188W        W35042  11.180  11.552  13.044 -0.0616  0.0637  0.2001
16189W        W35043  16.605   3.549   0.239 -0.1501  0.0692 -0.1340
16190W        W35044  18.233   9.641   0.300 -0.0749  0.1019  0.2783
16191W        W35045   3.844   6.334  11.164  0.3824  0.0546 -0.0302
16192W        W35046   1.266   9.954   4.375 -0.0861 -0.1463 -0.2038
16193W        W35047   9.647   6.112   5.085 -0.0731 -0.1689  0.2519
16194W        W35048   7.102  13.920   4.363  0.1690  0.2011 -0.3009
16195W        W35049   6.369  12.994   3.624 -0.2726 -0.0161 -0.1362
16196W        W35050   1.222   7.203   4.443  0.0736  0.0726 -0.2052
16197W        W35051   5.670   2.976  11.746  0.0392 -0.0116  0.2893
16198W        W35052  12.377   0.780  12.365 -0.0504 -0.5824  0.0677
16199W        W35053   1.156   4.322   2.633 -0.0028 -0.2171 -0.0330
16200W        W35054   6.352  10.065  13.483 -0.0325 -0.0849  0.3128
16201W        W35055   8.180   0.456   2.280 -0.0628  0.3904 -0.0911
16202W        W35056  18.259   0.620   1.135 -0.0388  0.1638  0.0474
16203W        W35057  13.241   7.893   1.587  0.1634  0.1883 -0.1018
16204W        W35058  12.157   1.686   0.054  0.0982 -0.1420  0.1439
16205W        W35059   6.171   6.839   3.917  0.2389  0.1085 -0.4037
16206W        W35060   2.155  15.928   0.374 -0.5633  0.0123  0.1232
16207W        W35061  17.229  11.804  15.060  0.0914 -0.1050  0.1846
16208W        W35062  18.559  15.867  11.207 -0.2172 -0.1087 -0.0804
16209W        W35063  14.867  11.065  11.764 -0.0061  0.1315  0.0117
16210W        W35064   9.990  10.667   2.698 -0.2481  0.0400  0.0690
16211W        W35065  18.212   4.580  12.361 -0.0027 -0.0605 -0.1503
16212W        W35066   2.781  15.946   4.197  0.0775 -0.3326  0.1188
16213W        W35067   1.977   8.146   2.452  0.0876  0.2154  0.0212
16214W        W35068  13.238  10.465  12.452  0.0721  0.1983 -0.0297
16215W        W35069   1.327   0.199  12.170  0.0335  0.0106  0.3757
16216W        W35070   0.543  14.748  14.527 -0.1086  0.1409  0.1403
16217W        W35071   9.849   4.541   2.268 -0.1850  0.0473  0.1929
16218W        W35072   3.191  18.065  11.963  0.2589 -0.1638  0.2335
16219W        W35073  16.978  17.400   4.106 -0.1949  0.2378 -0.1324
16220W        W35074   0.373   7.937   4.374 -0.0589  0.1371 -0.1038
16221W        W35075   3.583   9.633  12.249 -0.2984 -0.2286  0.1751
16222W        W35076   3.711  16.876  15.139  0.0925  0.1425  0.0501
16223W        W35077   7.386   0.769  11.216  0.2874  0.0359 -0.1679
16224W        W35078   6.571   6.264   1.880  0.1022  0.0566  0.0853
16225W        W35079  10.090  14.866   0.176 -0.1117 -0.1109 -0.1889
16226W        W35080  11.691  16.790  10.766 -0.0995 -0.1074  0.0537
16227W        W35081   4.366  13.261   4.253  0.3343 -0.3102 -0.0062
16228W        W35082  16.171   5.811   1.548 -0.0525 -0.0953  0.0878
16229W        W35083   8.597   6.540  13.802  0.0372 -0.1289  0.0846
16230W        W35084  13.131  14.274   0.592 -0.0589 -0.0360 -0.0742
16231W        W35085  18.390   8.643   1.572 -0.1814 -0.2211  0.3267
16232W        W35086  17.180   1.635   2.106 -0.2655  0.0694 -0.0995
16233W        W35087   5.536  16.860   1.134  0.0467  0.4103 -0.2781
16234W        W35088   3.399  18.128   1.109 -0.0876 -0.0397 -0.3448
16235W        W35089  10.955  12.444   3.589 -0.1907  0.1877  0.2051
16236W        W35090  12.745  16.485   4.068 -0.0559 -0.2095 -0.0727
16237W        W35091  10.730  11.008   5.624  0.0995  0.3575  0.1680
16238W        W35092  17.546   6.375   3.108 -0.1988  0.1514 -0.1884
16239W        W35093   2.073  17.911   0.108 -0.0523  0.1982  0.0853
16240W        W35094  12.200  11.324   0.902  0.0360  0.0073  0.1244
16241W        W35095   1.904  17.274  12.878 -0.1027 -0.0798 -0.0092
16242W        W35096   0.942  17.113  14.410 -0.0008 -0.1262  0.0431
16243W        W35097  18.018  14.050   0.246 -0.0664 -0.4149 -0.0208
16244W        W35098  11.405   1.120   3.707 -0.2774 -0.2762  0.3248
16245W        W35099  18.048  16.699   3.306 -0.1017  0.6251  0.2232
16246W        W35100   5.274   8.002   0.330  0.1297 -0.2880 -0.1406
16247W        W35101   7.574   5.577   1.236  0.1639  0.0984 -0.1508
16248W        W35102  16.771   9.546  13.513 -0.1901 -0.0668 -0.2348
16249W        W35103  14.441   9.723  13.167 -0.2818  0.0296  0.0734
16250W        W35104  14.286   7.981   3.657 -0.2252  0.0674 -0.1773
16251W        W35105   8.110   1.365   1.007 -0.2075  0.2190 -0.0281
16252W        W35106   5.130   2.214   2.219 -0.4089 -0.2074  0.0254
16253W        W35107  14.543  12.418  11.782  0.3674  0.1189 -0.2976
16254W        W35108   1.019   5.947  12.403  0.0688  0.0862 -0.3470
16255W        W35109  14.102   6.828   4.702 -0.0551 -0.2349 -0.2083
16256W        W35110  13.297   3.812  13.924  0.3005  0.1235  0.0365
16257W        W35111   6.945  12.212  15.338 -0.3262  0.0416  0.2354
16258W        W35112   4.754  17.711   1.993  0.0388 -0.2272 -0.1255
16259W        W35113  13.623   2.519  14.074 -0.4676 -0.1744 -0.0877
16260W        W35114   8.847  16.730  12.663  0.1385  0.3294 -0.0997
16261W        W35115   0.467  10.117  12.230  0.1516  0.0896  0.0728
16262W        W35116  11.290   8.770   1.475  0.0380  0.3389  0.1918
16263W        W35117  11.895   3.793  11.569  0.0532 -0.1380  0.0619
16264W        W35118   9.192  15.836  10.752  0.0665 -0.1423 -0.0820
16265W        W35119  16.530   3.837  10.982 -0.0842  0.0276  0.1553
16266W        W35120   1.474  17.309   0.199 -0.2062  0.0639 -0.1848
16267W        W35121  12.504   4.356  12.782  0.1438 -0.2339  0.1967
16268W        W35122  10.841   8.083  11.561  0.2251  0.3548  0.0000
16269W        W35123   5.803   8.535   2.571  0.0986 -0.2155  0.0101
16270W        W35124   7.049   8.762  14.354 -0.1828  0.1580  0.1436
16271W        W35125   4.439  14.778  15.030 -0.0673 -0.0055 -0.1044
16272W        W35126  17.539  15.641   1.970 -0.0685 -0.2697  0.3077
16273W        W35127  11.279  15.310  11.826  0.2612  0.0421  0.1065
16274W        W35128  13.205  14.528  12.410 -0.0336  0.2106 -0.0168
16275W        W35129   6.190  11.264   3.162 -0.1498  0.1536  0.0398
16276W        W35130  18.314   9.537  10.795  0.0597  0.0904 -0.1575
16277W        W35131  14.716   4.257   0.063 -0.1704 -0.1726 -0.1073
16278W        W35132  15.760   7.431  11.477  0.1274 -0.0266  0.1391
16279W        W35133  18.116   3.519   0.623  0.3599 -0.0406 -0.0255
16280W        W35134  10.710   2.658  14.754  0.3263 -0.1037 -0.0146
16281W        W35135   7.831   4.625   1.234  0.0871 -0.3485 -0.0589
16282W        W35136   8.777  15.162   2.823  0.0158 -0.1208  0.0046
16283W        W35137   2.592  18.007   3.186 -0.0806 -0.0798  0.2397
16284W        W35138   3.611  17.004  13.070  0.1715  0.2739 -0.0049
16285W        W35139  13.584   5.364  12.925 -0.0470 -0.0170 -0.3449
16286W        W35140  13.073   6.038   4.495  0.0940 -0.1148  0.0351
16287W        W35141   0.492  10.842  11.273 -0.1775 -0.1775  0.1917
16288W        W35142   6.301  12.159   3.061  0.1850  0.0185  0.2102
16289W        W35143   5.456  14.932  11.159 -0.0596  0.3158  0.1086
16290W        W35144   9.053  11.881  12.927  0.1341 -0.1689 -0.1934
16291W        W35145  14.617   5.360   2.372 -0.3055  0.0465  0.2582
16292W        W35146   6.480  17.904  12.206 -0.1843 -0.1833 -0.2867
16293W        W35147   0.808   2.131   1.607 -0.3698 -0.0984 -0.0678
16294W        W35148   0.849  16.652   4.672  0.3326 -0.0056  0.2165
16295W        W35149   6.442   3.858  14.446  0.0061  0.3102 -0.1276
16296W        W35150  15.432   5.065   2.358  0.1508  0.2340 -0.1308
16297W        W35151   6.504  17.200  13.936  0.3314 -0.1727 -0.1427
16298W        W35152   3.394  14.020  10.886  0.1780  0.1310  0.1603
16299W        W35153   3.260   8.452   4.236  0.1061  0.3054  0.1321
16300W        W35154  12.439   0.122   0.743 -0.1538  0.1663  0.2294
16301W        W35155  16.949  10.713  15.295  0.0935 -0.0494 -0.0464
16302W        W35156   1.455   9.257  11.722  0.1050  0.1138 -0.1929
16303W        W35157  17.955  11.183  11.831 -0.1190 -0.1824 -0.1920
16304W        W35158  15.401   2.922   4.331 -0.0703  0.1214  0.0235
16305W        W35159   6.735   3.818   0.888 -0.1327 -0.3114  0.1309
16306W        W35160   3.781  11.876   1.865 -0.0275  0.1020  0.1229
16307W        W35161   4.222   3.358   2.290  0.3765 -0.0903  0.0465
16308W        W35162   3.927   0.256   0.013  0.2441 -0.1624 -0.1415
16309W        W35163  14.513  16.797   3.587 -0.2044  0.1310  0.0320
16310W        W35164   0.811   7.351   0.489 -0.0024 -0.2683 -0.0466
16311W        W35165  14.136  12.895  14.244  0.3713  0.2684 -0.0008
16312W        W35166   3.145   2.225  13.013 -0.0855 -0.2774  0.4312
16313W        W35167   6.499   3.158  12.286  0.1095  0.1715  0.0942
16314W        W35168   5.904  17.795  15.393  0.0885  0.0601  0.1047
16315W        W35169  11.123   1.979   4.275 -0.1370  0.0692 -0.1808
16316W        W35170   9.766   5.989  14.206  0.1042  0.0327  0.0191
16317W        W35171   6.063  12.659   2.039  0.1215  0.0140  0.1474
16318W        W35172   0.474   1.651  15.353  0.2510  0.1634  0.0907
16319W        W35173  11.758   2.200   2.983 -0.1144 -0.2790  0.1469
16320W        W35174  16.102   6.833   0.586 -0.1870 -0.0613 -0.0683
16321W        W35175  14.093   2.225  12.652 -0.1077  0.0469 -0.0612
16322W        W35176  18.442   7.489  15.254 -0.0149 -0.0277  0.2767
16323W        W35177   8.583  13.621  12.150 -0.1104  0.2026 -0.0462
16324W        W35178  17.743  18.206   3.797 -0.2905 -0.2244  0.2885
16325W        W35179   7.934   4.306  15.004  0.3332 -0.2635  0.1029
16326W        W35180   3.536  10.417   4.190  0.0552 -0.0068 -0.1888
16327W        W35181  17.873   7.589  14.552 -0.0965  0.3003  0.1826
16328W        W35182   9.697  12.699  14.561  0.0777  0.1156  0.0630
16329W        W35183  12.068  16.777  14.632 -0.1268 -0.0441  0.1547
16330W        W35184   7.762   0.516   2.766 -0.2144 -0.2412 -0.0721
16331W        W35185   3.549  16.263  11.200 -0.0324  0.2247  0.0200
16332W        W35186   8.530   5.540  13.583  0.2230  0.0051  0.0709
16333W        W35187   7.515   8.110  11.165 -0.2233 -0.2672  0.0769
16334W        W35188   8.500   8.882   4.478  0.0478 -0.2856  0.2023
16335W        W35189   9.146  13.552  15.440 -0.2960  0.0079  0.3156
16336W        W35190   9.255   6.145  15.449 -0.1981 -0.0036  0.2089
16337W        W35191  12.528   8.422  14.451  0.0609  0.0725  0.1093
16338W        W35192   7.944  18.316   3.321  0.0286  0.2377  0.0789
16339W        W35193   5.221   9.108  11.594  0.1188  0.5594 -0.1448
16340W        W35194  10.585   6.723   4.478  0.0674 -0.0877  0.0527
16341W        W35195   9.462  17.766   4.075 -0.0389 -0.1556 -0.1948
16342W        W35196  12.208  13.548   3.166 -0.1377  0.2466 -0.0288
16343W        W35197   6.782   1.736   2.006 -0.0121  0.1275 -0.1254
16344W        W35198  18.221  14.974   3.633 -0.2580 -0.3105  0.2592
16345W        W35199   3.952  12.874  13.141  0.2428  0.0637 -0.1304
16346W        W35200  14.525   4.269   4.151  0.0811  0.1521 -0.1642
16347W        W35201  10.648   1.318   2.106 -0.0585  0.0593 -0.0417
16348W        W35202  15.878   8.116  10.658  0.0024  0.3649 -0.1146
16349W        W35203   9.207   9.633   0.293  0.1086  0.3754  0.0607
16350W        W35204   1.725   5.365  14.363  0.0894 -0.0979  0.0544
16351W        W35205  16.427  13.826   2.224  0.1343 -0.1698 -0.3859
16352W        W35206   7.049  12.653  12.867 -0.0686 -0.0837  0.0386
16353W        W35207  14.730   4.188  15.011  0.1401 -0.2316  0.3255
16354W        W35208   8.104  18.355   0.625  0.1121  0.0738 -0.0936
16355W        W35209  15.111   5.934  13.054 -0.1551  0.1136  0.3155
16356W        W35210   8.881   6.201   3.852  0.0822  0.2410 -0.2146
16357W        W35211   5.652  11.323  14.781 -0.3373 -0.1165 -0.0949
16358W        W35212   5.455   7.690   4.893  0.2655  0.4100  0.0823
16359W        W35213  15.013  10.270  14.688 -0.1619  0.3115  0.1391
16360W        W35214   9.869   0.576   4.614 -0.1369  0.1229 -0.0287
16361W        W35215  14.769  14.272   4.026 -0.4776 -0.0740  0.1343
16362W        W35216  11.711  12.187  13.737 -0.1466  0.1386  0.1864
16363W        W35217  16.223  11.361   1.359 -0.2298 -0.0899 -0.0778
16364W        W35218  11.746   1.764   0.459  0.0656 -0.1195 -0.0465
16365W        W35219   2.331   6.376   3.041 -0.1106 -0.0479 -0.1552
16366W        W35220  16.358   7.389   2.352 -0.1032  0.0385 -0.0179
16367W        W35221  14.745  12.828   1.891  0.1388 -0.2518 -0.0320
16368W        W35222  11.163  17.709   0.757  0.1934  0.0459 -0.1432
16369W        W35223   9.672   5.206  13.989 -0.0723  0.0793 -0.2036
16370W        W35224  10.547   7.627   4.999  0.1485 -0.0128 -0.0075
16371W        W35225   4.293  12.332   0.492  0.1368 -0.1012 -0.0830
16372W        W35226   3.467  13.704   1.799  0.1215 -0.2000 -0.0108
16373W        W35227  17.471  10.999  11.178  0.3288 -0.2484 -0.1067
16374W        W35228   1.551  10.243  12.830 -0.1632  0.1478 -0.0548
16375W        W35229   6.113   1.504  11.665  0.0450 -0.1115 -0.2359
16376W        W35230  12.829   6.620   2.489  0.0981 -0.0889 -0.1695
16377W        W35231   5.154   0.870  11.265  0.1167  0.0927 -0.2425
16378W        W35232  10.064  18.036   1.953 -0.0851 -0.2594 -0.3569
16379W        W35233  10.629  16.109   4.397 -0.0384 -0.0090 -0.0436
16380W        W35234   3.331  12.696  12.362 -0.3466 -0.2096  0.2557
16381W        W35235  10.033   2.006   2.229  0.2631 -0.0646 -0.2335
16382W        W35236   9.041  16.626   3.298 -0.0551 -0.1408 -0.2808
16383W        W35237   8.899  18.168   1.412  0.1068  0.1663  0.3361
16384W        W35238   5.176   5.607  11.875  0.0379 -0.3354 -0.1355
16385W        W35239  10.124  18.013  11.801 -0.0633  0.1062  0.1037
16386W        W35240   8.098  16.061  13.864  0.1501  0.2088  0.2022
16387W        W35241   1.757   9.017   1.552 -0.2540 -0.0406  0.1573
16388W        W35242   3.743   5.481  11.179  0.0279 -0.0517  0.0125
16389W        W35243   1.623  13.101  14.312  0.1547 -0.1947  0.0256
16390W        W35244  17.243  13.706  10.941 -0.1664  0.0461 -0.1480
16391W        W35245   2.728  12.610  11.590 -0.1140 -0.1378 -0.1732
16392W        W35246   7.296   2.088  13.300 -0.2809  0.0087 -0.0567
16393W        W35247  17.859   2.589   4.395 -0.2199  0.4599 -0.3749
16394W        W35248   2.109   7.212  12.895 -0.3318 -0.0409 -0.0783
16395W        W35249   8.502  13.181   0.771  0.2274  0.1856  0.0118
16396W        W35250   6.212   7.800  15.075  0.2686  0.1325 -0.0987
16397W        W35251  16.135  18.405  14.795  0.0624  0.0046  0.3094
16398W        W35252  16.779  15.883  13.152  0.2125 -0.0098 -0.1841
16399W        W35253   8.874  14.837  11.996  0.3592 -0.3193 -0.1794
16400W        W35254   3.854   5.587  12.690  0.0780 -0.1464 -0.1629
16401W        W35255   5.032   5.960   1.420 -0.0285  0.0558  0.2266
16402W        W35256  14.198   9.618  12.648 -0.0230 -0.0449  0.0211
16403W        W35257  14.046  17.746  12.709 -0.0257  0.1237 -0.0636
16404W        W35258  10.464   9.731   0.822  0.0363 -0.0068 -0.0959
16405W        W35259   9.393  10.043   2.467 -0.0301  0.2142 -0.0258
16406W        W35260   8.474   2.805  13.529 -0.0284 -0.1426  0.1938
16407W        W35261   1.341   4.560  10.612  0.3045  0.0617 -0.0010
16408W        W35262   5.084   3.807   5.093 -0.0094  0.0102  0.0457
16409W        W35263  11.191  16.997   3.918  0.1735  0.0205  0.1082
16410W        W35264  17.169  12.759   4.197 -0.1976  0.4421 -0.0242
16411W        W35265  12.367   7.202   4.471 -0.2160  0.0224 -0.1486
16412W        W35266   0.470  16.717  13.249  0.0371 -0.0085  0.0367
16413W        W35267  11.331   7.995   3.181 -0.1344  0.0233  0.0403
16414W        W35268  13.567   0.795   0.389  0.2373 -0.0097  0.2959
16415W        W35269  12.500  16.746  12.695 -0.1679  0.1323 -0.2192
16416W        W35270  17.293   4.736  11.708  0.0769 -0.2224 -0.1338
16417W        W35271  17.894  10.022   2.744 -0.4061  0.0149  0.1694
16418W        W35272  14.319   0.577   2.536  0.0743 -0.1206  0.0393
16419W        W35273  15.062  14.273   0.062  0.0961  0.1326  0.1518
16420W        W35274   4.484  18.544  12.224  0.1976 -0.2214 -0.2074
16421W        W35275   8.338  10.762  14.890  0.3624  0.0658  0.4551
16422W        W35276  16.967   6.892   0.923 -0.0814 -0.3543  0.0953
16423W        W35277  14.974  14.266   4.637  0.0775 -0.0656 -0.1213
16424W        W35278   9.179  18.030   3.762  0.3415  0.2567 -0.1875
16425W        W35279  12.905   5.956   3.080 -0.0634 -0.1295  0.3189
16426W        W35280   3.408  11.947  11.536  0.0544 -0.2567 -0.1238
16427W        W35281  13.904   6.140  10.751 -0.4430  0.0289  0.0179
16428W        W35282   7.535  18.448   1.786  0.1429 -0.1561  0.1764
16429W        W35283  12.883  11.746  11.630 -0.2668  0.1100 -0.0170
16430W        W35284   7.612   7.469   3.391  0.1248  0.1938  0.0642
16431W        W35285  15.903   4.832  14.295  0.0225  0.1026 -0.0979
16432W        W35286  17.060  15.788   2.730 -0.0557 -0.2726  0.2591
16433W        W35287   1.868   8.246   2.920 -0.2235  0.2000 -0.0920
16434W        W35288   7.606   3.252  14.371 -0.1798  0.0401  0.0476
16435W        W35289   2.331   0.972  11.422 -0.0881  0.1445  0.0674
16436W        W35290   9.153  12.200  14.918  0.0031 -0.3558  0.1333
16437W        W35291  15.903  14.594   0.804  0.1237 -0.1315 -0.0417
16438W        W35292   5.853   7.114   1.290 -0.1756 -0.0054 -0.2814
16439W        W35293   2.598   7.513  13.676 -0.0688  0.1864 -0.2213
16440W        W35294  17.656  11.926   3.249  0.0366  0.1236 -0.3338
16441W        W35295  16.181  14.339   3.911  0.1105 -0.2402 -0.3703
16442W        W35296   0.489  15.306   2.983 -0.1014 -0.0023  0.0028
16443W        W35297  13.462  16.313  14.168  0.1157  0.1530 -0.1707
16444W        W35298   0.680  12.412   1.403  0.0539  0.1286  0.0079
16445W        W35299  16.481   0.225  14.661  0.1935 -0.0049 -0.2828
16446W        W35300   1.979  12.028   2.471 -0.0164 -0.3627 -0.2859
16447W        W35301  14.663   6.416  14.475 -0.0556  0.1224 -0.1151
16448W        W35302   3.878  17.589  12.688 -0.0993 -0.2487 -0.2766
16449W        W35303   5.702  16.037  11.064 -0.1419 -0.0167 -0.1063
16450W        W35304  11.686   9.384   3.189 -0.0523  0.1500  0.0281
16451W        W35305  12.165  18.387   0.265  0.0800  0.0770  0.2196
16452W        W35306   2.238   4.052  13.626 -0.1773 -0.0816 -0.0918
16453W        W35307   6.424  13.010   4.185  0.0955 -0.0300 -0.0787
16454W        W35308   1.879   3.484   0.552  0.0857 -0.0844 -0.1714
16455W        W35309   1.306  10.253  14.865 -0.0605 -0.1466  0.0192
16456W        W35310   2.504   0.695  11.834 -0.2174  0.1441  0.4209
16457W        W35311  11.086  13.963  10.757  0.2104  0.0415 -0.1062
16458W        W35312   3.606   2.752   1.627  0.2187 -0.2520  0.3379
16459W        W35313   2.971   0.818  14.093 -0.1801  0.2524  0.0016
16460W        W35314  16.932   3.833  14.523  0.0608  0.0183  0.3881
16461W        W35315   9.339  17.140  13.963 -0.0626 -0.0159 -0.1086
16462W        W35316  11.040  15.264  13.248  0.1771 -0.3551 -0.2806
16463W        W35317   1.722  16.652  12.515 -0.0206  0.0303 -0.0677
16464W        W35318  18.011  11.569  11.382  0.0112 -0.1639 -0.0382
16465W        W35319   2.417   6.015   3.968 -0.2196 -0.0438 -0.1283
16466W        W35320   5.222  14.232   4.090 -0.0290 -0.0858  0.0848
16467W        W35321   6.894  18.517   0.773  0.0232 -0.4123 -0.0511
16468W        W35322  16.747   8.487  11.719  0.3173  0.0071 -0.1792
16469W        W35323   2.635   5.751  11.806 -0.0049 -0.1656 -0.1913
16470W        W35324   7.611   1.843   2.316  0.0060 -0.4207  0.2315
16471W        W35325  16.430  17.733  14.704 -0.4005 -0.0802 -0.3031
16472W        W35326   2.391  14.934   2.210 -0.0500 -0.2347  0.1539
16473W        W35327   5.182  13.014   2.661  0.1709  0.1291  0.0337
16474W        W35328   5.779  18.327   2.183 -0.2010 -0.2343  0.0907
16475W        W35329  15.943  11.253  15.131 -0.0585  0.2099 -0.0826
16476W        W35330  16.386   7.541   3.900  0.0695 -0.2645  0.1053
16477W        W35331  18.408  18.259  12.920 -0.1735  0.0387  0.4000
16478W        W35332   8.679  12.163   4.545 -0.1831 -0.1088  0.2329
16479W        W35333  15.206   6.233  11.119  0.1071  0.1186  0.1997
16480W        W35334  14.888  11.371   2.286  0.2021 -0.2730  0.0083
16481W        W35335   4.260  16.490   3.166  0.0117 -0.1442  0.3837
16482W        W35336   8.254  14.862   0.289  0.1813  0.2968  0.2436
16483W        W35337  16.035   9.623   1.069  0.2220 -0.0206 -0.2375
16484W        W35338  16.476  18.516   4.403 -0.0972 -0.1421 -0.1500
16485W        W35339  15.751   7.576   1.671  0.0740  0.0137 -0.0924
16486W        W35340  10.343  12.731   1.182  0.1753 -0.0984 -0.0773
16487W        W35341  14.197  14.032  15.067 -0.0347  0.1526 -0.0710
16488W        W35342  17.940   4.825   0.988 -0.0071  0.0403  0.0735
16489W        W35343  10.670   1.403  13.979  0.2354 -0.0762  0.0869
16490W        W35344   2.597   9.924  11.460 -0.0404 -0.0687 -0.1867
16491W        W35345  11.663   4.638   2.744  0.1628  0.4042  0.2449
16492W        W35346  10.925  11.930  14.761  0.1839 -0.1745 -0.0678
16493W        W35347   1.617  16.883  12.060 -0.2326  0.1502 -0.1036
16494W        W35348   8.716  17.966   3.604  0.1639 -0.1534  0.0416
16495W        W35349   0.608  13.247  15.300 -0.1935 -0.0766  0.1564
16496W        W35350   8.720  14.513  14.539  0.1449 -0.0047 -0.1200
16497W        W35351  13.169  11.763   3.035 -0.1237  0.0706 -0.0676
16498W        W35352   3.870   2.995   1.227 -0.0001 -0.0889 -0.2219
16499W        W35353  12.481  14.724  12.514 -0.1899  0.4402 -0.0346
16500W        W35354  18.116  12.133   1.472 -0.0935 -0.0727 -0.2325
16501W        W35355   0.262   3.434  13.394 -0.2106  0.1103 -0.0175
16502W        W35356   5.469  17.998   2.576 -0.0595 -0.0485  0.0400
16503W        W35357   1.709   6.547   0.711  0.0888  0.0788  0.0692
16504W        W35358   0.074  12.896   3.721 -0.0627  0.0438  0.2356
16505W        W35359  17.489  10.186  12.921  0.1117  0.1948 -0.1308
16506W        W35360   4.658   9.973   0.481 -0.3061 -0.0228  0.2073
16507W        W35361   8.995  15.681   4.399 -0.0582  0.0483  0.0870
16508W        W35362  15.010  17.568  10.512 -0.0415  0.2585 -0.1632
16509W        W35363  10.622  11.510   1.401  0.0780 -0.0382  0.1871
16510W        W35364  16.569   0.760  13.867  0.0846 -0.1537  0.2363
16511W        W35365  17.679  17.975   2.019 -0.0910 -0.0194  0.3258
16512W        W35366   7.066  10.230  11.994 -0.2498  0.2795  0.1230
16513W        W35367   8.449  12.146  15.459 -0.1105 -0.1091 -0.2197
16514W        W35368   7.512   3.708  14.965  0.0270 -0.3023  0.0783
16515W        W35369   1.742  13.410  13.107  0.4001  0.2219  0.0490
16516W        W35370   2.761  13.547   0.994  0.0788 -0.1907 -0.0783
16517W        W35371  10.641   2.451   5.118 -0.1442  0.0986 -0.0517
16518W        W35372   7.641  12.934   2.488  0.0606  0.0324 -0.2707
16519W        W35373  16.271   7.366   4.358  0.2508  0.1378  0.0180
16520W        W35374   0.704  10.420  11.434  0.0127  0.0878 -0.3392
16521W        W35375   1.702  11.171  11.301  0.2752 -0.1406 -0.2599
16522W        W35376  16.879  14.834  12.226 -0.1316  0.1974 -0.0414
16523W        W35377   4.064  11.154   3.574  0.1834  0.0625 -0.2911
16524W        W35378  18.221   2.054  13.719  0.0273  0.1051 -0.0403
16525W        W35379   2.334  12.418  11.738 -0.0431  0.0494  0.1559
16526W        W35380   2.104   3.214  11.556  0.4115 -0.4005 -0.2371
16527W        W35381  10.065   7.283  10.056 -0.2964  0.1736 -0.2347
16528W        W35382  15.503   7.969  11.290 -0.2079  0.1484 -0.1631
16529W        W35383  14.050  14.089  12.498  0.0777 -0.2978  0.1786
16530W        W35384   0.376   0.615   0.422  0.2652  0.0774  0.0705
16531W        W35385   3.196   1.532  13.695 -0.1781  0.0925 -0.0970
16532W        W35386  13.531   3.381  14.188  0.1625 -0.4278  0.0434
16533W        W35387   2.846   3.123  14.111  0.1820  0.3375 -0.1840
16534W        W35388  14.181   4.443  11.365 -0.1716 -0.0820 -0.0388
16535W        W35389   4.024   0.949   2.734 -0.0336 -0.0499  0.1013
16536W        W35390  15.854   3.372  12.651 -0.1226 -0.0733 -0.0083
16537W        W35391   3.462   9.906   0.049 -0.1756  0.1211 -0.1012
16538W        W35392   2.783  17.944  15.192 -0.0768  0.0918  0.0575
16539W        W35393  16.104   2.516   1.001  0.1710  0.1635  0.0608
16540W        W35394   8.784  10.847   4.117  0.0208  0.0189 -0.0669
16541W        W35395  10.710   0.362   2.370  0.0749 -0.3956  0.0358
16542W        W35396   1.282  14.008   0.398  0.1002 -0.1340 -0.2790
16543W        W35397   1.307   1.702  13.903  0.0060 -0.2539  0.2537
16544W        W35398   8.260  14.461  10.877  0.4108 -0.0544  0.2171
16545W        W35399   2.059  16.675  15.350  0.0757 -0.0860  0.0864
16546W        W35400  15.773  17.701   0.247 -0.0950  0.0463 -0.2581
16547W        W35401   8.338  16.628   9.986  0.1322  0.0805  0.2745
16548W        W35402  11.350   1.533   3.986 -0.1333 -0.0617 -0.1581
16549W        W35403  10.403   2.279   0.492 -0.1073 -0.0797 -0.1804
16550W        W35404   3.724   5.388  13.605  0.1337 -0.2509 -0.0924
16551W        W35405  17.590   6.599  10.384  0.1126  0.0818 -0.1857
16552W        W35406   3.746   6.406  14.049 -0.0320 -0.1060 -0.1248
16553W        W35407  17.526   2.717   0.199  0.0545 -0.0186 -0.2030
16554W        W35408  14.855  11.202   1.506 -0.0350  0.1383  0.1415
16555W        W35409  13.201   1.323  15.134  0.0261  0.2703 -0.0126
16556W        W35410   5.057   6.766   1.633 -0.0013  0.2948 -0.1612
16557W        W35411  11.431  16.893  15.172  0.1181  0.1288 -0.1410
16558W        W35412  15.188   9.689   1.716 -0.0507 -0.3839 -0.0012
16559W        W35413   2.367   1.024   2.346  0.3680  0.0035 -0.1612
16560W        W35414   7.055   9.032   3.801  0.1005 -0.2278 -0.1852
16561W        W35415  12.112  18.200   1.609 -0.1252 -0.3841 -0.0701
16562W        W35416   8.182   8.022   2.870 -0.3129  0.1241  0.1155
16563W        W35417   9.749   3.233   4.502  0.1968  0.0388 -0.1281
16564W        W35418  18.500  13.241   4.235 -0.1880 -0.0714  0.2915
16565W        W35419   2.845   8.698  13.978  0.0104 -0.1255  0.3122
16566W        W35420  14.047  11.227   1.881  0.0893 -0.2378 -0.1055
16567W        W35421  13.599   3.293   4.355 -0.2073  0.3199  0.1330
16568W        W35422  12.262   2.427   3.867  0.0118 -0.0095  0.0227
16569W        W35423  18.207  10.712   1.150 -0.0491 -0.1015 -0.1387
16570W        W35424  10.386   7.488   2.380 -0.0812  0.1213 -0.2262
16571W        W35425  15.279  13.251   4.729 -0.4315  0.1381  0.2560
16572W        W35426  15.950   5.686   3.212  0.1029 -0.1483  0.2002
16573W        W35427  10.371   4.120   0.858 -0.1397 -0.1749  0.1036
16574W        W35428  14.155  18.085   1.172 -0.0031 -0.1011  0.2938
16575W        W35429   6.001  16.872   2.718 -0.4454  0.0708  0.0211
16576W        W35430  10.969   1.990   1.045  0.0064 -0.0143 -0.1582
16577W        W35431   2.331   3.592  13.868  0.2432  0.3576 -0.1483
16578W        W35432  17.278  14.506   1.607  0.0696 -0.0016  0.1208
16579W        W35433  10.262  15.346   0.961 -0.1781 -0.0006  0.1375
16580W        W35434  13.212  12.869   4.369  0.0967  0.1279 -0.1937
16581W        W35435   6.536  15.197   2.919 -0.1999  0.0664 -0.0835
16582W        W35436   7.888  12.182   0.123  0.1261 -0.1329 -0.2815
16583W        W35437   9.627  12.477  13.228 -0.1364  0.1192  0.3217
16584W        W35438   2.750   4.625   1.749 -0.1554  0.1870  0.1177
16585W        W35439  13.131   2.053  15.232  0.1069 -0.1294  0.0217
16586W        W35440  11.334  14.062   3.995 -0.0987 -0.0452  0.0716
16587W        W35441   8.584  16.169  12.017  0.1132  0.0694  0.2087
16588W        W35442  17.461   7.162   5.178  0.0644  0.3142  0.1055
16589W        W35443   9.667  14.718  14.850  0.0430 -0.0861  0.0829
16590W        W35444   5.575   4.932   1.565 -0.3456 -0.0465  0.4336
16591W        W35445  16.767   3.626   1.564 -0.1465 -0.0120 -0.3140
16592W        W35446   6.216   7.587  10.173 -0.0142  0.2105 -0.3238
16593W        W35447   9.346  13.081  13.814  0.0119  0.1186  0.1707
16594W        W35448   2.741  14.047  14.592  0.3843 -0.2533 -0.0911
16595W        W35449  15.923  15.762   1.845  0.0313 -0.2779 -0.1640
16596W        W35450   7.092   5.083  13.619  0.0484 -0.1433  0.2421
16597W        W35451   6.014   5.863   3.382  0.1197  0.0847 -0.0103
16598W        W35452  14.629   5.476  14.108 -0.0678 -0.0941  0.1107
16599W        W35453  11.185   8.939  12.163 -0.1030  0.0176  0.1017
16600W        W35454   1.198  14.140   1.060 -0.3961  0.3135 -0.2640
16601W        W35455   8.726  18.038  12.858 -0.1412  0.1483  0.0962
16602W        W35456  10.458  14.433   2.666  0.0361 -0.0697 -0.2620
16603W        W35457  17.191  16.730  13.265 -0.0200 -0.2090 -0.2561
16604W        W35458   3.707  17.983   2.177 -0.1474  0.2905 -0.1424
16605W        W35459   3.255   4.430   1.951  0.1933  0.0239 -0.0527
16606W        W35460   0.111  14.538  13.206  0.0060  0.1056 -0.0357
16607W        W35461  11.025  13.430  13.481 -0.1798 -0.1610 -0.0201
16608W        W35462   3.795   6.013  15.452  0.0973  0.1762 -0.2470
16609W        W35463  13.069   8.316   3.416  0.3111  0.4168  0.2147
16610W        W35464  17.364  18.547   1.201 -0.1703 -0.0053 -0.1581
16611W        W35465  13.721   0.158  11.528 -0.1269 -0.0658  0.0201
16612W        W35466  17.067  10.549  10.878 -0.1319 -0.1419 -0.0099
16613W        W35467  11.797  16.118   1.811 -0.1690  0.0724 -0.0737
16614W        W35468  14.442  14.181  12.906 -0.0148  0.1606 -0.0684
16615W        W35469   3.910  11.660  15.081  0.1225 -0.0024  0.0450
16616W        W35470   0.180  11.394   9.787  0.1371 -0.5648  0.0085
16617W        W35471   7.667   2.644  11.644  0.0117 -0.2504 -0.0747
16618W        W35472   0.320   1.762  13.232  0.2378  0.0595 -0.0915
16619W        W35473  13.984  17.200   1.932 -0.2422  0.0925 -0.1003
16620W        W35474  14.016  14.458  11.238 -0.0190 -0.2761 -0.0373
16621W        W35475   4.935   7.703   1.844  0.0095  0.0977  0.0323
16622W        W35476  14.159  10.424  12.956 -0.2105  0.1430  0.0249
16623W        W35477  12.246  17.023  11.542 -0.2128  0.1841  0.3360
16624W        W35478  13.261   6.666   6.174 -0.1141 -0.0651  0.1157
16625W        W35479   2.747   5.885  11.257 -0.3542 -0.3489 -0.0464
16626W        W35480  16.506   5.887   2.445  0.2713 -0.1884  0.3471
16627W        W35481   8.640  18.238  14.772  0.0541 -0.0145 -0.3173
16628W        W35482  11.910   3.290   0.392 -0.0684  0.2672  0.1880
16629W        W35483   3.171   8.868  13.081 -0.0446 -0.0178 -0.1211
16630W        W35484  13.457   5.785   5.157 -0.2967  0.2559  0.3396
16631W        W35485  13.350  16.554   0.609  0.0688  0.3669 -0.2091
16632W        W35486   9.393  14.338  13.489  0.3294 -0.0858 -0.2308
16633W        W35487  15.710   9.038  15.021  0.0767 -0.0158 -0.0295
16634W        W35488   1.503   7.433  13.537 -0.0017 -0.0675  0.2146
16635W        W35489   2.792  16.194  14.430 -0.2126  0.4210 -0.0795
16636W        W35490  13.208   0.555  13.550 -0.1023  0.1273  0.1520
16637W        W35491  12.189   2.477   0.789  0.0591  0.4868 -0.0100
16638W        W35492  13.594  16.136  11.398 -0.0615  0.1578 -0.0295
16639W        W35493  16.282   4.914   0.359 -0.2218  0.3224 -0.1471
16640W        W35494   9.141  18.223   2.544  0.3780  0.1768 -0.1951
16641W        W35495   4.830  18.426  11.232 -0.1492 -0.0520  0.0245
16642W        W35496  13.177   6.912   4.224  0.1688 -0.3500  0.0629
16643W        W35497  14.831   1.216  14.770  0.0784 -0.2086 -0.0498
16644W        W35498   1.581   3.459   3.780 -0.3015  0.2107  0.2071
16645W        W35499   1.858  17.901   4.250  0.0961  0.0265  0.3681
16646W        W35500   9.731   4.599  11.274 -0.1271  0.0967 -0.0872
16647W        W35501  10.982   6.942   1.110 -0.4841 -0.0357  0.3628
16648W        W35502  13.696   8.128  11.619 -0.4173 -0.0057 -0.1413
16649W        W35503  10.718   1.390  14.541  0.4619  0.0737  0.0619
16650W        W35504  13.137  11.147   1.550  0.0540 -0.0172 -0.1194
16651W        W35505   5.900  16.037  12.428  0.3580  0.1470  0.0605
16652W        W35506   2.372   8.720  14.623 -0.0080  0.0091 -0.1781
16653W        W35507  15.390   8.116  12.431  0.2753 -0.1424 -0.2749
16654W        W35508   7.235   2.741   0.574  0.0604  0.0766 -0.1413
16655W        W35509  10.344  11.852   4.422 -0.3024  0.1457 -0.2836
16656W        W35510   8.804   9.600   4.038 -0.0032  0.0176  0.2190
16657W        W35511   5.058  11.359  12.278  0.1583 -0.0582  0.2203
16658W        W35512   2.757  16.560   3.914 -0.2242 -0.2345 -0.0044
16659W        W35513   7.227  15.906  12.255 -0.1616 -0.0291  0.1977
16660W        W35514   0.205   3.604   1.279  0.3661  0.3081  0.2836
16661W        W35515   4.233   7.953  11.955  0.2776  0.1610 -0.0085
16662W        W35516  11.613   3.705   3.650 -0.3258  0.0711  0.1068
16663W        W35517   2.307   8.261   4.380  0.1455 -0.1205 -0.0476
16664W        W35518  15.324  14.736   0.007 -0.2637  0.1233 -0.1303
16665W        W35519  12.657  10.197  15.251 -0.0696 -0.0086  0.2454
16666W        W35520  18.298   7.709  14.115 -0.1585  0.0439  0.0420
16667W        W35521  11.174   9.418  12.164 -0.0120 -0.2073  0.0917
16668W        W35522  14.153   8.431   2.412 -0.1009 -0.1989 -0.0343
16669W        W35523   8.529   5.189   1.592 -0.2472 -0.1054  0.0684
16670W        W35524   3.057  15.493   1.644 -0.0452 -0.2661 -0.0247
16671W        W35525   9.257   3.565  14.465 -0.0934 -0.0069 -0.0976
16672W        W35526   2.351   3.479   0.341  0.0191 -0.0314  0.1494
16673W        W35527  15.290   0.863  11.689 -0.1637 -0.0143  0.2770
16674W        W35528   6.921  13.061   0.203 -0.0158 -0.0041  0.0568
16675W        W35529   4.966   4.647   2.195  0.0857  0.0255  0.1052
16676W        W35530  12.959   3.524  11.913 -0.0960 -0.1107 -0.2658
16677W        W35531  18.135   8.913   2.427  0.1605 -0.1578 -0.0055
16678W        W35532  11.419   6.341   5.661  0.1225 -0.0078 -0.1597
16679W        W35533   2.119   8.645   3.501  0.3395 -0.0365  0.0170
16680W        W35534  16.765   0.657  11.462  0.0245  0.1003  0.0223
16681W        W35535  10.613   9.280  14.413  0.0927 -0.0120  0.2014
16682W        W35536  13.596  16.707   3.258  0.1648  0.4043 -0.2968
16683W        W35537   3.942  12.659  10.956 -0.0922  0.0362  0.2140
16684W        W35538   8.566   0.960   1.060  0.1748  0.0777 -0.2607
16685W        W35539   2.508  15.040  13.861  0.0714 -0.2455 -0.2390
16686W        W35540   7.789  18.210   2.133  0.1417 -0.2719  0.1333
16687W        W35541  12.764  11.437  13.881 -0.0775  0.1440 -0.0019
16688W        W35542   5.900   7.928  13.576 -0.0568  0.2519 -0.2127
16689W        W35543   1.591  14.254  11.171 -0.0643  0.1693 -0.0936
16690W        W35544   3.653  13.163   2.698  0.2163 -0.4090  0.1597
16691W        W35545   6.122   2.487   3.224 -0.0755  0.0711  0.1122
16692W        W35546  18.111  15.194   4.070  0.2373 -0.0761 -0.0504
16693W        W35547   5.860  10.349  11.356 -0.0164  0.1490 -0.1727
16694W        W35548   2.858   2.717  11.842 -0.0620 -0.1757  0.1662
16695W        W35549   7.996   3.350  14.083  0.2998  0.1508 -0.0178
16696W        W35550   1.715   5.401  12.264  0.1888  0.0067  0.2268
16697W        W35551  10.599  14.712  13.928 -0.0034 -0.0418 -0.0757
16698W        W35552   3.699  15.555  13.720  0.0976  0.0657 -0.1537
16699W        W35553  10.201   1.411  14.414  0.0645 -0.3373  0.0224
16700W        W35554   4.869  14.803  11.757  0.0552  0.1895  0.1096
16701W        W35555  11.345  15.476  10.831  0.2870 -0.2453  0.0033
16702W        W35556   3.666  11.641  11.131  0.0183 -0.1455  0.0872
16703W        W35557  11.443  17.448   4.260  0.3074  0.0329 -0.2040
16704W        W35558  12.152   0.556   0.761  0.2260  0.0124 -0.0629
16705W        W35559   0.122  12.472  15.006  0.2917 -0.1686 -0.2568
16706W        W35560   6.372   9.344  14.224  0.0519  0.1230 -0.2050
16707W        W35561   0.279  17.281   0.875  0.0158  0.1218 -0.0927
16708W        W35562   5.014   6.971  14.082  0.1686  0.1641  0.3780
16709W        W35563  17.273  17.960   3.371 -0.2293  0.0101 -0.4437
16710W        W35564   6.910  10.611  11.121 -0.3446 -0.2036 -0.1032
16711W        W35565  12.057   7.674  14.980 -0.3474  0.2718  0.0182
16712W        W35566  17.112   3.424  13.134 -0.0695  0.0497 -0.0072
16713W        W35567  14.420   6.667   0.542 -0.1313  0.2308  0.1494
16714W        W35568  18.242  17.183   1.816 -0.2066  0.2614  0.1132
16715W        W35569   0.813  11.528  15.360  0.3045  0.0172 -0.0442
16716W        W35570  14.289   7.988  14.728 -0.0319  0.0724 -0.1983
16717W        W35571   0.315  12.599   2.166  0.0123 -0.4535  0.2515
16718W        W35572  17.701   5.552  11.364 -0.0288  0.0087 -0.2495
16719W        W35573   6.187   0.799  14.628 -0.1325  0.0430 -0.1904
16720W        W35574  10.070  14.706  12.394  0.0248  0.0942  0.2563
16721W        W35575  18.443  16.819  12.103 -0.0263 -0.0153 -0.0204
16722W        W35576   9.465   1.458   1.362  0.0338  0.0979 -0.0459
16723W        W35577  15.789   0.271   3.933 -0.0659 -0.0991  0.1145
16724W        W35578  15.251   6.699   2.017 -0.0706  0.0162  0.1329
16725W        W35579  11.420   5.216  14.119 -0.1533  0.3035 -0.2316
16726W        W35580   1.027  15.480  15.466 -0.0036  0.0670  0.0778
16727W        W35581  17.050   9.426  10.954  0.1931  0.0633 -0.0378
16728W        W35582   7.147  15.487   0.616 -0.0005  0.0387  0.5354
16729W        W35583   4.161   4.216   1.954  0.2627 -0.3078  0.1936
16730W        W35584  16.084  10.776   3.910 -0.2441 -0.0479  0.0220
16731W        W35585   5.559   8.043  14.437  0.0374  0.0280  0.2339
16732W        W35586  11.195   7.765   0.380 -0.1737 -0.1898  0.0807
16733W        W35587   8.258   1.779  11.317 -0.0983 -0.1323  0.1459
16734W        W35588   5.070   9.122   0.601 -0.0249  0.1812 -0.1457
16735W        W35589  11.735  13.309   3.941  0.0632 -0.1756  0.0664
16736W        W35590   5.499   0.741   0.552 -0.0129 -0.2559  0.1511
16737W        W35591   7.428  13.967   3.896  0.2748  0.2226  0.2425
16738W        W35592  12.837  12.792   3.909 -0.1429 -0.4124 -0.1677
16739W        W35593   8.834  12.414   0.993 -0.2083 -0.1861  0.0201
16740W        W35594   6.410  16.790  13.631 -0.0756  0.0606 -0.0001
16741W        W35595   0.150   6.157  15.151  0.1922  0.2579 -0.1173
16742W        W35596  14.684   4.513  11.382 -0.0539  0.1314  0.0633
16743W        W35597   9.667  15.171   3.142  0.1272  0.0718 -0.2413
16744W        W35598   2.025  10.707   1.659  0.2891  0.1521  0.2207
16745W        W35599   7.100  18.349  10.694  0.0880  0.1331 -0.1358
16746W        W35600  18.032  17.134  10.636  0.1126 -0.1464 -0.2090
16747W        W35601   1.967  11.000  12.630 -0.1739 -0.2987  0.1682
16748W        W35602  12.127  17.356  14.524  0.1034  0.1145 -0.0964
16749W        W35603  13.607   0.146   3.522  0.1269  0.1984  0.1685
16750W        W35604   1.114   3.814   2.834  0.1702  0.2724  0.2027
16751W        W35605   4.961  10.207  11.839  0.2434  0.1857 -0.1085
16752W        W35606   9.721   1.555  12.054 -0.3157 -0.0741  0.3158
16753W        W35607  17.574  10.903   2.680  0.1161  0.1244  0.1422
16754W        W35608   1.612  11.871  12.529  0.2396  0.3673  0.0059
16755W        W35609   1.389   0.542   4.156 -0.1292  0.0013  0.0070
16756W        W35610  17.158   0.626   9.917  0.1189  0.3081 -0.1588
16757W        W35611   9.818   5.266   0.147 -0.0519  0.1283  0.0493
16758W        W35612   8.608   5.318  10.973 -0.0096 -0.1585 -0.0779
16759W        W35613  17.283  14.503  12.147  0.0082  0.0613 -0.2196
16760W        W35614  17.191   3.386  11.531  0.0386  0.1213  0.0653
16761W        W35615  11.352   2.025  12.246 -0.0422 -0.0100 -0.3793
16762W        W35616   6.026  15.551  12.397 -0.1320  0.0783 -0.3006
16763W        W35617  17.074  11.627  14.203 -0.4655 -0.2038  0.0583
16764W        W35618  18.464  14.205  15.375  0.0615 -0.0758  0.1736
16765W        W35619   7.935   7.799  15.051  0.2792  0.3682  0.0217
16766W        W35620   9.419   1.132   0.953  0.0179  0.1896  0.3442
16767W        W35621   0.622  11.132   4.151 -0.0321  0.0950 -0.0007
16768W        W35622  17.595   0.337   1.383  0.0715 -0.0091  0.4665
16769W        W35623  10.310   6.460  14.256  0.0363 -0.0503 -0.1394
16770W        W35624   1.176  17.970   2.410  0.0184 -0.0243  0.1161
16771W        W35625  17.456   5.253   1.284 -0.2992  0.2145 -0.0718
16772W        W35626   9.245  10.649  15.010 -0.2175 -0.1025 -0.3168
16773W        W35627  16.310  11.865  13.618  0.0438 -0.0457  0.2258
16774W        W35628   4.428   1.895   4.426 -0.0403  0.2069  0.2451
16775W        W35629   7.489  12.438  11.664 -0.1587 -0.2792  0.1211
16776W        W35630  17.883  13.556   1.876  0.1463  0.1027  0.2010
16777W        W35631   7.403   8.243   4.517  0.1111  0.3814  0.0316
16778W        W35632   9.980  17.380  13.188  0.0016 -0.0695  0.0536
16779W        W35633   1.701   2.917   3.703 -0.1453 -0.2807  0.1689
16780W        W35634  17.731   7.658   2.312  0.0896 -0.1183 -0.1116
16781W        W35635   1.258  18.189   0.195 -0.1929 -0.1341  0.0433
16782W        W35636   0.061   9.829  11.943 -0.0529  0.0143 -0.0476
16783W        W35637  12.589   5.564  14.921 -0.0312 -0.3124  0.0516
16784W        W35638  16.160  10.882  12.254 -0.1661  0.1009  0.1216
16785W        W35639  12.972   4.052  13.649  0.1511 -0.3267  0.2100
16786W        W35640   6.249  12.491  14.837  0.2088 -0.0670 -0.0975
16787W        W35641   5.992  17.267  13.978  0.1649 -0.0283  0.1050
16788W        W35642  12.459  18.217   3.474  0.0878 -0.1163 -0.1268
16789W        W35643  11.676   0.094   2.359  0.1514  0.0762  0.2229
16790W        W35644  16.196   4.006   2.877 -0.3528 -0.4207 -0.1741
16791W        W35645   6.438  12.321  12.332  0.3030  0.1307  0.2219
16792W        W35646  11.937  16.050  11.413  0.1683  0.0988 -0.0123
16793W        W35647   4.913   0.912   1.989 -0.1919  0.2087 -0.2659
16794W        W35648  18.535   8.911  13.568 -0.1267  0.2579  0.0090
16795W        W35649   7.742   2.295  10.168 -0.2039  0.2928 -0.2396
16796W        W35650  10.045   2.558   0.075  0.0953 -0.2631 -0.1687
16797W        W35651   5.961  16.450  13.414 -0.0920 -0.2342  0.0355
16798W        W35652   1.870   8.805   0.373  0.0688  0.1497 -0.2374
16799W        W35653  11.434   6.924   0.840 -0.1217  0.0496 -0.0139
16800W        W35654   6.962   3.008   0.889 -0.3020  0.1875 -0.2201
16801W        W35655   1.034  11.381   2.866 -0.0435 -0.0774  0.1407
16802W        W35656  12.713  16.767  14.044  0.0794  0.2438 -0.2316
16803W        W35657   8.176   7.009   0.862 -0.0463  0.2541  0.1631
16804W        W35658  10.645   4.007   1.278 -0.0783  0.1181  0.0331
16805W        W35659  10.771  16.856   2.009 -0.0053  0.2106 -0.1422
16806W        W35660  16.494   1.668  13.912  0.0650 -0.3758  0.3013
16807W        W35661  14.975   8.060   1.104 -0.0985  0.0714  0.2254
16808W        W35662  10.512   8.915   1.669  0.0641 -0.0962  0.0247
16809W        W35663   2.684  17.094   3.428  0.0276 -0.2925 -0.0800
16810W        W35664  14.298   8.800   2.090 -0.0145 -0.0032 -0.1166
16811W        W35665  11.084   3.214   4.927 -0.1375 -0.2064  0.1083
16812W        W35666   6.574   2.782  13.028 -0.0776 -0.0423  0.1110
16813W        W35667   6.359  16.026   1.646 -0.0026 -0.2925  0.1008
16814W        W35668  16.515  13.127   3.085  0.1305 -0.0098  0.0771
16815W        W35669  17.518  17.057  13.918  0.3402  0.2312 -0.1513
16816W        W35670  13.493   9.636  15.114  0.1651  0.1218  0.1364
16817W        W35671   6.002   5.224  12.236 -0.2682  0.0342 -0.2650
16818W        W35672  10.657   0.305   3.226 -0.3487  0.1689  0.1733
16819W        W35673  12.933   0.587   2.202 -0.3148 -0.0437  0.0874
16820W        W35674   7.114   2.797   0.101  0.0424  0.2346 -0.0754
16821W        W35675   8.697  16.396  13.952  0.0362  0.0543  0.0510
16822W        W35676   6.657   8.643   1.900  0.2515  0.3219  0.1708
16823W        W35677   4.038  10.518  15.261  0.0677  0.1419  0.0714
16824W        W35678   8.022  17.853  12.986 -0.1137  0.0661  0.1072
16825W        W35679  15.273  12.568   1.882  0.2104 -0.0035 -0.0855
16826W        W35680  13.792   3.375  14.639  0.1153 -0.2831 -0.0326
16827W        W35681   1.574  17.608   2.457  0.1073  0.1394 -0.0693
16828W        W35682  10.305  17.299  11.295  0.2910  0.0618 -0.2476
16829W        W35683   6.652  12.568   3.506 -0.2750 -0.2714 -0.0068
16830W        W35684  10.934  10.315   4.383 -0.5860 -0.1327 -0.0815
16831W        W35685  12.257   9.219  14.096  0.0934  0.4940  0.0467
16832W        W35686   3.438  14.719   3.950 -0.1465 -0.1695  0.1394
16833W        W35687  12.762   1.765  11.221  0.0976 -0.0169  0.0650
16834W        W35688  13.199  18.530  12.245  0.2022 -0.1676 -0.0205
16835W        W35689   5.148   0.397  14.089 -0.2964  0.2553  0.0587
16836W        W35690   4.480   9.698  12.374  0.1412 -0.0458  0.2507
16837W        W35691  13.290  16.799  13.295 -0.3213  0.0678 -0.2099
16838W        W35692   8.896   1.632   2.790 -0.1689  0.5076  0.1600
16839W        W35693  16.993  15.823   4.608  0.1283 -0.1572  0.2221
16840W        W35694   7.694   1.496  14.108 -0.1041  0.0399 -0.0979
16841W        W35695  13.017   9.974  11.623 -0.1855 -0.0866 -0.2639
16842W        W35696  16.295   9.464  14.405  0.0427  0.3157 -0.0163
16843W        W35697   7.225   4.079  11.336  0.1679 -0.2352 -0.0749
16844W        W35698  14.155  16.135  12.190  0.3974  0.0375 -0.1410
16845W        W35699  13.519   1.090   3.876 -0.0311  0.0862  0.3129
16846W        W35700  12.597   4.883   4.872 -0.1487  0.3508  0.1778
16847W        W35701   5.334   2.090   2.707  0.1124  0.2206 -0.1832
16848W        W35702   1.271  11.570  14.648 -0.0111  0.3675 -0.3160
16849W        W35703   7.603   3.244   2.790 -0.0553  0.0469  0.2518
16850W        W35704   6.735   7.535  14.750 -0.2884 -0.0545 -0.1023
16851W        W35705   3.438   7.072   4.437  0.1282 -0.1283  0.0898
16852W        W35706   5.556  17.094   3.401  0.2017  0.1890  0.1235
16853W        W35707   2.274  16.561   2.769  0.0134  0.0443 -0.2174
16854W        W35708   1.789  18.511  12.756 -0.2987  0.3916  0.1445
16855W        W35709   7.121  17.958   3.386 -0.1168 -0.3825 -0.1661
16856W        W35710  13.544   3.438   1.149 -0.0638  0.0803 -0.2633
16857W        W35711   4.701   4.900  13.560 -0.0046  0.1377 -0.1398
16858W        W35712  12.191   6.537  14.121  0.0664  0.0959  0.1301
16859W        W35713   7.435   0.565  11.648 -0.0106  0.1411  0.2153
16860W        W35714   4.461   8.779   5.155  0.1921 -0.1480 -0.1327
16861W        W35715  16.631  17.957   4.663 -0.0769  0.0272  0.0113
16862W        W35716  16.930   0.564   0.001  0.2536  0.0658 -0.0622
16863W        W35717   8.516   2.747   2.048  0.0667  0.1361  0.2378
16864W        W35718   7.514  17.400  11.506 -0.1163 -0.2217  0.0506
16865W        W35719  12.233   6.788  12.240  0.4498 -0.0937  0.1207
16866W        W35720   9.834  12.682   1.078 -0.0538 -0.1531 -0.1842
16867W        W35721  18.251   7.352   1.607 -0.1786  0.0461 -0.0638
16868W        W35722   4.212   6.556   2.169  0.1058  0.0591 -0.2222
16869W        W35723  14.151   3.149  13.287 -0.0234 -0.1976 -0.0855
16870W        W35724   5.067   0.919   4.198  0.0708  0.0029  0.1901
16871W        W35725  10.192   1.655   1.840  0.0520 -0.1081  0.1840
16872W        W35726  18.354  15.183  11.404 -0.1005  0.0308 -0.1520
16873W        W35727  15.965  17.038  14.128  0.1523 -0.0213 -0.2309
16874W        W35728  11.423  16.019   4.240 -0.1094  0.2205 -0.0959
16875W        W35729   0.039  18.517   1.657 -0.0182  0.2083 -0.0368
16876W        W35730  15.581  12.779   1.303 -0.0765  0.0272 -0.1704
16877W        W35731   3.246   3.272   2.330  0.2241  0.0369 -0.1545
16878W        W35732   2.342  15.778  11.620  0.0749 -0.2514 -0.2904
16879W        W35733   3.523   1.281   1.861 -0.1528  0.0869  0.1574
16880W        W35734   2.963   6.911   2.536 -0.0315  0.0303  0.0269
16881W        W35735  17.010   2.426  14.422  0.2067 -0.0236 -0.4406
16882W        W35736  12.609  10.079  13.604 -0.2371 -0.1920  0.0682
16883W        W35737  15.745   9.845  11.892 -0.4776 -0.2746  0.2013
16884W        W35738   9.141  17.726  12.783  0.0994  0.3378  0.1167
16885W        W35739   7.254   1.819  12.878 -0.1228  0.0022  0.3431
16886W        W35740   2.237  11.468  11.367  0.0145 -0.1792  0.1766
16887W        W35741   2.525  11.543  14.954  0.1216  0.3867 -0.2016
16888W        W35742  15.636   0.567   0.600  0.1215  0.0467 -0.0393
16889W        W35743  14.029   4.777  15.191  0.1808 -0.0426 -0.4780
16890W        W35744  17.980  17.696   3.956 -0.1424  0.2004  0.0456
16891W        W35745  13.396   0.890  12.123 -0.0001 -0.1373  0.0362
16892W        W35746   5.246   8.439   1.493  0.0592 -0.1945  0.1582
16893W        W35747   1.139   5.497  11.251 -0.2816  0.2470  0.2334
16894W        W35748   0.473  13.205   2.375  0.0529  0.2571  0.4282
16895W        W35749   2.915  12.249  15.455 -0.4325  0.2342 -0.0318
16896W        W35750  13.572  13.476  15.398  0.3659  0.2520 -0.1349
16897W        W35751  13.719  16.850  14.848 -0.0107  0.0414  0.4097
16898W        W35752   3.644  12.388  12.027 -0.0954 -0.2103  0.2015
16899W        W35753   7.292   0.806  14.005 -0.2577  0.1076  0.1923
16900W        W35754  12.421  16.214   0.959  0.2979 -0.5232  0.1776
16901W        W35755  14.873  13.158   0.917 -0.0255  0.0852  0.1508
16902W        W35756  13.140   7.360  11.532 -0.0809  0.0860 -0.1428
16903W        W35757   9.685   9.088   1.472  0.0296 -0.2235  0.0195
16904W        W35758  15.971  12.576   4.366  0.0401  0.0228 -0.0292
16905W        W35759  12.544   2.967   1.367  0.2732 -0.2223  0.2363
16906W        W35760   5.979  15.931  14.210 -0.0649  0.0344  0.4943
16907W        W35761  16.818  14.065  14.022 -0.1451 -0.1124 -0.0263
16908W        W35762   9.887  12.066  12.132  0.2063  0.2232  0.3142
16909W        W35763   4.142   0.997   0.428  0.1685 -0.0703 -0.5311
16910W        W35764  15.196   9.503   0.235 -0.0421 -0.1623 -0.0790
16911W        W35765  10.111   8.095   0.206  0.1362  0.3178  0.1395
16912W        W35766   0.186   8.316  15.180 -0.4976  0.0258 -0.0626
16913W        W35767   7.873  11.675   2.366 -0.1901  0.0321 -0.1195
16914W        W35768  14.645  17.910   0.421 -0.5242 -0.4215  0.1690
16915W        W35769   1.578   4.615  13.017  0.2615 -0.0016 -0.0185
16916W        W35770   8.610  17.466  15.231 -0.1753 -0.3053  0.1366
16917W        W35771   1.424  16.001   1.922  0.0465 -0.1536  0.1701
16918W        W35772   2.664   7.691   0.312 -0.1213 -0.4039 -0.0256
16919W        W35773   3.998  13.360  14.817 -0.0431  0.0798 -0.1692
16920W        W35774  12.655  16.806   0.279 -0.0236 -0.0171 -0.3241
16921W        W35775   8.470   2.294  13.406 -0.3098 -0.0374  0.1664
16922W        W35776   9.480  16.434   3.171 -0.3610 -0.0402 -0.0342
16923W        W35777   2.534  12.804  14.308 -0.0207 -0.1925 -0.0593
16924W        W35778  13.272   6.070  12.045 -0.2289  0.4123  0.0522
16925W        W35779  10.474   5.342   0.186 -0.1732  0.4288 -0.0770
16926W        W35780   8.478   7.501   2.906  0.1841 -0.0898 -0.2739
16927W        W35781   7.180  13.016   0.935  0.0226  0.0552 -0.0638
16928W        W35782  15.653   4.953   0.955 -0.2388  0.1738  0.1461
16929W        W35783  16.035  16.799   5.049  0.1583 -0.2039  0.0837
16930W        W35784  12.825   6.209   2.138  0.1157 -0.2442 -0.1400
16931W        W35785  15.800  17.379   0.621  0.0068 -0.2908  0.1148
16932W        W35786  11.392   6.673  13.425 -0.3065  0.0392 -0.1573
16933W        W35787  11.546   1.161   4.384  0.1205 -0.0586 -0.1855
16934W        W35788  12.058   6.760   2.105  0.0157  0.0726 -0.0986
16935W        W35789   9.165  15.175  15.243  0.1890 -0.1267 -0.1753
16936W        W35790   9.658   1.953  12.327 -0.0732  0.0088  0.1400
16937W        W35791   9.103   1.771  13.902 -0.1179 -0.0738 -0.0043
16938W        W35792   4.606   8.281   2.172  0.0507 -0.0005  0.2286
16939W        W35793   6.496  15.689   3.438  0.2374  0.1846  0.1830
16940W        W35794   1.186   9.227  14.256  0.3573  0.0852  0.0987
16941W        W35795  11.892  15.869  13.009  0.2894  0.1372 -0.2703
16942W        W35796   9.435  10.392   4.206  0.0516  0.2156 -0.2416
16943W        W35797   3.170  16.337   3.061 -0.0535  0.0191  0.0218
16944W        W35798   9.833   4.424   3.607 -0.2416  0.0561  0.0027
16945W        W35799   1.763  15.958  11.578  0.0914  0.0978  0.5619
16946W        W35800   3.650  10.997   3.314  0.3509  0.0505 -0.3035
16947W        W35801   7.549   7.323   4.323  0.0056 -0.1561 -0.1923
16948W        W35802   5.110  18.456   2.546 -0.1621 -0.2559  0.2695
16949W        W35803  16.851   7.253   0.242  0.2839 -0.1313  0.0265
16950W        W35804  15.853   1.274  11.875  0.0559  0.0530 -0.0178
16951W        W35805  11.139  13.997  13.577  0.4159 -0.0424  0.2536
16952W        W35806   7.071   3.481   0.714  0.2285 -0.1118 -0.0216
16953W        W35807  13.442   6.995  10.324 -0.1424  0.2736  0.0405
16954W        W35808   6.965   2.773  14.601 -0.2335  0.1761 -0.1152
16955W        W35809   2.740   6.334  10.731 -0.0476  0.0160  0.3532
16956W        W35810   4.215  10.728  13.328  0.3703 -0.0202 -0.0292
16957W        W35811   1.086  12.475  13.727  0.0049 -0.2381 -0.0803
16958W        W35812  14.737  11.882   4.009  0.1483 -0.2967 -0.0757
16959W        W35813   0.251   7.050  12.292 -0.0986 -0.1463  0.2245
16960W        W35814   0.926   8.934  10.046 -0.1873 -0.1561  0.1952
16961W        W35815  15.892  11.249  12.786  0.0313 -0.0520 -0.0767
16962W        W35816   5.190  13.302   1.344  0.1121 -0.1301  0.1792
16963W        W35817   5.657  10.049   2.270 -0.0751 -0.1203  0.2960
16964W        W35818  17.930  17.813   2.425 -0.1239 -0.1224 -0.2186
16965W        W35819  10.153   2.631   3.335  0.2471 -0.2438  0.0771
16966W        W35820   9.857   3.929  13.369  0.1801 -0.1605  0.1754
16967W        W35821   8.811   3.663  12.133 -0.1772  0.2335 -0.3408
16968W        W35822  10.178  16.006  12.684  0.2353  0.3124  0.2027
16969W        W35823  10.206   6.528  11.343 -0.1052  0.2354  0.0378
16970W        W35824   6.935   7.030  13.353  0.0113  0.1102 -0.1701
16971W        W35825  12.354   2.173   3.083  0.0064 -0.0239 -0.0404
16972W        W35826  16.564   2.397   0.070  0.1614  0.0952  0.1722
16973W        W35827  18.249  11.600   9.950 -0.1346  0.2883  0.0755
16974W        W35828  15.793   4.256  11.520 -0.1479  0.4439  0.0500
16975W        W35829   7.715  17.303  14.347 -0.2116 -0.2804 -0.0079
16976W        W35830   6.880  10.457   2.381  0.3671  0.0944  0.2387
16977W        W35831   4.453   5.417  11.232 -0.2764 -0.1201  0.3525
16978W        W35832  11.957   6.061  14.169 -0.0422  0.1525  0.3998
16979W        W35833   4.722   3.845  13.181  0.4818 -0.0174  0.1739
16980W        W35834   5.858   1.222   3.994 -0.0251  0.2361  0.2727
16981W        W35835  17.712   0.978   0.248 -0.0909 -0.0181  0.1126
16982W        W35836   0.580  14.793  11.896 -0.1670  0.0933 -0.4401
16983W        W35837   1.784  12.962  13.253  0.1579 -0.1060  0.0966
16984W        W35838   7.455  15.909   0.524 -0.3470  0.1144 -0.0107
16985W        W35839   3.602   0.347  10.725  0.3891 -0.0689 -0.4553
16986W        W35840   2.324   8.140   3.348  0.0333 -0.2455  0.3911
16987W        W35841   0.438  14.939  13.285 -0.1174  0.0508 -0.0273
16988W        W35842   6.187  18.202  12.507  0.1966 -0.0986 -0.2385
16989W        W35843   6.456  18.169   1.495 -0.1258 -0.2858 -0.1376
16990W        W35844   6.117  16.455  13.894 -0.0297  0.0956 -0.3046
16991W        W35845   6.239  14.071   3.424  0.2085 -0.0417 -0.0015
16992W        W35846  13.244   7.205   3.515  0.1638 -0.0683  0.1856
16993W        W35847   2.693   9.266  13.781  0.1212  0.1802 -0.1725
16994W        W35848  12.596   7.952   2.063 -0.2250  0.1012  0.0749
16995W        W35849  16.990   9.760   4.017  0.2319 -0.1687  0.0769
16996W        W35850  13.217  17.456  11.543  0.0747 -0.0114 -0.2580
16997W        W35851  11.044   8.291   1.080 -0.3857  0.0372  0.3055
16998W        W35852   9.412  12.651   3.866 -0.1140  0.1676 -0.1305
16999W        W35853  15.142   6.639  14.440  0.1130 -0.3418 -0.1358
17000W        W35854   1.306   0.631  13.915  0.0435 -0.2081 -0.0627
17001W        W35855   5.863   4.824  14.730 -0.2276  0.0071 -0.4776
17002W        W35856   7.166  14.329  13.001  0.1660  0.0353  0.0723
17003W        W35857  14.710   4.749   0.120  0.1849 -0.0212  0.0385
17004W        W35858  14.108   1.755  14.741 -0.2236  0.2795 -0.1276
17005W        W35859  13.845   0.531   2.763 -0.1040 -0.0484 -0.0758
17006W        W35860   6.920   7.109  15.074  0.1972  0.0078  0.2322
17007W        W35861   3.496   5.673  13.959  0.1696 -0.1702 -0.1972
17008W        W35862  16.558   9.800   3.508 -0.1771  0.0223  0.3013
17009W        W35863   1.724   6.177   0.335 -0.3831 -0.0286 -0.0361
17010W        W35864   1.074   7.679   1.485 -0.0922 -0.1931 -0.1731
17011W        W35865   4.366  12.550  12.365 -0.1229 -0.0362  0.0085
17012W        W35866  15.356  11.536   2.821 -0.0891 -0.0457 -0.1213
17013W        W35867  11.459  13.538   2.095  0.1470  0.4203 -0.4487
17014W        W35868   5.332   3.223  13.506  0.0144  0.0577 -0.1217
17015W        W35869  11.552  17.529  14.691  0.2406 -0.3526  0.1310
17016W        W35870  12.792   3.124  11.685 -0.0903  0.4089 -0.0654
17017W        W35871   0.842   5.233   2.812 -0.2373  0.3414 -0.0492
17018W        W35872  11.130  14.426  12.958  0.5027 -0.0792 -0.0211
17019W        W35873  17.448   3.788   4.499 -0.0608  0.1183  0.1620
17020W        W35874  18.213   5.065   2.584  0.0774  0.1572  0.0885
17021W        W35875  15.869   1.331   3.396  0.0807 -0.2388 -0.1456
17022W        W35876   1.511  12.852  13.805  0.0506  0.2876  0.0969
17023W        W35877  13.999   8.121  13.399 -0.2332 -0.0965 -0.0364
17024W        W35878  17.902   3.788   4.764 -0.0561 -0.2895 -0.1965
17025W        W35879   5.262   6.654   2.074 -0.0809  0.0284 -0.0857
17026W        W35880  11.168  17.689  15.128  0.3173  0.1923 -0.0112
17027W        W35881   9.343   8.075   1.972 -0.1323  0.4108  0.2124
17028W        W35882   4.622   5.947  15.260 -0.0305 -0.0442 -0.3140
17029W        W35883  18.145  15.215  14.502 -0.0324 -0.0180  0.1881
17030W        W35884  17.628   0.324  14.850  0.1923 -0.4488 -0.0784
17031W        W35885   7.509   3.164   4.728 -0.0309  0.1050 -0.0544
17032W        W35886   3.376  16.763  14.069 -0.2779 -0.0196  0.1602
17033W        W35887   5.830  18.068  12.181 -0.0037 -0.0093 -0.0285
17034W        W35888   8.171  16.129  15.269  0.1694 -0.1529  0.2192
17035W        W35889   0.928   1.576  11.231 -0.0596  0.0335  0.1866
17036W        W35890  15.967  10.516  11.228  0.1588  0.0484  0.1407
17037W        W35891  18.544   4.201   0.758 -0.0411  0.0475  0.1429
17038W        W35892   8.940  14.263   4.187  0.0577 -0.1229 -0.0225
17039W        W35893  12.836  13.667   4.007 -0.0493 -0.0817 -0.1103
17040W        W35894   2.378   9.169   4.378  0.2063  0.1288  0.1156
17041W        W35895   6.964   4.951  14.088 -0.0375 -0.0974  0.2132
17042W        W35896  16.372  16.865  12.924 -0.0881 -0.0087 -0.3298
17043W        W35897   6.369   9.427  11.056 -0.0366 -0.1744 -0.1243
17044W        W35898  17.135  15.265   0.636  0.1732 -0.1298  0.1093
17045W        W35899  18.221  11.745   1.119 -0.0744  0.0626 -0.0340
17046W        W35900  12.581  12.320   1.434 -0.2998 -0.2827 -0.2512
17047W        W35901   5.922   8.140  15.176  0.1806  0.0039 -0.0262
17048W        W35902  16.693  15.319   3.767  0.1084  0.1953 -0.0580
17049W        W35903   7.184  17.600   4.413 -0.1385 -0.1801 -0.0202
17050W        W35904   1.622   6.004   4.080 -0.0032 -0.1283 -0.0654
17051W        W35905  10.077   3.154   0.959 -0.0479 -0.0896 -0.0652
17052W        W35906  10.220   5.952  12.248 -0.4113  0.3897 -0.0109
17053W        W35907  13.195  14.897   1.675  0.0045  0.0209  0.1231
17054W        W35908  12.476  14.629  10.407 -0.1415 -0.0706  0.0809
17055W        W35909  11.114   1.565   0.034 -0.2817  0.0016 -0.0189
17056W        W35910   8.882   9.934   4.743 -0.1578 -0.0460 -0.0113
17057W        W35911   2.027  16.943   3.992 -0.2015  0.0060  0.2055
17058W        W35912  12.784   7.007  14.796  0.2162 -0.1993  0.2459
17059W        W35913   0.638   3.727   0.173  0.1973 -0.0552  0.0874
17060W        W35914  16.191   0.399   2.127  0.1494 -0.1342 -0.1820
17061W        W35915  16.152   0.751  14.223 -0.2418  0.0910  0.2556
17062W        W35916   8.395  15.549  11.359  0.2766  0.0325  0.3686
17063W        W35917   6.962   4.575   4.224  0.1304 -0.2977  0.0054
17064W        W35918  11.686  14.536  14.978  0.1118  0.3277 -0.0327
17065W        W35919   9.031   7.933   1.163  0.2741 -0.0715  0.1509
17066W        W35920   2.351   5.486   3.847  0.2276  0.2521 -0.0531
17067W        W35921   2.588   0.296   0.141  0.0137 -0.0640  0.1322
17068W        W35922   3.058   7.074  12.902 -0.0204  0.3555  0.1856
17069W        W35923   6.292   9.093   1.109  0.4398 -0.1597 -0.0548
17070W        W35924  16.104  10.748   0.567 -0.0777 -0.2076 -0.3185
17071W        W35925   9.246  18.043  10.422 -0.1959  0.1217  0.0904
17072W        W35926  15.937  14.015   0.553 -0.1907 -0.1632  0.1295
17073W        W35927  17.686  11.607   4.187  0.1973 -0.2416  0.2192
17074W        W35928   3.666   5.721   0.450  0.0377 -0.4692 -0.0674
17075W        W35929   4.856   0.871  12.147 -0.0290  0.0167 -0.1689
17076W        W35930   0.781   4.985  12.203 -0.2886 -0.0861  0.0055
17077W        W35931   0.943   6.023  10.864 -0.1594 -0.2320 -0.2652
17078W        W35932  17.102  13.216   4.373  0.1247 -0.0011 -0.1886
17079W        W35933   0.221   5.459   1.061 -0.0404 -0.0741 -0.0091
17080W        W35934  12.094   0.814  14.810  0.1278  0.1755  0.0493
17081W        W35935  15.932  16.431   0.305  0.1547 -0.0242 -0.0680
17082W        W35936   9.845  18.304  14.624 -0.0361  0.2115 -0.2306
17083W        W35937  16.169   2.495   4.744 -0.1254  0.0444 -0.0313
17084W        W35938   8.230   9.050   1.404 -0.4271  0.0375 -0.0361
17085W        W35939  10.049   4.794   4.454  0.0255  0.0123  0.1829
17086W        W35940   3.996  12.394  14.196  0.0454  0.1914 -0.1209
17087W        W35941  15.046   0.856   3.780 -0.2452  0.0931 -0.0968
17088W        W35942   8.382  16.504  14.356  0.4903  0.0642 -0.4129
17089W        W35943   1.594   8.222  15.097 -0.1031  0.1996  0.1749
17090W        W35944   3.596   3.589  11.113  0.1043  0.3333  0.3000
17091W        W35945   2.699   5.317   5.163  0.0075  0.0765  0.3778
17092W        W35946  11.799   9.269   4.461 -0.0003  0.1936 -0.2490
17093W        W35947   5.795  10.796  13.577 -0.1563 -0.0079  0.2778
17094W        W35948   8.272  18.106   2.024 -0.0905  0.0527  0.1751
17095W        W35949  15.393  18.139  11.090  0.1312  0.2860 -0.0331
17096W        W35950   3.713  15.485  11.529 -0.2186 -0.0962  0.0057
17097W        W35951   0.728   2.591   0.521  0.1395 -0.0247 -0.2521
17098W        W35952  16.198  11.311   0.454 -0.2160  0.0914 -0.2549
17099W        W35953  16.280   1.323  12.609  0.0708  0.5157 -0.1751
17100W        W35954  14.480  18.341  14.176  0.2632 -0.4810 -0.5006
17101W        W35955   0.748   1.571   2.953 -0.3647  0.0246  0.1448
17102W        W35956  14.241   9.755  12.150  0.0116 -0.0582  0.2266
17103W        W35957   2.466   1.276   1.044 -0.2384  0.1378  0.1175
17104W        W35958   3.716  15.963  15.395 -0.0843 -0.1592 -0.1004
17105W        W35959  14.623   4.560  14.061 -0.0815 -0.2087 -0.0801
17106W        W35960   9.932  13.886  12.798  0.0531  0.3413 -0.0493
17107W        W35961   9.439  10.833   2.014  0.2107  0.2103  0.1096
17108W        W35962   5.917  11.592  12.564  0.3679  0.1085  0.2198
17109W        W35963   1.702  14.132   9.497  0.1181 -0.0645 -0.0402
17110W        W35964   5.993   6.617  14.276 -0.0970  0.2904  0.3513
17111W        W35965  15.966  13.179  11.750  0.0134  0.1835 -0.0534
17112W        W35966  15.206   4.972  12.082  0.1512  0.0577  0.0433
17113W        W35967   3.912   2.025   4.237 -0.1770 -0.0333  0.2482
17114W        W35968  10.420   4.535  12.180 -0.0466 -0.2931  0.1483
17115W        W35969  13.684   2.052  14.934 -0.1467 -0.0645  0.1161
17116W        W35970   4.919  15.430  13.290 -0.1933  0.0270 -0.0679
17117W        W35971  11.502  13.302  12.459 -0.1195  0.2711 -0.0727
17118W        W35972  18.532   1.800   2.572  0.1930 -0.1690 -0.4060
17119W        W35973  12.428  13.227  12.632 -0.0356  0.1026  0.1771
17120W        W35974  13.316  10.762  10.891  0.1723 -0.0598 -0.2204
17121W        W35975  17.525   2.544  12.142  0.0377 -0.3119  0.2094
17122W        W35976  16.028   9.522   3.431  0.1702  0.4173  0.2366
17123W        W35977   9.270  15.238   4.353 -0.3678 -0.1397  0.0393
17124W        W35978  10.556  10.727   1.873  0.0038  0.2434  0.1719
17125W        W35979  13.240   7.759   0.487 -0.1076 -0.5429 -0.0298
17126W        W35980  10.830   6.457  15.252  0.4803  0.1256  0.0232
17127W        W35981   6.467  12.238   1.346 -0.1066 -0.0692  0.3756
17128W        W35982  10.362   3.139   1.559 -0.0230  0.0003 -0.0965
17129W        W35983  18.549  16.567   2.612  0.0483  0.1571 -0.2825
17130W        W35984   6.037  10.366  12.286 -0.0764 -0.1597  0.1175
17131W        W35985  16.549   3.409  14.316  0.2216  0.1284 -0.1540
17132W        W35986  18.112  10.602   4.875 -0.3319  0.2882  0.1789
17133W        W35987   3.561   7.443  13.646  0.0497  0.0378 -0.2122
17134W        W35988  10.838  18.097  13.850  0.2443  0.0399  0.0681
17135W        W35989   5.225   9.896   3.935  0.0652 -0.2113  0.4090
17136W        W35990   8.372  13.920  11.743  0.1270 -0.0103  0.1725
17137W        W35991   9.882  13.530  15.086  0.0977  0.1166  0.3661
17138W        W35992   3.311   8.141  12.487  0.4512 -0.0726 -0.2954
17139W        W35993  10.836  11.543  11.889  0.3403  0.0659 -0.3691
17140W        W35994   0.614   9.206   1.570 -0.0965 -0.2213 -0.0610
17141W        W35995  16.545  11.059   1.150  0.4813 -0.1860  0.2687
17142W        W35996  18.180   3.868   4.352  0.0256  0.1983 -0.1595
17143W        W35997  13.120   2.767  13.540 -0.5048 -0.1516 -0.0647
17144W        W35998  13.874   3.275  11.720  0.0985  0.1282 -0.1711
17145W        W35999   1.986   3.153  12.084 -0.0360 -0.1134  0.2104
17146W        W36000   4.117   6.643   0.668  0.2141  0.2866  0.0805
17147W        W36001  13.237  14.716  15.235 -0.2897 -0.0701 -0.0369
17148W        W36002   1.063  10.988   0.022 -0.1441  0.0211 -0.0049
17149W        W36003   6.123  13.904  15.101  0.1392  0.1579  0.0621
17150W        W36004  16.936   2.023   4.085  0.0559  0.0802  0.1954
17151W        W36005   0.885   2.757  11.978 -0.1679 -0.1215  0.1705
17152W        W36006   3.526   4.314  10.936 -0.0284  0.3441 -0.1929
17153W        W36007  14.505  17.932   1.497 -0.0262 -0.0676  0.1496
17154W        W36008  15.474  12.478   4.272  0.1010  0.1238 -0.3320
17155W        W36009  18.561   5.468  13.993 -0.2955  0.0965 -0.1111
17156W        W36010  13.346   4.958   2.774  0.3925  0.0937  0.2514
17157W        W36011   6.499   0.606   0.354 -0.0827 -0.0613  0.2686
17158W        W36012  15.076  18.384   2.731 -0.3506 -0.1178  0.4285
17159W        W36013   9.855  13.360   3.117  0.3320  0.2272 -0.0953
17160W        W36014   6.399   2.546   1.473  0.2191 -0.1906  0.1529
17161W        W36015  11.885  13.985  12.534 -0.2937  0.2690  0.0052
17162W        W36016  13.272  13.353   0.762 -0.2314  0.2755  0.1918
17163W        W36017   3.246   2.978  14.851  0.0187  0.1505  0.0889
17164W        W36018   6.385   9.132  11.794  0.0081  0.1935  0.2475
17165W        W36019   0.988  14.596   4.017  0.0994 -0.1212 -0.0913
17166W        W36020   4.124   3.282   5.294 -0.1103 -0.0762  0.3405
17167W        W36021   5.266   1.210   0.714  0.0500  0.1934 -0.0044
17168W        W36022   2.260  16.123   4.169  0.1252 -0.2141  0.1245
17169W        W36023  16.480  12.588  13.293  0.1120  0.1876 -0.3962
17170W        W36024  13.644  16.419   1.028 -0.2979  0.1536 -0.0239
17171W        W36025  13.946  12.489   3.738 -0.0238 -0.1730 -0.2495
17172W        W36026  10.632  15.667   4.985  0.0661  0.0478  0.0925
17173W        W36027  14.815   0.845   0.249 -0.0148 -0.2963  0.0773
17174W        W36028  16.336  10.245   5.311  0.1818 -0.1690  0.1118
17175W        W36029   9.237  15.271   1.948  0.0344  0.1433 -0.0548
17176W        W36030   6.057   0.599  13.985  0.2929 -0.2737 -0.2696
17177W        W36031  13.776  12.809   0.997 -0.0251 -0.0224 -0.0238
17178W        W36032  11.091  13.956  12.017 -0.2232 -0.0351 -0.0974
17179W        W36033   7.671  14.765   1.083 -0.0356  0.1258 -0.0016
17180W        W36034  16.853   9.116  11.995  0.1584  0.0788  0.1253
17181W        W36035   8.630   9.668  12.845 -0.1552 -0.0199  0.0328
17182W        W36036   6.119  17.180  12.205  0.0629 -0.0071 -0.4384
17183W        W36037   6.818  16.222   4.484  0.3283  0.3015  0.1060
17184W        W36038   8.335  15.053  15.291  0.0103 -0.1414  0.0013
17185W        W36039  13.454  11.812   2.566 -0.1341 -0.0238 -0.0657
17186W        W36040  12.627   2.437  12.736 -0.1107  0.1751 -0.2462
17187W        W36041   5.798  13.388  13.192  0.2181  0.0609  0.1057
17188W        W36042  17.239  17.851   9.890  0.0853 -0.0770  0.1372
17189W        W36043   4.657   9.156  11.510 -0.2656 -0.0172 -0.2260
17190W        W36044   6.305  15.903  13.770 -0.0443  0.0763  0.0845
17191W        W36045   5.709   3.608   1.242  0.2682 -0.1725 -0.2683
17192W        W36046   2.397  14.707  13.476  0.0441 -0.0651  0.0608
17193W        W36047  15.095  15.608  14.683 -0.0185  0.1396  0.1166
17194W        W36048   1.594  10.845   2.708 -0.1974 -0.0845 -0.0309
17195W        W36049   8.471  11.750   3.516 -0.0722 -0.3276 -0.1764
17196W        W36050   8.917  16.536   1.271 -0.0119  0.0790 -0.0254
17197W        W36051  17.987  13.060   1.651  0.1931  0.0230 -0.3442
17198W        W36052   9.495  15.511   3.458 -0.0142 -0.0491  0.1360
17199W        W36053  12.542   1.959  12.902 -0.0502 -0.0036  0.1425
17200W        W36054   4.215   2.711  12.282  0.0423 -0.0905 -0.4507
17201W        W36055  15.747  12.851  12.150  0.2302  0.0276  0.3640
17202W        W36056   6.035   7.718   2.444  0.1344  0.0044  0.2420
17203W        W36057   5.213  10.456   3.372  0.0241  0.1548  0.1718
17204W        W36058   4.020   4.614   3.480  0.1620  0.1236 -0.0020
17205W        W36059   3.460   5.976  12.511 -0.3360  0.1023  0.1213
17206W        W36060   5.653   7.957  10.966 -0.1801  0.0901 -0.2227
17207W        W36061  14.533   0.311   1.647 -0.1159  0.1119  0.0374
17208W        W36062  13.273  12.229  12.492 -0.2902  0.0143  0.1210
17209W        W36063  17.753  14.597  15.014  0.2161 -0.0983  0.3284
17210W        W36064   6.937  12.546  12.404  0.1818 -0.0090 -0.1372
17211W        W36065   1.104   3.072  13.579  0.0710 -0.0133  0.0436
17212W        W36066  18.264  12.265   4.324 -0.0085  0.1122 -0.0426
17213W        W36067  13.915   8.714   1.301  0.2337  0.2839  0.0738
17214W        W36068   6.719  17.349  14.947  0.1755 -0.0572 -0.0573
17215W        W36069   4.655   0.692  13.345  0.0333 -0.2505  0.1408
17216W        W36070  18.199   4.371  11.748 -0.0715  0.1788 -0.1008
17217W        W36071  10.636   9.146   0.915  0.0042 -0.0990  0.0738
17218W        W36072  17.494  14.218   2.357 -0.0170  0.1466 -0.0453
17219W        W36073  10.964   8.495  14.297 -0.5523  0.1757 -0.3100
17220W        W36074   6.572   8.160  12.111 -0.2065  0.0372  0.1216
17221W        W36075   3.274   2.313  14.191  0.0249  0.1517 -0.2276
17222W        W36076  15.280  17.405  14.464 -0.2252  0.0945 -0.2455
17223W        W36077  12.689  15.950  14.228 -0.1114 -0.1019  0.0403
17224W        W36078   8.925   4.543  11.651  0.1838 -0.1109  0.2045
17225W        W36079   3.861  11.425   4.319  0.0279  0.1585 -0.1445
17226W        W36080   5.644  17.916   0.555  0.0175 -0.1109  0.0201
17227W        W36081  17.400   8.944   0.899 -0.0910  0.0687 -0.1885
17228W        W36082  13.077   8.378   2.714  0.1861 -0.3006  0.0697
17229W        W36083  18.122   5.573  13.781  0.0832  0.3922  0.0233
17230W        W36084  12.776  11.179   2.274 -0.3098 -0.1593  0.4111
17231W        W36085   0.689   5.146   0.345  0.1076 -0.4703  0.0052
17232W        W36086   3.357  15.091   2.460  0.0751 -0.1227  0.0359
17233W        W36087  15.029   1.098  12.369  0.1628 -0.3028  0.2416
17234W        W36088  10.960   3.972  11.134  0.0807 -0.1276 -0.3463
17235W        W36089   4.119   0.689  10.918  0.2445  0.1989 -0.1355
17236W        W36090  15.757   4.807   0.491 -0.0378 -0.0327 -0.0707
17237W        W36091  16.809   6.691  14.010 -0.0109  0.3086 -0.0205
17238W        W36092  13.710  12.030  13.912  0.1178 -0.3377 -0.0747
17239W        W36093   6.628   8.386   3.437  0.0668  0.0023 -0.0201
17240W        W36094  18.352  15.154   0.524  0.0901  0.0337  0.1522
17241W        W36095  17.660  14.660  12.859  0.3047 -0.1461 -0.0339
17242W        W36096  10.877  12.590  14.314 -0.1257 -0.2930  0.1142
17243W        W36097   6.410  16.967   1.188 -0.1891 -0.1079  0.1980
17244W        W36098   1.988   5.243   4.116  0.1320  0.1342  0.1676
17245W        W36099   1.699  13.403  11.542 -0.1860 -0.1746  0.0150
17246W        W36100  10.995  11.755   1.673  0.1255 -0.0298  0.0065
17247W        W36101   0.783   6.227  14.052 -0.0671 -0.3066  0.0301
17248W        W36102  17.848   9.748   3.504 -0.1884 -0.1169 -0.0019
17249W        W36103   9.307   9.692  11.977  0.2674 -0.1844 -0.3524
17250W        W36104  16.733  11.804   2.475  0.1447  0.2512 -0.0945
17251W        W36105  10.496  18.260  14.774 -0.1127 -0.1165  0.0343
17252W        W36106  16.576  15.012  13.820 -0.0774 -0.0033 -0.0903
17253W        W36107  17.209   9.913  10.595 -0.0179 -0.0051  0.0554
17254W        W36108   0.083  17.732   1.090  0.0962 -0.2080 -0.0235
17255W        W36109   4.397   6.759   4.361  0.2630  0.4932 -0.1677
17256W        W36110   2.499   0.957  13.354  0.0975  0.0692 -0.2546
17257W        W36111  17.436   8.255  14.409 -0.2539  0.0444  0.0919
17258W        W36112   9.564   2.032  15.406  0.0490  0.0687 -0.1399
17259W        W36113  16.058   6.352   4.411  0.0431 -0.0859  0.1078
17260W        W36114  13.635  16.149   2.459 -0.1205 -0.2284  0.1530
17261W        W36115   8.919  11.169  11.891  0.0307 -0.0344 -0.0675
17262W        W36116   5.745   5.746  12.877  0.1088 -0.3319 -0.1460
17263W        W36117   4.920   2.922  13.421  0.1840 -0.0203 -0.0337
17264W        W36118   6.731  15.165   0.723 -0.0415  0.1524  0.0463
17265W        W36119   2.791   0.595  10.945 -0.2640 -0.1224  0.0503
17266W        W36120  18.361  10.637   4.490 -0.0141  0.3280 -0.1751
17267W        W36121  10.313  12.365  12.089  0.0710  0.1993 -0.3428
17268W        W36122   5.816  14.690  14.724 -0.2059 -0.0717  0.0280
17269W        W36123  16.362   4.490   1.472  0.0610 -0.4437  0.2798
17270W        W36124  17.249   0.560  12.314 -0.2313  0.2072 -0.0021
17271W        W36125   1.249   1.490  15.293  0.2114  0.0891 -0.0348
17272W        W36126   9.612   7.449   3.781  0.1752  0.0661  0.1777
17273W        W36127  13.732   8.495   2.777  0.2767 -0.1093 -0.1270
17274W        W36128  14.743  17.174   2.513  0.4192  0.2013 -0.1029
17275W        W36129   2.077  15.205   1.074 -0.2253  0.0286  0.3626
17276W        W36130  10.860  15.268   1.698  0.4315  0.2893 -0.0683
17277W        W36131   0.577   8.930  13.672  0.1344 -0.1421 -0.1788
17278W        W36132   7.973  16.002  11.077  0.0886  0.0114 -0.0839
17279W        W36133   7.006   7.511  12.602 -0.1039  0.2973 -0.1428
17280W        W36134   5.531  12.195  10.583  0.1530 -0.0396 -0.0003
17281W        W36135   2.144  12.740   3.016  0.0365  0.0585  0.0007
17282W        W36136   5.223  12.148   3.329 -0.1147 -0.1755 -0.1476
17283W        W36137  18.475  10.297  14.030 -0.0122  0.2091  0.1130
17284W        W36138   1.386   5.262  10.901 -0.0608  0.0404 -0.1071
17285W        W36139  18.483  16.733   4.845  0.2402  0.0065  0.1000
17286W        W36140   0.205   1.186   3.285  0.1044 -0.0333  0.1223
17287W        W36141   1.838   0.113   2.660  0.1107  0.0624 -0.0088
17288W        W36142   3.363   4.799   3.968  0.4300 -0.2824 -0.1386
17289W        W36143  12.941  11.469   0.571 -0.0168 -0.2693 -0.0870
17290W        W36144  12.849   3.759   1.392  0.3401 -0.0695  0.1088
17291W        W36145  16.834   2.617   2.679 -0.0317 -0.1425 -0.2091
17292W        W36146  16.379  15.185   0.368 -0.0299 -0.2029 -0.2106
17293W        W36147   0.883   0.108  11.327  0.3009 -0.0264 -0.2917
17294W        W36148  13.876  12.306   1.701 -0.0757 -0.0169 -0.0847
17295W        W36149   1.259  18.511  11.744 -0.1438 -0.2339  0.3673
17296W        W36150   6.241  14.522  13.344  0.2112  0.1316 -0.1077
17297W        W36151   3.330  14.368  11.247  0.1740 -0.0468 -0.2055
17298W        W36152   8.210  13.874  14.269 -0.0284  0.0922  0.0212
17299W        W36153   7.532  16.858  14.501 -0.2148  0.0552  0.2657
17300W        W36154   5.847  10.943  13.080  0.0764 -0.0562 -0.2469
17301W        W36155  13.265   1.870  12.384 -0.0466 -0.0415  0.1344
17302W        W36156  12.359   7.778  12.248 -0.0223  0.1196  0.2907
17303W        W36157   3.204  11.524   3.835  0.1611  0.0260 -0.0274
17304W        W36158  15.479  16.236   1.130  0.0384 -0.1480  0.4355
17305W        W36159  14.092   9.890   1.115 -0.0374 -0.0209  0.1289
17306W        W36160  14.211   4.828   5.367  0.0201  0.0318  0.0155
17307W        W36161  14.914   1.446   5.194 -0.2672  0.0499  0.0189
17308W        W36162   8.943  15.269  14.648 -0.1252 -0.2609 -0.2224
17309W        W36163   3.961   5.044  13.925 -0.4834  0.0449 -0.1347
17310W        W36164   6.181   6.391   1.557  0.5382  0.0203  0.0112
17311W        W36165   6.443   7.184  11.943  0.1939  0.0294  0.1280
17312W        W36166   1.318   5.207  13.455 -0.0463 -0.0730 -0.2998
17313W        W36167  18.407   5.052  14.967 -0.1748  0.3620  0.0518
17314W        W36168  17.720  16.731   1.858  0.0055 -0.0807 -0.1536
17315W        W36169  13.364  15.388  13.234  0.0968 -0.1076 -0.0406
17316W        W36170  10.336  13.778  14.949 -0.0581  0.1754 -0.3578
17317W        W36171  17.112   2.161   1.723 -0.2028  0.2856  0.0960
17318W        W36172  13.532   7.151  13.973  0.0729 -0.0523  0.1033
17319W        W36173  14.449   9.719   0.764  0.3648 -0.1613 -0.1318
17320W        W36174   1.563   9.057  13.944 -0.0634 -0.2423 -0.2477
17321W        W36175  12.551   1.902  14.624  0.1674  0.1459 -0.1028
17322W        W36176   5.936  14.922   0.451 -0.1472 -0.0816  0.0858
17323W        W36177  15.039   4.398  12.985  0.0665 -0.0336 -0.2534
17324W        W36178   2.528  16.526  11.255  0.0394 -0.1441 -0.1564
17325W        W36179  16.338   8.326  11.403 -0.1359  0.0904 -0.0433
17326W        W36180   8.817  14.101  11.485 -0.2028  0.1656 -0.3041
17327W        W36181  16.098  17.459   3.343  0.0245  0.0578  0.0176
17328W        W36182  13.484  11.075  13.198 -0.1964 -0.1708 -0.0019
17329W        W36183  15.580  10.721   3.945 -0.3901  0.0427 -0.0637
17330W        W36184  13.463   5.310  12.375  0.1309 -0.0864 -0.1101
17331W        W36185   7.165  12.967   4.555  0.0012 -0.0425 -0.0137
17332W        W36186  11.563  10.816  10.939 -0.2361 -0.2557 -0.0160
17333W        W36187  11.016   1.716   1.884  0.3320  0.0041  0.1054
17334W        W36188  17.777   9.803  13.082  0.2619  0.1813  0.2834
17335W        W36189   5.927  13.280   4.980 -0.0914  0.0591 -0.1230
17336W        W36190   6.521   6.533   3.771 -0.0594 -0.1465 -0.2770
17337W        W36191   8.916   7.898  10.360  0.2942  0.0171 -0.0693
17338W        W36192  15.667  14.324   4.170  0.0457 -0.4187  0.0047
17339W        W36193  14.547   3.835  12.144  0.3285  0.0578  0.2642
17340W        W36194   7.537  14.909  11.509  0.1687 -0.0619  0.0911
17341W        W36195  12.208  10.366  14.194 -0.2637  0.0574  0.2481
17342W        W36196  16.196  18.476  14.298 -0.1494  0.0217 -0.1493
17343W        W36197  16.321  10.765   4.387 -0.0165 -0.2172 -0.2582
17344W        W36198   7.930   8.823  14.441  0.1220  0.3187  0.1362
17345W        W36199  14.206  16.153   3.934  0.3551  0.2324  0.1428
17346W        W36200   0.966   2.452  13.289 -0.1865  0.0689  0.0952
17347W        W36201   6.597   2.106   0.757  0.1455  0.0677  0.3611
17348W        W36202   5.578  14.600   0.620 -0.0691 -0.0621 -0.0564
17349W        W36203  15.489  12.087  13.908  0.0801 -0.3906  0.1617
17350W        W36204  11.552  17.935  15.090 -0.0691 -0.1407  0.1926
17351W        W36205   7.041   7.291   3.845 -0.0463  0.0000 -0.0249
17352W        W36206  16.963  10.179   1.526 -0.0790 -0.0964 -0.2263
17353W        W36207   5.561  11.826   2.338  0.0370 -0.0941  0.2002
17354W        W36208   3.941  17.640  14.664 -0.0641  0.0827  0.1552
17355W        W36209  14.475   9.883   3.230 -0.0476  0.1354  0.3355
17356W        W36210   8.665   5.737   3.568  0.1947  0.2412  0.0175
17357W        W36211   3.275   3.837  14.081 -0.2208  0.0025  0.0036
17358W        W36212  15.287  15.914   2.585  0.3205  0.0946 -0.0244
17359W        W36213   0.297  15.892  12.702  0.1175  0.0601  0.1997
17360W        W36214   2.118  11.526  15.336  0.1519  0.1526 -0.3595
17361W        W36215  10.447  11.194   0.961  0.3814 -0.2733 -0.0922
17362W        W36216   6.907   4.746   2.578 -0.0461  0.0572  0.1856
17363W        W36217  16.828   7.340  15.178 -0.0103  0.4432  0.1234
17364W        W36218   1.454   6.438  11.434  0.0129 -0.3487 -0.0883
17365W        W36219   8.710   5.737  14.944  0.1635 -0.3239  0.0008
17366W        W36220   5.790   0.634  14.998  0.0311  0.0750 -0.1028
17367W        W36221  14.433   9.086  12.585  0.0104  0.1314 -0.0921
17368W        W36222  17.563   4.165   4.864  0.0404 -0.0167  0.3262
17369W        W36223   1.031   3.087   0.665  0.3450 -0.0537  0.1106
17370W        W36224  13.146   7.561  13.949  0.0012 -0.2383  0.0022
17371W        W36225  14.624  16.155   0.589 -0.1677 -0.1445 -0.0390
17372W        W36226  10.596  14.869  11.718  0.2172  0.0738 -0.4222
17373W        W36227   9.022   8.117  14.603 -0.1636 -0.2171  0.0009
17374W        W36228   8.408   8.355  13.960 -0.2367  0.1497 -0.2221
17375W        W36229   8.519  12.380   2.300 -0.0447 -0.2470 -0.0758
17376W        W36230   4.361   6.279  11.481  0.0164 -0.2023 -0.1060
17377W        W36231   0.226  11.040   2.369 -0.1692 -0.0846 -0.1919
17378W        W36232  15.468   0.928   1.340 -0.1669 -0.0973 -0.0634
17379W        W36233  18.465  18.150  11.157  0.0874 -0.0868  0.1568
17380W        W36234   0.888  10.230   0.626 -0.1065  0.0515  0.0583
17381W        W36235  10.319   6.209  11.694 -0.0573  0.1671 -0.0289
17382W        W36236   1.928  16.096   0.746  0.1745  0.1244  0.0439
17383W        W36237  17.784  14.762  14.547 -0.0341  0.0063 -0.1604
17384W        W36238   0.314  17.333   2.534  0.1426 -0.2598 -0.0972
17385W        W36239   9.411  16.391  11.438  0.2316  0.0894  0.1520
17386W        W36240  17.668  13.170  13.399 -0.5011 -0.1614  0.1206
17387W        W36241  17.014   4.248   3.458 -0.3053 -0.0578 -0.1320
17388W        W36242   6.368   5.577   3.495  0.1483  0.1536  0.0948
17389W        W36243  17.171  15.538  14.269  0.1847 -0.0811 -0.0326
17390W        W36244  10.356   6.242  12.681  0.2900  0.0105 -0.0042
17391W        W36245   1.968  17.654  14.284 -0.0180 -0.1040  0.0946
17392W        W36246   1.921   7.538   4.204  0.1254 -0.0228  0.1882
17393W        W36247   1.972  15.680  14.000 -0.0804 -0.0568 -0.0142
17394W        W36248   7.629  12.820  11.217 -0.3349 -0.0389 -0.1516
17395W        W36249  11.971   4.573   4.160 -0.1289  0.2026 -0.2292
17396W        W36250  17.776  16.853  15.281 -0.0069 -0.2081  0.1503
17397W        W36251   8.619   5.226  12.934 -0.0883 -0.1883  0.2622
17398W        W36252  17.345   5.590   0.939  0.1544 -0.2269  0.1949
17399W        W36253   7.511   7.192  13.471  0.2886  0.0437 -0.1331
17400W        W36254  17.492  13.553   4.236  0.1176 -0.1942 -0.1216
17401W        W36255   1.989   4.977   4.708  0.1262  0.1770  0.1049
17402W        W36256  12.305  14.460  12.008  0.2793 -0.1843  0.0499
17403W        W36257   0.772   5.836  13.713  0.1412 -0.2629  0.0876
17404W        W36258  12.939  15.005  12.566 -0.0706  0.2402 -0.1087
17405W        W36259  12.475   5.509   0.899  0.0658  0.1017  0.2571
17406W        W36260   4.329  10.461  10.014 -0.2284 -0.1848 -0.0777
17407W        W36261   2.866   4.215   2.205  0.1505 -0.1093 -0.0256
17408W        W36262   8.573  18.046   4.395  0.1229 -0.1142  0.1085
17409W        W36263  17.099  13.908   0.911  0.0705 -0.0554  0.0066
17410W        W36264   6.157   2.663   2.621  0.2228  0.0332  0.2346
17411W        W36265  10.099  11.879  13.775 -0.1377 -0.3463  0.1292
17412W        W36266   5.210   2.931  12.151  0.0461  0.2881  0.1125
17413W        W36267   1.524   2.287   0.350  0.2100  0.0541 -0.1076
17414W        W36268  13.336   2.921   2.839 -0.1452  0.0847  0.4293
17415W        W36269   8.905  17.446  11.009 -0.0007 -0.1048 -0.2282
17416W        W36270   2.032   6.213  12.406 -0.1622 -0.0207  0.1318
17417W        W36271  14.601   4.405  13.201 -0.0531  0.3001 -0.0029
17418W        W36272  14.802   8.081  12.710  0.0581 -0.2354  0.2866
17419W        W36273   9.411   1.522   1.856 -0.0904  0.0756  0.3567
17420W        W36274   9.186  14.674   2.434 -0.1716  0.0297  0.4770
17421W        W36275   0.578  15.672   0.329  0.0228 -0.0910  0.2383
17422W        W36276   4.413  11.152  10.519  0.0483 -0.1645 -0.0992
17423W        W36277   1.751  14.244   0.271 -0.1987  0.0764  0.0216
17424W        W36278   1.791  18.262  15.299 -0.3790  0.1033 -0.1069
17425W        W36279   8.284  16.733   3.895  0.2099 -0.0797 -0.2664
17426W        W36280  14.750  14.958  11.680  0.0439 -0.1822  0.1728
17427W        W36281  12.994   2.272   3.849 -0.2588 -0.0861  0.2167
17428W        W36282   7.037  10.707   1.194 -0.4331 -0.0714 -0.0561
17429W        W36283  13.517  17.999  14.383  0.3404 -0.3140  0.3141
17430W        W36284  18.151  10.999   0.437 -0.1985 -0.3529  0.0805
17431W        W36285  12.622  12.120  13.201  0.2338  0.0230 -0.1014
17432W        W36286   0.248   0.834   3.658  0.0254  0.0924  0.1678
17433W        W36287  18.445   3.295  11.182 -0.3365  0.0252 -0.0257
17434W        W36288  14.839  15.641   2.514 -0.2319 -0.0248  0.3251
17435W        W36289   1.252  14.447   0.229  0.0690 -0.3817  0.0813
17436W        W36290   5.267   1.689  11.153 -0.1220 -0.0403  0.2513
17437W        W36291   6.450   2.112   3.202  0.0736 -0.0594  0.1460
17438W        W36292  13.168  15.864  14.271  0.1674  0.1196  0.3038
17439W        W36293  11.689  12.801  12.845 -0.1246 -0.0963  0.0230
17440W        W36294  15.397   6.180  14.308  0.1139  0.0470 -0.0752
17441W        W36295   6.156  12.614  12.653  0.1160 -0.0203  0.0986
17442W        W36296   7.569  11.119  12.098 -0.0879 -0.0173  0.2695
17443W        W36297   9.138   7.748  10.781 -0.0554 -0.0586 -0.0689
17444W        W36298  18.430  13.181   0.917 -0.3673  0.1772  0.1659
17445W        W36299   1.723  10.588  12.328  0.1540  0.2296  0.1184
17446W        W36300  17.730  16.237  14.465  0.3569 -0.0022  0.2229
17447W        W36301  16.260  14.313  12.496 -0.2699  0.2522  0.0915
17448W        W36302  14.696   0.080   2.895  0.2658 -0.4031 -0.0180
17449W        W36303  14.384   8.520   4.460 -0.1086 -0.0730 -0.1487
17450W        W36304   1.077  13.230  13.294 -0.1366 -0.0384  0.2229
17451W        W36305  10.295   6.442  13.746 -0.0090  0.1999 -0.0837
17452W        W36306  11.087  17.713  12.695  0.1241  0.0395  0.0372
17453W        W36307  12.846  18.025   3.727  0.2813 -0.0781 -0.2334
17454W        W36308  11.005  11.093   3.704 -0.1029  0.2748  0.2198
17455W        W36309   2.560  18.477  12.644 -0.1369  0.1320  0.0156
17456W        W36310   8.870   3.418  11.706 -0.0570 -0.0855  0.0674
17457W        W36311   3.462   8.148  11.965  0.2544  0.0994 -0.1870
17458W        W36312   8.621   3.525  14.744 -0.1387  0.0287  0.0501
17459W        W36313   2.527  12.727   4.107  0.1797  0.0864 -0.2770
17460W        W36314  10.105  10.833   1.099 -0.1350 -0.0808  0.2205
17461W        W36315  11.877   0.718   1.325 -0.2992  0.0173  0.4052
17462W        W36316  15.737  12.618  15.056 -0.1408 -0.2180  0.2481
17463W        W36317   7.788  16.965  14.036  0.3172 -0.0154 -0.0764
17464W        W36318  16.826   9.371   4.264  0.0035 -0.4425 -0.4799
17465W        W36319  12.226   0.828  15.351 -0.3227  0.0751  0.0876
17466W        W36320  15.141  15.681   3.039 -0.0495  0.0572 -0.2515
17467W        W36321   9.111   3.871  10.638 -0.2074  0.1584 -0.1296
17468W        W36322  14.206   4.235  14.999  0.0188  0.1356 -0.0025
17469W        W36323  16.714  12.162  13.552  0.1076 -0.0798  0.2062
17470W        W36324  15.739  10.876   3.482 -0.1602  0.0039 -0.1322
17471W        W36325   1.031  14.413   3.263 -0.1150  0.0284  0.1444
17472W        W36326   6.928   5.346  11.568 -0.2474  0.0119 -0.2556
17473W        W36327   8.098  12.690   2.400  0.1671  0.1268  0.0820
17474W        W36328  12.196  18.300  10.922  0.2135 -0.4058 -0.0111
17475W        W36329   2.720  16.542   3.440  0.0272  0.0278 -0.0343
17476W        W36330  12.835   1.746   4.226 -0.1994  0.2892 -0.0981
17477W        W36331   6.167  12.059   4.089 -0.1252 -0.0764  0.0444
17478W        W36332   7.943  13.671  13.857  0.0560 -0.3647 -0.0051
17479W        W36333   9.775   7.852  11.549  0.0236 -0.0930 -0.1202
17480W        W36334  14.442  17.510  11.811 -0.1365  0.1032 -0.1740
17481W        W36335   7.773   8.318  14.530 -0.2015 -0.2101 -0.1765
17482W        W36336  10.620   1.590   3.626 -0.2694 -0.0889 -0.0877
17483W        W36337  14.384  17.145   0.852  0.2457  0.1505  0.1341
17484W        W36338   6.271  15.273   0.793  0.1452 -0.0277 -0.1805
17485W        W36339  17.608  13.853  10.342  0.0962 -0.0211  0.2385
17486W        W36340  10.077   9.600  13.809  0.1502  0.0338  0.1325
17487W        W36341  18.372  13.687  15.366  0.1145 -0.1601  0.2058
17488W        W36342  15.067   8.063   4.009  0.0840 -0.0797 -0.0735
17489W        W36343  14.069  15.397   9.986 -0.3136 -0.2443  0.1079
17490W        W36344  13.380   4.066  13.058 -0.1935 -0.1985 -0.1497
17491W        W36345   4.452  17.029  14.019  0.1764 -0.0622 -0.1100
17492W        W36346   5.462   8.418   4.171 -0.1399  0.1241 -0.1116
17493W        W36347   6.178  13.386  15.177 -0.0116  0.0119 -0.0075
17494W        W36348  18.565  11.709   4.645  0.0473 -0.2055 -0.2699
17495W        W36349   9.418   2.991  13.961 -0.0854  0.4090  0.1037
17496W        W36350  11.186   0.275  14.821  0.0828  0.0928  0.2807
17497W        W36351  15.979  16.742  12.625  0.0206  0.0257  0.1033
17498W        W36352   8.285   1.468  12.484  0.1893 -0.0409  0.0516
17499W        W36353  11.628  13.449  14.226 -0.0117  0.2148 -0.0543
17500W        W36354   8.487  11.359  13.460  0.0744 -0.1618 -0.0594
17501W        W36355  15.498  10.314   2.470 -0.0684  0.2994  0.0957
17502W        W36356   7.539   2.711   2.754  0.0676  0.1137 -0.0912
17503W        W36357   8.187  18.267   2.508 -0.1442 -0.1411  0.1490
17504W        W36358   2.516  14.539   3.009  0.1070  0.0062  0.0866
17505W        W36359   8.324  15.066   2.543  0.3898 -0.2919 -0.0227
17506W        W36360   2.723   0.743   4.433  0.2060  0.1625  0.1726
17507W        W36361  14.693  14.086  13.332  0.2018  0.3088 -0.1911
17508W        W36362  10.263   1.450  13.005  0.1580  0.0202  0.0908
17509W        W36363   6.057  11.615   0.792  0.0044 -0.0996  0.0477
17510W        W36364  14.663   0.237  14.345 -0.1170 -0.0130  0.0204
17511W        W36365   1.447  14.797  12.226  0.1051  0.2383 -0.0407
17512W        W36366   4.220  14.552   3.399  0.2242 -0.2112  0.0610
17513W        W36367   1.424   5.588  13.981 -0.1228 -0.3304  0.0453
17514W        W36368  15.983   7.212   0.937 -0.1923  0.0488  0.1311
17515W        W36369   3.596   0.833   0.427  0.1674  0.2813 -0.1003
17516W        W36370  10.987   4.895  14.597 -0.4604  0.1773  0.1028
17517W        W36371   4.162  18.273  13.399  0.2610  0.1212 -0.1117
17518W        W36372  17.499  11.769  14.543  0.2147  0.0332 -0.0495
17519W        W36373  17.310   5.700  13.276 -0.1346  0.1347  0.0148
17520W        W36374   9.781   3.862  15.030 -0.1129  0.0749  0.1107
17521W        W36375  16.577  14.132  11.678 -0.2015  0.2511  0.1389
17522W        W36376   5.603  11.279   1.015  0.0845  0.2753 -0.1555
17523W        W36377  13.615  17.332   0.225  0.1609 -0.0603  0.1095
17524W        W36378   2.300  16.571   1.210 -0.0331 -0.0865 -0.1539
17525W        W36379  14.917  10.698  10.256  0.2694 -0.1321 -0.1460
17526W        W36380  11.957   5.636  11.100 -0.2242 -0.0021  0.1661
17527W        W36381  12.174   0.492   4.030 -0.1918  0.0450  0.0114
17528W        W36382   1.000   7.547  10.823  0.4017 -0.0865 -0.2957
17529W        W36383  13.772   1.127  12.357 -0.0563 -0.1961  0.1531
17530W        W36384  14.219  11.044   0.617  0.1756  0.1059  0.0136
17531W        W36385  12.577  13.725   3.460  0.0762  0.1793 -0.2572
17532W        W36386  14.373   9.223   0.652 -0.0703  0.1998 -0.2438
17533W        W36387  18.092  10.122   0.451  0.0288 -0.0658  0.1855
17534W        W36388  15.143   2.469   2.919 -0.1290 -0.0269 -0.0061
17535W        W36389  16.139  13.143   0.391  0.0092  0.2985  0.1203
17536W        W36390  14.791   5.384   0.703 -0.2990  0.1144  0.0584
17537W        W36391   7.438   8.716  14.686  0.0879 -0.1411  0.1665
17538W        W36392   6.457  17.248   3.798  0.2021 -0.0547  0.6072
17539W        W36393  10.061  12.377  15.327  0.0554  0.0577 -0.1468
17540W        W36394  15.838   2.116   2.350 -0.1050 -0.0795 -0.0178
17541W        W36395   9.652  17.785   0.905 -0.2246  0.0519 -0.0019
17542W        W36396   2.146   6.835  11.833 -0.1539 -0.1122 -0.1926
17543W        W36397   8.947  13.998   5.814  0.1736 -0.2028 -0.1851
17544W        W36398  18.050  13.051  12.406  0.3344 -0.1644 -0.1353
17545W        W36399  12.155   6.000   3.634  0.1022  0.2094  0.1591
17546W        W36400  16.899  15.127  13.427  0.0209 -0.2293  0.0628
17547W        W36401  15.156  10.190   2.053  0.0904  0.0863 -0.1035
17548W        W36402  11.256  11.609  12.248 -0.2133  0.0842 -0.2334
17549W        W36403   7.324   2.543   4.106 -0.0164  0.3653 -0.3002
17550W        W36404  16.580   7.143   2.829  0.4795  0.2540  0.0140
17551W        W36405   8.815   2.051   1.619 -0.0431  0.2457 -0.0639
17552W        W36406  16.667  15.418   2.739 -0.1025 -0.2100 -0.1734
17553W        W36407  15.449  10.292  11.873  0.2463  0.0260  0.2860
17554W        W36408  13.988   3.736   3.641 -0.1626  0.1478  0.2825
17555W        W36409   4.110  16.487  13.167 -0.1420 -0.2237  0.1100
17556W        W36410   4.309   2.289  15.285  0.3203 -0.1295 -0.4550
17557W        W36411  15.669   2.860   0.862 -0.0644  0.1692  0.0447
17558W        W36412   4.528   6.863   0.053  0.2948  0.2361 -0.2640
17559W        W36413   7.013   7.333   3.340  0.0750 -0.0298  0.0616
17560W        W36414   1.107   9.580   3.364 -0.0647 -0.0686 -0.1048
17561W        W36415   5.158  11.964   4.126 -0.0732 -0.0002  0.0418
17562W        W36416  13.472   7.775   2.030 -0.1060  0.0116  0.2404
17563W        W36417  18.373   5.725  11.605  0.0822 -0.2530 -0.1322
17564W        W36418  15.151   9.861  11.950 -0.0766 -0.2479  0.0810
17565W        W36419   6.345  16.540  15.319 -0.0135 -0.1259  0.1181
17566W        W36420   3.151   9.327   2.051 -0.2428  0.0900 -0.3898
17567W        W36421  11.508  13.779   2.607 -0.0495 -0.0261 -0.1920
17568W        W36422   3.828   7.171  11.787 -0.1983  0.1153 -0.0991
17569W        W36423  12.242  16.132  13.581  0.2547 -0.2818  0.1490
17570W        W36424   5.478  10.378  10.999  0.2844 -0.1328  0.2659
17571W        W36425   9.376   5.961   1.284  0.0765 -0.0140 -0.0873
17572W        W36426   0.460   1.934  14.979  0.1805  0.3705 -0.0218
17573W        W36427   6.731  12.837   2.122  0.2279 -0.3420  0.2006
17574W        W36428  10.592   5.736  12.712 -0.0737 -0.0845 -0.1165
17575W        W36429   6.686   4.676   0.748  0.2529 -0.0401 -0.1131
17576W        W36430   4.777   8.939  12.432  0.1280  0.2312 -0.0207
17577W        W36431   5.555   6.582   3.086  0.1082 -0.0875  0.3161
17578W        W36432  16.267  17.619  11.171 -0.0284 -0.1677 -0.4611
17579W        W36433   8.436  13.551  13.880 -0.1760  0.1037 -0.1808
17580W        W36434   2.091  15.234   5.282  0.1094  0.0521 -0.3299
17581W        W36435   6.096  18.558  12.877  0.1645 -0.4339  0.2657
17582W        W36436  15.615   2.880   1.619  0.0268  0.0390 -0.0120
17583W        W36437   8.157   9.005   4.124 -0.1249  0.0090  0.1498
17584W        W36438   4.167   4.772   4.430  0.3502  0.0837 -0.2043
17585W        W36439  11.741  11.876   4.741  0.0223  0.1409 -0.1125
17586W        W36440  18.208   2.994   1.417 -0.1187 -0.1862  0.1675
17587W        W36441   7.875   7.573  13.751  0.3183 -0.0012  0.4492
17588W        W36442   0.327   4.138  13.282 -0.0564  0.1502  0.1813
17589W        W36443  12.954  18.552   0.755  0.1152 -0.1121  0.1001
17590W        W36444   3.514   4.514   3.546 -0.0223  0.1932 -0.5035
17591W        W36445   9.176   6.452   1.331 -0.1221 -0.0097  0.1390
17592W        W36446  11.722   1.932   4.677 -0.1795 -0.2166 -0.1586
17593W        W36447   7.483  17.768   5.729  0.2440  0.0402  0.3768
17594W        W36448  15.019   5.267   1.418 -0.0324 -0.1525  0.2130
17595W        W36449  15.249   8.170  12.933  0.0980  0.1775 -0.3024
17596W        W36450  12.310   3.287   0.051 -0.3333 -0.2362  0.1006
17597W        W36451   8.597  15.950  11.220 -0.1805 -0.2482  0.0579
17598W        W36452   9.728  15.459  14.559  0.1468  0.0952  0.2708
17599W        W36453  10.708   3.419   4.711 -0.0030  0.0935  0.3803
17600W        W36454   2.363   3.432  12.254  0.2503  0.1313 -0.1294
17601W        W36455  15.247   8.831   4.109  0.0116 -0.2740 -0.1301
17602W        W36456  11.991   5.669   1.937  0.1625 -0.2191 -0.0797
17603W        W36457   2.209  12.291   3.287 -0.1055 -0.0914  0.1126
17604W        W36458   7.747   5.801  15.112  0.0618 -0.2575 -0.1710
17605W        W36459   4.151  12.310   4.598  0.1577  0.2634 -0.4466
17606W        W36460   4.886   7.154  11.244 -0.3449 -0.0004 -0.0370
17607W        W36461  11.461   2.997   0.214 -0.1205  0.1909 -0.3703
17608W        W36462  10.679   3.470  15.118  0.5070 -0.1608 -0.0276
17609W        W36463  12.008   8.955  13.770  0.0150  0.1100  0.1860
17610W        W36464  14.621  10.348   5.234 -0.0570  0.0782 -0.2640
17611W        W36465  11.078   1.571  11.035  0.2309 -0.2140  0.0983
17612W        W36466   0.050  16.664  14.626 -0.1611  0.0588  0.1876
17613W        W36467  11.908   1.426   2.811 -0.0800 -0.1318 -0.0199
17614W        W36468  13.141  12.163   4.941  0.3232  0.3120  0.0515
17615W        W36469   8.637   4.589   3.695  0.0815 -0.1165  0.4207
17616W        W36470  12.297  12.825  14.880 -0.0599  0.0957 -0.1246
17617W        W36471   1.232  17.749  11.539  0.1281  0.1616  0.0901
17618W        W36472  14.198   7.408  12.331 -0.1026 -0.0221  0.0004
17619W        W36473   6.809   4.715   0.153  0.1612  0.2376  0.0113
17620W        W36474  12.036  13.599   1.749 -0.2873  0.1138 -0.0875
17621W        W36475   2.124   0.147  15.381 -0.1630  0.1587 -0.1201
17622W        W36476   0.347   1.337   3.788  0.4824  0.2226  0.0302
17623W        W36477   7.216  12.218  12.622 -0.1160  0.1197 -0.1880
17624W        W36478   5.840  10.412   1.325  0.0944  0.2387  0.1676
17625W        W36479  11.305  12.499   1.590  0.0089  0.2995 -0.0696
17626W        W36480   9.532   7.960   3.423 -0.2286  0.0166 -0.1693
17627W        W36481   2.903   2.071   3.538 -0.2001 -0.1308 -0.0124
17628W        W36482  15.748  15.627  12.057  0.0022 -0.0404  0.0718
17629W        W36483  14.107  12.896  13.730 -0.0530 -0.3120 -0.0544
17630W        W36484  15.671  13.698  15.041  0.0947  0.2694  0.1827
17631W        W36485   6.145   8.715   2.022  0.0155  0.1320 -0.5262
17632W        W36486  12.478   8.334   0.080 -0.2997  0.0889 -0.0977
17633W        W36487   2.762   7.607  11.038 -0.1357  0.0656  0.0121
17634W        W36488  18.148   3.592  11.406  0.0236 -0.0306  0.4118
17635W        W36489   0.450   4.416   1.825 -0.2610 -0.1710 -0.1177
17636W        W36490  14.730   8.039  11.931 -0.1386 -0.3683  0.0946
17637W        W36491  13.622   5.815   3.780  0.0416  0.0438 -0.0384
17638W        W36492  16.298   3.493   2.575  0.0921 -0.2289  0.0759
17639W        W36493   4.754  11.351   2.646  0.2770  0.1945  0.2264
17640W        W36494  10.839   4.407  11.975 -0.3805  0.1317 -0.2876
17641W        W36495  11.818   7.512  15.397  0.3474 -0.0295 -0.2257
17642W        W36496   2.329   5.464  10.709 -0.3518  0.0027  0.0125
17643W        W36497  12.986  12.455   3.592 -0.0609 -0.3609 -0.3595
17644W        W36498   4.076  13.001   3.005  0.2520 -0.2157  0.0308
17645W        W36499   1.317   6.510   0.360  0.1450  0.0263 -0.0095
17646W        W36500  16.393   9.004   1.647  0.1168 -0.2897 -0.0455
17647W        W36501  18.240  12.781  14.228  0.2359 -0.3128  0.2012
17648W        W36502   6.130  11.141  12.617  0.1614  0.1039 -0.4727
17649W        W36503   4.033   9.053  13.487 -0.0596 -0.0951  0.1301
17650W        W36504   1.504  13.968   3.318  0.0368  0.1867  0.2863
17651W        W36505   5.324   8.090  15.300  0.1884  0.0823 -0.1490
17652W        W36506   2.058  12.670   0.950 -0.0971 -0.1468  0.2224
17653W        W36507  10.171   3.462  11.326  0.0917  0.1593  0.1818
17654W        W36508   9.776   0.213  13.483 -0.1367 -0.0665  0.0360
17655W        W36509   6.271   2.139   2.657  0.1418  0.0717  0.0966
17656W        W36510   2.647   6.488   3.719 -0.0854  0.3936 -0.0212
17657W        W36511  11.931   2.543  14.473 -0.0451 -0.0921  0.0375
17658W        W36512  18.111  18.402   4.080 -0.2669 -0.1448  0.1243
17659W        W36513   6.999   6.486   2.698  0.0850  0.1551  0.0907
17660W        W36514   3.360  14.732  14.941  0.3356  0.0430  0.1652
17661W        W36515   8.383  15.051  13.937  0.1368  0.0647  0.1120
17662W        W36516  16.283  16.323  12.702  0.1612 -0.0275 -0.1144
17663W        W36517  18.070   1.574   3.364  0.0092  0.0117 -0.1328
17664W        W36518  11.797   7.516   1.256 -0.3833  0.0016  0.1220
17665W        W36519   2.826  11.177   2.689 -0.0794 -0.0754 -0.0618
17666W        W36520   1.666   2.134  13.262 -0.2378  0.0100  0.2377
17667W        W36521  10.452   7.870  12.101 -0.0925  0.2629  0.3682
17668W        W36522  10.297   5.046  13.905  0.2084  0.1069 -0.1775
17669W        W36523  16.429  12.059   1.124  0.1785 -0.2482 -0.1287
17670W        W36524   6.118  11.721  11.261 -0.1382  0.1342 -0.0672
17671W        W36525   0.000   9.070  11.052  0.2770  0.0667 -0.1069
17672W        W36526   2.272   6.798  12.413 -0.1307  0.1394  0.3082
17673W        W36527  17.987  10.567   0.717 -0.1402 -0.0263 -0.1205
17674W        W36528  14.554   4.277  14.531  0.2031  0.3294  0.0633
17675W        W36529  14.891  16.404  13.233 -0.1832 -0.2565  0.0167
17676W        W36530   3.034  10.976  11.092 -0.1698  0.6460  0.1852
17677W        W36531   7.599   4.335  10.089 -0.1668  0.0647 -0.3415
17678W        W36532   4.643   4.150  13.902 -0.1008 -0.0548  0.1260
17679W        W36533  13.494  17.467   3.633  0.3583 -0.1034  0.0568
17680W        W36534   9.633   3.095   0.710  0.2300  0.0682  0.1929
17681W        W36535  10.482   5.538  13.838  0.0902 -0.0733  0.0166
17682W        W36536   7.821   7.966  11.645  0.1943  0.0355 -0.1652
17683W        W36537  10.271   6.365  15.316 -0.0363 -0.2415 -0.2342
17684W        W36538  14.212  12.436   2.867 -0.0536 -0.2040  0.2022
17685W        W36539  11.911  13.715   0.426 -0.1139 -0.2273  0.0561
17686W        W36540  14.432  15.795  12.429 -0.1517  0.1831 -0.2255
17687W        W36541  16.688  11.526  10.851  0.1943 -0.0416 -0.0947
17688W        W36542   1.537   1.057  12.599 -0.1518 -0.1855  0.0620
17689W        W36543  10.953  15.728   4.450 -0.1148  0.2646 -0.2348
17690W        W36544  11.133  13.054  14.397 -0.1636  0.0984  0.0762
17691W        W36545  16.994  11.868   3.492 -0.0873  0.0160  0.0903
17692W        W36546  17.836   9.026   2.825 -0.2666  0.1717  0.1674
17693W        W36547  15.661   9.023  12.172 -0.4329 -0.1555 -0.2487
17694W        W36548   0.117   5.430   4.388 -0.0128 -0.1331  0.3289
17695W        W36549   6.983  14.335   3.231  0.2240  0.0376 -0.0456
17696W        W36550   2.344  16.918  12.422  0.0175  0.0981  0.2578
17697W        W36551  12.942   2.852  13.056 -0.0588 -0.0567 -0.0020
17698W        W36552  15.914  10.710  15.126  0.2048 -0.0033 -0.0580
17699W        W36553   9.660   3.447   1.061 -0.0145 -0.0471  0.0400
17700W        W36554  15.054  10.700  14.967  0.1800  0.0007 -0.1218
17701W        W36555  12.727   1.722  12.042 -0.1518 -0.1372 -0.0322
17702W        W36556  17.304  13.024   9.919 -0.1430 -0.1233 -0.0980
17703W        W36557  14.144  17.925   0.174  0.0569  0.1833  0.1158
17704W        W36558  10.428   6.275   1.354  0.3737  0.1988 -0.0679
17705W        W36559   2.476  12.478   0.800 -0.1049  0.0126 -0.2145
17706W        W36560   4.080   5.052  11.336 -0.2271  0.0410  0.1310
17707W        W36561  17.723  15.717  11.790 -0.0428 -0.1467  0.1085
17708W        W36562  13.511  15.683   2.727 -0.1941 -0.1814  0.1854
17709W        W36563  11.111  11.458  14.975 -0.1312 -0.2329 -0.0114
17710W        W36564  11.990  10.288   2.003 -0.0605  0.3100 -0.1474
17711W        W36565  18.209  16.062  13.377  0.2071  0.0946 -0.2269
17712W        W36566  14.202  11.098  11.630  0.5274  0.1403 -0.0664
17713W        W36567   3.344   0.385  14.517  0.1279  0.2137  0.2261
17714W        W36568   1.474   8.151   2.531 -0.1673 -0.0921 -0.2647
17715W        W36569   9.150  16.195   3.588  0.2522 -0.2124  0.0443
17716W        W36570   0.400  11.533  13.044 -0.2349 -0.1278  0.5602
17717W        W36571  12.681   8.923   3.143 -0.1220 -0.1531 -0.0949
17718W        W36572   0.239  10.838   3.995  0.2480  0.1002  0.4657
17719W        W36573  16.461   9.797   2.216 -0.0868 -0.0242 -0.0577
17720W        W36574  18.019  17.586  11.670  0.0204  0.1732 -0.2902
17721W        W36575  12.397   3.670  13.464  0.1635  0.0845 -0.0386
17722W        W36576  18.012   3.862   3.884  0.1563 -0.0586  0.0822
17723W        W36577   8.132   3.060   1.887 -0.1621 -0.1194 -0.5111
17724W        W36578   6.122  16.351   2.609  0.3010  0.1884 -0.1573
17725W        W36579   7.362  10.307  14.610  0.1046 -0.1882 -0.2373
17726W        W36580   5.403   6.783  12.900  0.2335  0.2507  0.1909
17727W        W36581  17.682  12.951   1.019 -0.3286 -0.3607  0.1127
17728W        W36582  18.423  14.077  11.075  0.4448 -0.2416 -0.0160
17729W        W36583   7.943  13.963   0.560 -0.1377  0.1963  0.5550
17730W        W36584  15.959   2.490  11.017  0.1319 -0.1658  0.2628
17731W        W36585  13.516   1.711  15.272  0.0294 -0.0429 -0.0582
17732W        W36586   3.433   3.704   0.105 -0.0463 -0.0171 -0.2842
17733W        W36587  11.319   6.523   1.068 -0.1636 -0.1592  0.0044
17734W        W36588  17.661   6.474  11.493  0.0594 -0.1612  0.1347
17735W        W36589   3.710   7.093  12.947 -0.0941  0.0826 -0.0787
17736W        W36590  11.848  11.472  12.401 -0.1813  0.1077 -0.3962
17737W        W36591  11.907  15.937   3.157  0.0444  0.1071 -0.2298
17738W        W36592   7.671  13.904  13.488  0.1070  0.1529  0.0345
17739W        W36593  12.696  15.845   4.514 -0.2625  0.1683  0.0281
17740W        W36594  12.564  14.826  14.823  0.1369  0.4219 -0.0063
17741W        W36595   2.253   2.843   1.114 -0.0774  0.3097  0.2093
17742W        W36596  10.564   8.907  11.443  0.0837  0.1199  0.2407
17743W        W36597   7.551  10.565  12.745  0.2315  0.1290 -0.5636
17744W        W36598   3.660  11.837  12.130  0.0660  0.1907  0.0701
17745W        W36599   9.680   0.083   3.302  0.2275  0.1581 -0.1988
17746W        W36600   2.428  15.976  14.063 -0.0352  0.0321  0.2089
17747W        W36601   3.348   8.233  14.430 -0.1611  0.0921  0.0294
17748W        W36602   8.659  13.541  14.325  0.2621  0.1255 -0.0923
17749W        W36603   5.589   2.159  15.328  0.1206  0.0495  0.0290
17750W        W36604  15.140  15.202   1.298 -0.1005 -0.0094  0.1729
17751W        W36605   2.998   6.533  13.373  0.4393 -0.0339 -0.0448
17752W        W36606   6.114  10.141  15.143 -0.0894  0.1708 -0.1216
17753W        W36607  12.532  12.645   0.962 -0.1671  0.0438  0.1168
17754W        W36608  11.513   6.514  11.959  0.1545  0.0793  0.0747
17755W        W36609   8.320   3.364   3.376 -0.0905  0.0101 -0.2440
17756W        W36610  14.673   7.847   1.882  0.1679 -0.2980  0.2422
17757W        W36611   8.072  12.786   4.293  0.0032 -0.1192 -0.0989
17758W        W36612  17.548  11.698  13.201 -0.0845 -0.0597 -0.0664
17759W        W36613   6.526   6.873  10.588 -0.3503  0.3429  0.0374
17760W        W36614   0.376   3.493  12.811  0.0332 -0.2183  0.1089
17761W        W36615   3.696  11.651  12.587 -0.5279 -0.1109 -0.0915
17762W        W36616   1.726  18.188  14.282 -0.0103 -0.0269  0.1665
17763W        W36617  18.163  18.321   2.015 -0.2193  0.1742 -0.3647
17764W        W36618   5.289  16.470  11.617  0.3805 -0.2844  0.2402
17765W        W36619  13.281   8.443  14.858 -0.4006  0.2208 -0.1176
17766W        W36620   6.547  15.196   1.825 -0.0313 -0.2334 -0.0212
17767W        W36621   0.576   6.690   2.208 -0.1728  0.0745 -0.0522
17768W        W36622   4.609  14.965  15.451 -0.1040 -0.0927 -0.1999
17769W        W36623  15.373  13.632  12.197  0.2982  0.0486  0.2282
17770W        W36624   0.535   3.945   2.112  0.3125  0.1436  0.2846
17771W        W36625  14.739   5.786  13.753  0.1113 -0.1356 -0.0504
17772W        W36626  18.032   9.723  11.201  0.0475  0.2423  0.0083
17773W        W36627  14.911  15.944  12.375 -0.1629  0.0008  0.1606
17774W        W36628  14.268   5.208  11.649 -0.1953 -0.0835  0.0833
17775W        W36629   6.303   6.842   3.440 -0.1397  0.2759  0.3185
17776W        W36630   6.555  13.616   3.773 -0.1425  0.1156  0.0468
17777W        W36631  14.436   4.745  11.721  0.0321  0.3562  0.1218
17778W        W36632   1.265   3.256  14.777 -0.1033 -0.1926 -0.1823
17779W        W36633   1.622  14.722   0.015 -0.1365 -0.0491  0.2816
17780W        W36634   6.871   4.326   1.037  0.0258 -0.1310  0.0133
17781W        W36635  17.229   7.278  11.030 -0.0318 -0.0028 -0.1336
17782W        W36636  17.075   8.237   0.715 -0.3228 -0.0210 -0.0302
17783W        W36637   0.103   0.644   1.996 -0.1654  0.0175 -0.3872
17784W        W36638  14.313   1.385   0.830 -0.0381  0.5143  0.1578
17785W        W36639   6.220  13.684  13.796 -0.0408  0.0666  0.1611
17786W        W36640   2.543  15.120  13.260 -0.2136 -0.2005  0.4366
17787W        W36641   3.787  14.384   4.577  0.1248  0.1855 -0.1354
17788W        W36642  15.060  16.213   0.297  0.1715  0.0472 -0.3553
17789W        W36643  18.290  11.258  14.959 -0.0753  0.1189  0.1273
17790W        W36644  17.457  18.251  12.027  0.3662 -0.0805  0.0532
17791W        W36645   0.287   8.045   3.319 -0.1431  0.0313 -0.0392
17792W        W36646  14.152   2.219   1.362 -0.1183  0.0244  0.3259
17793W        W36647  16.123   8.823  12.256 -0.1978  0.2222  0.0658
17794W        W36648  17.278  10.545  13.740  0.0082  0.1378 -0.0329
17795W        W36649   3.230  17.459  11.484 -0.1124  0.0365 -0.0724
17796W        W36650   8.785   3.090  13.221 -0.2667 -0.2083 -0.1848
17797W        W36651   6.855   2.806  11.054  0.0233  0.0752 -0.0291
17798W        W36652   5.336   7.176   4.630  0.0211  0.0110 -0.3025
17799W        W36653  17.412   6.294  14.167 -0.2376 -0.1089 -0.1031
17800W        W36654  13.195   9.168   3.087 -0.0935 -0.2451  0.1564
17801W        W36655   3.768   8.496   1.540 -0.1256  0.3057 -0.0661
17802W        W36656   6.815   3.867  11.680  0.0037  0.0321  0.1890
17803W        W36657   1.094  11.282  10.518  0.0460  0.1204 -0.1217
17804W        W36658   8.985   4.416   1.317  0.0300  0.0313  0.2192
17805W        W36659   4.523  10.941   3.464  0.0583  0.0937 -0.0161
17806W        W36660  16.903   8.209   1.583  0.1420 -0.1633 -0.1346
17807W        W36661   0.436   5.308   3.763 -0.0808 -0.2051 -0.2170
17808W        W36662  12.764  11.692   2.115 -0.0958 -0.4938 -0.1974
17809W        W36663   4.433  18.024   2.543 -0.1151  0.0303  0.0379
17810W        W36664  18.090   1.117   5.247 -0.1425 -0.0033 -0.1491
17811W        W36665  12.514  11.591   4.563 -0.1373 -0.1704  0.3989
17812W        W36666   2.092  14.125   3.957  0.1475  0.1124 -0.0829
17813W        W36667   8.874   2.495   0.389 -0.0418 -0.1883  0.0080
17814W        W36668  14.071   2.436   2.172 -0.0772 -0.1145  0.1412
17815W        W36669   5.545  16.162   3.118 -0.1325  0.1280  0.2402
17816W        W36670  15.499   9.087   4.656 -0.0481 -0.0780 -0.0374
17817W        W36671   2.233   1.851   0.786 -0.0609 -0.0606  0.3087
17818W        W36672  15.623  15.582   2.225  0.0052 -0.1583  0.0750
17819W        W36673   9.562   2.418  12.678  0.1641  0.1817  0.1903
17820W        W36674   7.892   9.267  11.487  0.1100  0.0862 -0.1158
17821W        W36675  15.477   1.814  15.035 -0.0723 -0.0280  0.0768
17822W        W36676   4.824  11.760   3.461  0.3133  0.1623  0.0967
17823W        W36677   6.421  13.885  12.517 -0.4089  0.0902  0.0129
17824W        W36678  18.494  15.419   2.825 -0.0059  0.0876 -0.1968
17825W        W36679   7.804   9.303  13.026  0.0326 -0.1823 -0.0777
17826W        W36680   1.282   7.714   3.283  0.1647 -0.0996 -0.0584
17827W        W36681  15.195   1.388  11.441 -0.3673 -0.1924  0.0890
17828W        W36682  16.088  17.002   2.274  0.1151  0.1622  0.0370
17829W        W36683  10.557   5.146   3.695  0.0625  0.0398  0.0665
17830W        W36684  13.584   2.358   1.675  0.1445  0.0186 -0.0347
17831W        W36685  11.781  17.441  11.329  0.3315 -0.0632  0.0744
17832W        W36686   1.531  14.819  11.572 -0.3996  0.2691  0.0109
17833W        W36687  14.822  10.650  11.538  0.1792 -0.0988 -0.2473
17834W        W36688  13.259  17.201   4.572 -0.0493 -0.1044  0.1907
17835W        W36689   2.726   2.803  12.691  0.2807 -0.5332  0.0746
17836W        W36690   8.683   8.380   4.416 -0.0447  0.1287  0.0605
17837W        W36691   7.311   5.074  11.730  0.0176  0.0034  0.1146
17838W        W36692  16.184  10.499   0.027 -0.1588 -0.2278  0.0420
17839W        W36693  12.083  16.139   5.911  0.4593  0.0831 -0.0324
17840W        W36694  13.547  14.348   0.001  0.3918  0.1875  0.2025
17841W        W36695  12.569   2.072   4.047 -0.5399 -0.1866  0.2279
17842W        W36696   7.797  17.118  10.194  0.0905 -0.2785 -0.1590
17843W        W36697   4.636  15.710   1.303  0.0967 -0.0115  0.1300
17844W        W36698  12.842  12.011   0.520  0.0963  0.0153 -0.0639
17845W        W36699  10.810  18.522  15.140  0.1773 -0.1605  0.1814
17846W        W36700  16.545  16.208   2.130 -0.0845 -0.0145  0.1309
17847W        W36701  13.225   0.624   1.750  0.0812  0.0384 -0.1428
17848W        W36702  13.720  10.497   1.186  0.3227 -0.2348 -0.0570
17849W        W36703  18.542   1.330   0.656 -0.1340 -0.2689 -0.1277
17850W        W36704  13.795   8.414  13.062  0.3299 -0.2636 -0.0950
17851W        W36705  11.619  10.688   0.948  0.0755 -0.0350 -0.0179
17852W        W36706   6.743   1.814  14.893  0.2244  0.0823 -0.4185
17853W        W36707  10.030  14.053   1.609 -0.1216 -0.2451 -0.0322
17854W        W36708   3.276   3.149  13.849 -0.0724  0.1229 -0.3399
17855W        W36709  18.195   3.029  14.608 -0.2401 -0.0302 -0.0241
17856W        W36710  14.167   7.970   0.916 -0.0119  0.0611 -0.0435
17857W        W36711   8.057  17.332  11.566  0.3334 -0.0704 -0.1440
17858W        W36712   9.525  11.920   1.688 -0.1658  0.0332  0.0779
17859W        W36713  17.537  11.804   9.911 -0.1370 -0.1627 -0.0649
17860W        W36714   5.217  13.050  12.164 -0.1890 -0.1408 -0.0460
17861W        W36715   5.311   0.360   1.852  0.3341 -0.1920  0.3081
17862W        W36716  17.679  15.229   4.308 -0.0131  0.2448  0.2230
17863W        W36717   3.144   0.990  14.932  0.1949  0.0253 -0.0771
17864W        W36718   6.883  15.934   0.260 -0.0263  0.1875 -0.1836
17865W        W36719   7.660  12.776   1.612  0.0113 -0.1413  0.2475
17866W        W36720   0.446   0.365   3.761 -0.0125 -0.4340  0.0626
17867W        W36721  12.216   5.350   1.616 -0.1773 -0.0138  0.2863
17868W        W36722   8.708  16.500  11.168 -0.0832  0.0238 -0.1434
17869W        W36723  18.190   1.667   0.425 -0.0908 -0.0508 -0.1486
17870W        W36724   8.399   8.959  11.799 -0.1094 -0.0831 -0.0976
17871W        W36725   9.697   6.912   5.242  0.2150 -0.1698  0.2235
17872W        W36726   2.068  17.287   2.940  0.0767  0.1949 -0.0769
17873W        W36727  14.890   6.803  15.421  0.0308  0.1458 -0.0292
17874W        W36728   2.015  11.136   3.788  0.0926  0.1043 -0.0970
17875W        W36729   0.845  14.080   5.274  0.0831  0.4451  0.2116
17876W        W36730   6.041  16.502  14.719  0.1900 -0.3409 -0.1508
17877W        W36731  12.399   9.784  11.397  0.1471  0.0542 -0.0019
17878W        W36732   1.619  14.238   4.089  0.0544  0.1259 -0.2470
17879W        W36733   2.020  11.650   0.689  0.4011 -0.1724  0.2063
17880W        W36734   4.389  18.029  11.616 -0.2388  0.2585  0.1109
17881W        W36735  15.534   2.321   4.770  0.2399  0.0960  0.3615
17882W        W36736   9.349  13.944  14.407  0.1221 -0.0386 -0.0058
17883W        W36737  10.360  18.378  12.214 -0.2784 -0.5354 -0.1005
17884W        W36738   0.783  10.823   4.474  0.2679  0.2783  0.0231
17885W        W36739  13.775   6.924   2.222  0.0432  0.2906 -0.1836
17886W        W36740   7.163  12.020   1.309 -0.0723 -0.1508  0.2930
17887W        W36741   0.685  11.644   0.916  0.0749  0.0958 -0.0560
17888W        W36742   0.293  10.672   1.946  0.1166 -0.1704 -0.0190
17889W        W36743   0.024   4.238  13.801  0.2859 -0.2112  0.0092
17890W        W36744   4.254  13.631  11.392 -0.3103 -0.2939  0.0736
17891W        W36745   1.185  18.296  11.297  0.1536  0.0558  0.0810
17892W        W36746   0.150   5.736  12.997  0.1530 -0.1433 -0.0164
17893W        W36747   3.448  13.323  11.311 -0.0991 -0.1214 -0.0237
17894W        W36748   6.412   6.408  14.094 -0.0012 -0.2160  0.0036
17895W        W36749   7.480  12.973  14.500 -0.3322  0.2656  0.0315
17896W        W36750  18.079  10.259   4.303 -0.2033 -0.2026  0.0528
17897W        W36751   2.648  14.748   1.408 -0.1358 -0.0222 -0.0068
17898W        W36752   8.409  14.934  14.406 -0.0741 -0.3133 -0.3727
17899W        W36753  10.807   4.229   0.776 -0.2257 -0.0829  0.2946
17900W        W36754   4.473  17.236  13.512 -0.2381  0.1010 -0.1740
17901W        W36755  18.459  13.747   0.891 -0.2289 -0.0298 -0.0126
17902W        W36756  16.578   8.371  15.242 -0.1200  0.0105  0.1010
17903W        W36757   8.006   7.234   0.224 -0.0345  0.0487 -0.1168
17904W        W36758  16.547   2.206   4.850  0.0788  0.1092 -0.0353
17905W        W36759  16.249   8.536  14.644  0.0332  0.1217  0.0358
17906W        W36760   1.287  13.227  14.661  0.0173  0.1127 -0.1058
17907W        W36761   1.135  11.780   0.152  0.2459 -0.1182 -0.0354
17908W        W36762   7.164  11.172  15.435 -0.0513 -0.0603 -0.3157
17909W        W36763   0.267   4.024  10.908  0.1303 -0.3347 -0.1082
17910W        W36764  12.724   5.483  14.121  0.1880 -0.0899  0.0574
17911W        W36765   2.822   9.690  13.510  0.2690  0.0342 -0.1225
17912W        W36766  16.041   4.231  10.450  0.3268 -0.1353  0.1380
17913W        W36767   2.010   3.193   3.180 -0.1871  0.0948 -0.1539
17914W        W36768   8.624   8.838  13.316  0.1829  0.2668 -0.0351
17915W        W36769  13.895   9.285   3.745  0.0125 -0.3668  0.1233
17916W        W36770   1.076  14.458   1.442  0.0881 -0.1292 -0.0987
17917W        W36771  14.983   3.372  13.352  0.1525 -0.0012 -0.2830
17918W        W36772   9.774   3.556   5.280  0.1477 -0.0437  0.0701
17919W        W36773   3.851  14.780   2.486  0.1663  0.0823  0.1068
17920W        W36774  14.033  12.375  11.470  0.0727  0.0147  0.1183
17921W        W36775  16.863   5.246   3.178  0.0589 -0.0686  0.0168
17922W        W36776  11.444   4.437   3.259 -0.1831 -0.0968  0.1528
17923W        W36777   0.026  10.398   0.075  0.1836  0.1574 -0.1311
17924W        W36778   4.711   2.270   1.458  0.2770  0.0388 -0.4755
17925W        W36779   2.385   8.273  10.193 -0.0579 -0.1412  0.1503
17926W        W36780   0.421  15.911  15.270 -0.0451  0.1913 -0.3118
17927W        W36781   3.005   8.293  11.664  0.0357 -0.0708 -0.1805
17928W        W36782  10.138  14.810   3.980  0.1810  0.1374  0.0798
17929W        W36783   6.300  12.551   3.959 -0.0736 -0.0051 -0.0046
17930W        W36784   3.509   2.279   0.723  0.2449  0.0137 -0.0423
17931W        W36785   1.491   6.125   1.422 -0.2544  0.0221  0.2649
17932W        W36786  14.170   0.838  13.992 -0.3326  0.1664 -0.3667
17933W        W36787  14.560   6.430   2.053  0.0922  0.1252  0.1483
17934W        W36788   7.739  16.997  11.523  0.0132  0.2739  0.0210
17935W        W36789   7.937   9.067  15.376 -0.0885  0.1647  0.0572
17936W        W36790   4.195   5.857   4.241  0.1184  0.2042  0.0574
17937W        W36791  17.111  10.556  11.801  0.1128  0.1937 -0.3806
17938W        W36792  17.520  11.189   4.375 -0.1706 -0.1169 -0.1134
17939W        W36793  14.721   2.078  13.481 -0.2390 -0.1543 -0.1278
17940W        W36794   2.924   2.579  13.918  0.2667  0.1844  0.0383
17941W        W36795   4.796   6.696   2.983  0.1810  0.4653  0.1811
17942W        W36796  15.292   2.817   3.892 -0.3159  0.0683  0.1599
17943W        W36797  14.324   6.571   2.942  0.2018 -0.0986  0.0648
17944W        W36798   6.388  11.949   1.723  0.0084  0.1824 -0.2331
17945W        W36799   9.386   1.602  11.550 -0.1143  0.1022  0.0863
17946W        W36800   1.335   4.821   3.740  0.2492  0.1387 -0.2715
17947W        W36801   1.540  11.086  12.340 -0.1648  0.0870 -0.0949
17948W        W36802  10.594   6.648  10.548 -0.1895  0.0272  0.3047
17949W        W36803  17.798  14.153   2.801  0.1649  0.2672  0.2955
17950W        W36804  10.169  16.285   0.125  0.1160  0.1670  0.0359
17951W        W36805   5.451  11.138  11.848 -0.2340  0.0522  0.0379
17952W        W36806   7.040  16.466  14.839 -0.7127  0.1955 -0.0387
17953W        W36807  18.565   1.708  12.312 -0.4176 -0.0776  0.2228
17954W        W36808  11.142  10.161   3.132  0.1049 -0.1517  0.0257
17955W        W36809   6.661  11.018   0.073  0.0289  0.0567 -0.1304
17956W        W36810   0.902   3.410   4.187 -0.1444  0.2069 -0.1534
17957W        W36811  14.095   5.646  10.731  0.2773  0.0755  0.1179
17958W        W36812  15.154  12.094   3.841 -0.0079 -0.0762  0.1118
17959W        W36813  15.672   4.188   2.779 -0.0799  0.0899  0.2116
17960W        W36814   7.417  11.162  11.627 -0.0807 -0.3390  0.0282
17961W        W36815   3.672  11.891   0.645  0.1904 -0.0793 -0.0134
17962W        W36816  17.871   2.502   2.273 -0.0256 -0.1396  0.0105
17963W        W36817   1.072  11.600   1.840  0.0210  0.0558 -0.2379
17964W        W36818  15.908   0.700   1.368  0.1213  0.0357  0.2413
17965W        W36819   1.714   3.713  12.895 -0.1368  0.4171  0.2715
17966W        W36820  17.652   9.469   4.314 -0.4653  0.5315 -0.0638
17967W        W36821   8.734  16.817  14.145  0.3096  0.1036  0.1721
17968W        W36822   7.099  11.466   2.710  0.1384  0.1082  0.0431
17969W        W36823   4.738  17.679  13.579 -0.1001 -0.1959  0.1214
17970W        W36824  15.278   6.870  14.015  0.0132  0.1624  0.0654
17971W        W36825   7.584   1.044   3.563 -0.2453 -0.2569  0.3709
17972W        W36826  18.000  16.519   0.439  0.0815 -0.3645 -0.1312
17973W        W36827   1.534   0.450  13.398  0.1724 -0.1955 -0.1989
17974W        W36828   9.691   9.336   4.440 -0.0051 -0.3229  0.2585
17975W        W36829   8.836   6.212  10.632 -0.0730  0.0165  0.0457
17976W        W36830  11.316   0.454   3.116  0.2062 -0.1410 -0.1077
17977W        W36831   6.885  11.840  11.683 -0.0634  0.0613  0.0028
17978W        W36832  10.480   1.025  14.263 -0.0908  0.2216  0.1609
17979W        W36833  17.635  13.950  11.702 -0.2335  0.2317 -0.3006
17980W        W36834   5.479  18.475   1.162  0.1206  0.0651 -0.0017
17981W        W36835  17.185   4.407   4.442  0.1015  0.0378 -0.2608
17982W        W36836  16.416   0.996  12.263  0.3224  0.1068  0.1841
17983W        W36837   6.126   6.690   1.134  0.2071 -0.1401  0.0035
17984W        W36838  14.662  15.777  13.709 -0.1600  0.1185  0.0105
17985W        W36839   1.212  16.356   0.220 -0.3690 -0.3191  0.0799
17986W        W36840  16.895  11.564   1.839 -0.0650  0.0165  0.1374
17987W        W36841  17.941  10.218   3.801  0.0503 -0.0006  0.1314
17988W        W36842  10.119  14.258   2.150  0.1445  0.0446 -0.0815
17989W        W36843   4.428   1.646   3.900 -0.5571 -0.1326 -0.0329
17990W        W36844  17.588   2.956  11.811  0.2062  0.1844 -0.1930
17991W        W36845   9.896  16.334  11.377  0.2882 -0.0609 -0.2761
17992W        W36846   6.765  11.138  11.128 -0.0158 -0.0339 -0.2069
17993W        W36847  17.102  10.823   3.507 -0.4970  0.1539  0.2927
17994W        W36848   8.865  11.981  12.464 -0.2644  0.0045  0.0033
17995W        W36849   1.969   4.053   1.721  0.2106  0.2910 -0.3335
17996W        W36850  16.451   5.421   0.484  0.2190  0.1269 -0.0070
17997W        W36851   2.681   3.933  11.955  0.0515  0.0787  0.2434
17998W        W36852   0.157   3.989   1.754 -0.0432 -0.1009  0.1502
17999W        W36853  14.163   0.221   0.139  0.1782  0.1832 -0.1066
18000W        W36854  15.550   8.542  14.910  0.0788 -0.1567  0.1070
18001W        W36855   0.715  16.007   4.052  0.1011 -0.0055 -0.1151
18002W        W36856   2.002   1.497   2.544  0.0711  0.1470  0.0835
18003W        W36857   2.015  14.875  14.612 -0.0216  0.0464 -0.1263
18004W        W36858   5.515   1.885   1.489  0.0073 -0.1194 -0.2808
18005W        W36859  17.842  13.368  12.785 -0.3177 -0.1414  0.1745
18006W        W36860   2.228   7.822   2.176 -0.2750 -0.1089  0.2425
18007W        W36861  17.791   5.177  13.546  0.2835  0.1713 -0.0935
18008W        W36862   9.022   2.244  13.670 -0.2036  0.1075 -0.2792
18009W        W36863  12.321  14.428   4.083 -0.3567 -0.1139  0.0797
18010W        W36864  17.737   8.273  10.975  0.0675  0.1256 -0.0220
18011W        W36865  16.979   8.721   0.799  0.0243 -0.2886  0.3580
18012W        W36866  15.883   7.775   2.113 -0.1113  0.2748  0.2634
18013W        W36867  12.001  13.537   4.932 -0.2048  0.0051  0.0908
18014W        W36868   6.979  10.008  14.830 -0.0884 -0.0202 -0.2696
18015W        W36869  17.996  16.293   1.358 -0.2908 -0.1202 -0.0317
18016W        W36870  17.301   9.525   0.127  0.0147 -0.0981  0.0115
18017W        W36871   3.028  13.152   2.528  0.1395 -0.4880  0.0484
18018W        W36872   1.350  15.669  12.428 -0.1185 -0.1229  0.3875
18019W        W36873  13.707   3.168  12.218  0.0326  0.0959  0.2344
18020W        W36874   1.661   4.381   2.686 -0.0722 -0.0525 -0.1082
18021W        W36875   9.868  14.405   0.251  0.1043  0.1670  0.2674
18022W        W36876   6.005   6.964  14.624  0.2995 -0.1825  0.0987
18023W        W36877  13.180   7.988  12.318  0.1036  0.0221 -0.0470
18024W        W36878   5.194  13.704   3.826 -0.1608  0.4410  0.0067
18025W        W36879   1.136   9.112   3.204 -0.0691  0.0298 -0.0848
18026W        W36880   5.400   7.015   9.927  0.2025 -0.0413  0.5693
18027W        W36881   2.750   0.612   0.474 -0.2060  0.0421  0.1047
18028W        W36882  11.651  15.115  13.295 -0.0919 -0.1058 -0.1006
18029W        W36883  17.406   8.354   1.675  0.0214 -0.3999  0.2074
18030W        W36884   4.352   7.676   3.863  0.0647 -0.0079 -0.0055
18031W        W36885   0.096   1.310  11.268 -0.1056  0.0193  0.0294
18032W        W36886  11.216   8.303  13.589 -0.0844  0.1775 -0.2183
18033W        W36887  11.585   7.723   2.279 -0.0076 -0.0809  0.2852
18034W        W36888  17.994   0.338  13.534  0.1586  0.2324 -0.0222
18035W        W36889   8.918  17.860  12.342 -0.1443 -0.1565 -0.3412
18036W        W36890  10.571  17.703  14.791 -0.1512 -0.1176 -0.2156
18037W        W36891  15.392  18.383  11.613  0.0135 -0.1832  0.2914
18038W        W36892  16.720  11.017  14.785 -0.0042  0.1779 -0.2403
18039W        W36893   9.355  13.118  15.120  0.0378  0.1591  0.2020
18040W        W36894  14.661   4.639   4.515 -0.3393  0.0328  0.0689
18041W        W36895   4.159  12.069  15.298  0.0232 -0.0025  0.0082
18042W        W36896  16.720  17.822   0.352 -0.2078  0.1863  0.1258
18043W        W36897   3.302   5.950   3.070 -0.4259 -0.1130  0.1331
18044W        W36898  10.647  13.936   1.447 -0.2456 -0.0113 -0.2551
18045W        W36899   0.662   5.056   9.750 -0.5169  0.0641 -0.0036
18046W        W36900  14.978  16.708   2.792  0.0300  0.1358 -0.1245
18047W        W36901   4.545  18.245  14.950 -0.0438 -0.2481  0.0096
18048W        W36902  11.172   2.158   1.592 -0.2193  0.2023 -0.2676
18049W        W36903   7.212  14.470   1.257  0.1073 -0.1324 -0.1389
18050W        W36904   6.233  14.764  11.679  0.0416  0.0427 -0.2677
18051W        W36905   4.071  13.597  15.377 -0.0655  0.0092  0.3985
18052W        W36906  17.530   7.526  12.641 -0.1903  0.1247  0.1645
18053W        W36907   1.527   1.342   4.602 -0.0801  0.1935  0.1992
18054W        W36908   9.108   4.055   4.175 -0.1540  0.0628 -0.1677
18055W        W36909   8.446   4.873  11.596  0.1130 -0.3081 -0.0410
18056W        W36910   6.683  15.272  11.818 -0.1089 -0.2339 -0.0524
18057W        W36911  17.674  16.861   1.399  0.1836  0.2301  0.2734
18058W        W36912   2.739  17.410  12.279 -0.3506  0.2984 -0.1525
18059W        W36913  16.960  17.029   2.499  0.1152  0.2362 -0.1026
18060W        W36914  12.011   8.731  13.334 -0.1596  0.3120 -0.0845
18061W        W36915   2.487   4.113  14.602  0.0748  0.1117 -0.0551
18062W        W36916   4.502   6.894   1.638 -0.0026  0.0331  0.1257
18063W        W36917   2.321  11.368  12.788 -0.3022  0.3962 -0.0402
18064W        W36918  17.533   3.513  10.728  0.2716  0.1109  0.1251
18065W        W36919   7.245   4.587   0.543 -0.0071 -0.1198 -0.1810
18066W        W36920   5.628   7.089  14.226 -0.1049  0.0598 -0.0766
18067W        W36921   2.324  17.012   2.601  0.1714  0.1585 -0.3808
18068W        W36922  17.203   6.209  13.352  0.0069 -0.0657  0.0377
18069W        W36923   5.023  16.142  14.644  0.1563  0.1056 -0.2303
18070W        W36924  12.183   4.600  11.864  0.1378  0.0345 -0.0473
18071W        W36925  17.025  18.212   1.021 -0.0692 -0.1107  0.0838
18072W        W36926  16.563  11.796   0.441 -0.0749  0.0803  0.3868
18073W        W36927   0.488   6.795  13.356 -0.2869  0.0557  0.0453
18074W        W36928  14.910   6.750   2.373  0.3200  0.0100  0.0526
18075W        W36929  12.911  12.562  12.331 -0.1302  0.3341 -0.1571
18076W        W36930   4.380  16.076   2.217  0.0110  0.2039 -0.0513
18077W        W36931  11.011   2.578   3.060 -0.0463  0.2562 -0.1498
18078W        W36932   6.826   0.350   4.095  0.0916 -0.1170  0.0611
18079W        W36933   5.210   4.910   1.079  0.1172  0.1222  0.1766
18080W        W36934  18.254   2.603  14.310 -0.1798  0.0892 -0.0581
18081W        W36935  12.423  15.921  12.287  0.0347 -0.0675 -0.3326
18082W        W36936   7.944  18.561  11.235  0.3506 -0.1024  0.2005
18083W        W36937  10.994   9.143   1.734 -0.1399 -0.0290 -0.1448
18084W        W36938  11.015  16.722  12.915  0.1625  0.0231 -0.2807
18085W        W36939   1.197  14.844   2.899  0.2412  0.1554  0.2470
18086W        W36940   1.467   8.633   2.404 -0.2026 -0.0075  0.0454
18087W        W36941  17.592   9.512  14.100 -0.5223  0.1793 -0.2391
18088W        W36942   4.185   1.336   1.762  0.2372 -0.1957  0.2300
18089W        W36943   8.662   2.348   4.240 -0.4151  0.3307 -0.3010
18090W        W36944   8.158   1.040   3.094 -0.2795  0.1214 -0.0158
18091W        W36945   1.594  17.441   1.024 -0.0572  0.0167  0.0398
18092W        W36946   6.021  16.056   5.307  0.0638  0.1453 -0.1552
18093W        W36947  13.392   9.798   1.870 -0.2254  0.1442 -0.0105
18094W        W36948   5.225  13.940   0.514  0.1137 -0.0636  0.1133
18095W        W36949  14.046  10.836   1.044  0.0716  0.0341  0.0588
18096W        W36950   0.424  18.535  12.311 -0.0920  0.0189 -0.0808
18097W        W36951  11.479  16.648  13.413 -0.0404 -0.1392  0.0108
18098W        W36952   4.360  12.346  11.894  0.2220  0.1867 -0.0389
18099W        W36953   0.251  13.470   1.105 -0.0042  0.1869 -0.0796
18100W        W36954   6.111   5.944  14.177  0.0763 -0.3235 -0.0314
18101W        W36955   6.503  16.057   0.661  0.1339 -0.0937 -0.2254
18102W        W36956   4.675   1.207   0.390  0.2955  0.2738 -0.2778
18103W        W36957  12.627   8.136   3.533  0.2959 -0.0158  0.2565
18104W        W36958   1.019  16.343  11.503  0.0954 -0.1183 -0.0547
18105W        W36959   0.212   8.864   2.509  0.0832 -0.0838  0.0261
18106W        W36960  13.089   3.265   1.446  0.0307 -0.0000  0.1964
18107W        W36961   5.586  13.621  11.363  0.0880  0.0747 -0.0469
18108W        W36962  18.158  12.007   2.991 -0.0596  0.1834 -0.0634
18109W        W36963   9.966  16.902  12.382 -0.0590  0.0845  0.2716
18110W        W36964   1.959   2.960  14.415  0.0714 -0.1402  0.3269
18111W        W36965   2.241   8.421  13.211  0.3380  0.5414 -0.0830
18112W        W36966   6.966   0.545  14.435 -0.2182  0.1434 -0.0990
18113W        W36967  10.265  16.902   3.244  0.1190 -0.1717  0.1053
18114W        W36968  17.311   5.937  12.350  0.3853  0.1668 -0.0215
18115W        W36969  13.374  11.407   0.938 -0.1728  0.0355 -0.2129
18116W        W36970   5.307   0.280   0.264  0.0811  0.0749  0.2986
18117W        W36971  10.058   5.107   2.117 -0.2510 -0.1042 -0.0837
18118W        W36972  17.492   8.543   0.569 -0.3141  0.1839 -0.0817
18119W        W36973   5.158   5.508  10.939  0.1887  0.0353  0.2748
18120W        W36974  10.238   4.841  13.015 -0.1259  0.1022  0.4330
18121W        W36975   0.884   0.802   1.958 -0.6634  0.1278  0.2214
18122W        W36976   3.129   4.546   1.482  0.0976 -0.0202 -0.0235
18123W        W36977   3.242   5.531   1.140 -0.1662 -0.0111 -0.0591
18124W        W36978   1.225   6.247   4.239  0.0364 -0.0562 -0.2193
18125W        W36979  14.880  11.780  11.027 -0.1353  0.0014 -0.0262
18126W        W36980   2.731   5.086   0.274 -0.3067 -0.1129  0.0983
18127W        W36981   9.000  12.111   2.269  0.0841  0.1414 -0.1189
18128W        W36982  12.702  16.092   1.376  0.2298  0.1274 -0.2724
18129W        W36983   9.921   0.435   4.146  0.0215 -0.2027 -0.1596
18130W        W36984  17.458   9.664   2.159  0.1413 -0.0599 -0.2222
18131W        W36985   3.541  17.155   2.623 -0.3499  0.0312 -0.1063
18132W        W36986  13.610  15.318  12.292  0.2368  0.1169  0.2251
18133W        W36987   7.576  13.871  12.952 -0.2310  0.2237 -0.2554
18134W        W36988  17.881  18.278   3.278 -0.4475 -0.0443  0.0170
18135W        W36989  12.913   4.502   4.871 -0.0280 -0.3813  0.0637
18136W        W36990  15.813  11.680  13.677  0.3990 -0.0955  0.2360
18137W        W36991   7.859   2.113  11.444 -0.1347  0.1052  0.1092
18138W        W36992   3.695   6.284   3.036 -0.2465 -0.1810  0.3637
18139W        W36993  11.681  12.145   1.172 -0.1978 -0.1720  0.0250
18140W        W36994  12.413   9.166   2.780 -0.0774 -0.1257 -0.0641
18141W        W36995   5.995   2.673  12.054 -0.1332 -0.0785 -0.0529
18142W        W36996  11.948   2.967   0.025  0.0158 -0.0189 -0.2525
18143W        W36997   7.760  16.035   0.966  0.3977 -0.2031  0.3362
18144W        W36998  15.920   0.978  12.955  0.0130  0.0404 -0.2268
18145W        W36999   6.481   3.037  11.291  0.3146  0.1424  0.0348
18146W        W37000  18.435   9.310   2.720  0.3237 -0.2855  0.2085
18147W        W37001   0.665   1.985  13.522  0.1107 -0.0096  0.0529
18148W        W37002   5.152   6.363   5.657 -0.3326  0.0379 -0.0126
18149W        W37003  14.260  15.984  11.707 -0.1252 -0.1714 -0.1830
18150W        W37004   5.394  10.844  12.262 -0.1786 -0.0151 -0.1804
18151W        W37005  15.698   1.958  15.445 -0.2871  0.0956 -0.2945
18152W        W37006   9.257  16.500  14.613 -0.2162 -0.3707 -0.1138
18153W        W37007   1.322   8.123   3.581  0.3085  0.4354 -0.2101
18154W        W37008   5.167   7.575  11.103  0.0206 -0.0566 -0.3520
18155W        W37009   4.072   5.624  14.609 -0.0496 -0.1905 -0.2669
18156W        W37010  18.348   8.074  13.198 -0.0946  0.0808  0.0179
18157W        W37011   1.036   7.157   1.514 -0.2766 -0.0683  0.0015
18158W        W37012  11.158  14.977   1.250 -0.0437 -0.1138 -0.0134
18159W        W37013  10.541  17.045  13.448 -0.1211  0.0860 -0.0157
18160W        W37014  12.071  11.855  13.338 -0.0550  0.0161  0.0097
18161W        W37015  16.154   7.642  14.633 -0.1309  0.0325 -0.2740
18162W        W37016   2.380  12.040  13.938 -0.0590 -0.1041  0.1961
18163W        W37017   8.415   2.631   3.935 -0.1094  0.2327  0.0953
18164W        W37018  13.431  11.891  14.334 -0.0741 -0.0558  0.2033
18165W        W37019   1.297  12.165   3.214  0.1740  0.3124 -0.2094
18166W        W37020  14.651  11.336   0.476  0.0395  0.0980  0.1024
18167W        W37021   2.750  12.193   3.559 -0.1442 -0.0100 -0.1150
18168W        W37022  14.363   0.416  10.843  0.2541 -0.0119  0.0484
18169W        W37023   0.126  14.817   0.739 -0.0503 -0.0751  0.1692
18170W        W37024   0.945   2.039  14.064 -0.1956  0.1215  0.2759
18171W        W37025   6.462   5.236   5.352 -0.0326  0.2988 -0.0623
18172W        W37026  17.120   8.794   1.820  0.1174  0.1077  0.1224
18173W        W37027  10.772  16.997   3.406  0.1319  0.0497  0.2419
18174W        W37028   5.480   5.847   1.186 -0.1156  0.4443 -0.0827
18175W        W37029  15.963  13.265  15.222  0.0399  0.1795 -0.1017
18176W        W37030   6.480   9.805   1.521  0.0728 -0.0413  0.0036
18177W        W37031  13.962  14.240   2.616  0.5144 -0.4643 -0.0966
18178W        W37032   1.446   1.612  11.210  0.1640  0.0709  0.0988
18179W        W37033   1.431  18.142  12.902 -0.1238  0.1953  0.1586
18180W        W37034   0.785   0.684   0.748  0.0349  0.0095  0.0411
18181W        W37035   0.130  17.557  14.702 -0.2611 -0.0457 -0.0849
18182W        W37036   7.980  12.635  11.562  0.1187  0.0904  0.0704
18183W        W37037  14.616  17.967  14.732 -0.0397  0.2432  0.0517
18184W        W37038  16.675  17.041  10.701 -0.0778 -0.2741  0.0169
18185W        W37039   6.665  17.562   0.013  0.0620 -0.1009  0.1689
18186W        W37040  14.361   3.768   1.697 -0.0482  0.1754 -0.0871
18187W        W37041  18.532  16.392  14.033 -0.1796 -0.1246  0.0847
18188W        W37042  12.286  10.796  14.442 -0.2291  0.1041  0.0174
18189W        W37043   7.603  14.838  13.405  0.0786  0.1884 -0.1354
18190W        W37044  15.484  14.451  12.966 -0.0809  0.1552  0.0358
18191W        W37045  16.628  14.225   4.091  0.0446  0.2195 -0.2740
18192W        W37046   1.305   1.193   4.224  0.0850 -0.0925 -0.0988
18193W        W37047   2.395  17.423   2.346  0.1227 -0.0549 -0.2444
18194W        W37048   7.713   1.005   2.841  0.0650  0.1928 -0.1080
18195W        W37049  18.243  16.099   3.913 -0.3378  0.0511  0.0911
18196W        W37050   4.119  17.830  13.023 -0.0372 -0.0706 -0.0473
18197W        W37051  17.228  14.014   2.865  0.2863  0.2839  0.0374
18198W        W37052   7.686  17.630   3.830  0.0517  0.0631 -0.1228
18199W        W37053  18.395  12.856  15.095 -0.0443  0.2637  0.1715
18200W        W37054  10.535   3.414   3.037 -0.2384 -0.1634  0.3471
18201W        W37055  13.999  14.022  11.035 -0.2737 -0.1020 -0.3497
18202W        W37056  10.792  10.309   2.773 -0.0120  0.1922 -0.0509
18203W        W37057  15.664   1.669   0.767  0.0961  0.0657 -0.0409
18204W        W37058  14.177  12.498   0.741 -0.1819  0.0941 -0.0750
18205W        W37059  10.423   8.844  12.501 -0.0006  0.1803 -0.1233
18206W        W37060  16.631   5.563  10.270 -0.2483 -0.0109 -0.2717
18207W        W37061   2.925   9.799   3.699  0.0215  0.0567  0.0485
18208W        W37062  17.707   4.480  11.871  0.0250 -0.1916  0.1779
18209W        W37063   7.032   7.775  14.033  0.0520  0.1136  0.0781
18210W        W37064   0.280  10.539   3.018  0.0299 -0.0193 -0.0559
18211W        W37065   2.094  10.004  12.437  0.0108 -0.0650 -0.1088
18212W        W37066   0.817   2.969  11.533  0.1339 -0.0226  0.2027
18213W        W37067  14.757  13.560   3.818  0.1201  0.1663 -0.0532
18214W        W37068   7.312  18.279  12.414  0.1014 -0.4062  0.1466
18215W        W37069  17.581   8.850   1.486 -0.2251  0.0744  0.0959
18216W        W37070   1.268  16.248   0.761 -0.2176  0.0077 -0.2382
18217W        W37071   8.977  17.177   0.184  0.0995 -0.0926  0.2306
18218W        W37072   7.959  16.103   3.176  0.2797  0.2761 -0.2264
18219W        W37073   9.516  18.092   2.190  0.1055 -0.0852 -0.0207
18220W        W37074   5.292   1.650   2.479 -0.3705  0.1648  0.2930
18221W        W37075  15.950   0.334  11.146  0.1373 -0.0112 -0.0387
18222W        W37076  11.809   6.399  13.242 -0.0957  0.0486  0.1517
18223W        W37077  11.294  13.049  13.105 -0.1369  0.1909  0.2889
18224W        W37078   1.291  17.567   0.593 -0.1255 -0.1967  0.0412
18225W        W37079   1.589   8.340   1.561 -0.0801 -0.1141 -0.2918
18226W        W37080  11.870   5.222  14.518  0.0405 -0.2132 -0.2103
18227W        W37081  12.981   2.486  10.315  0.3558  0.2051 -0.0050
18228W        W37082  14.380  10.911   2.308  0.6748  0.0685  0.2197
18229W        W37083  18.280  16.239   3.347 -0.0691  0.1460  0.0950
18230W        W37084  11.685  10.848  11.823 -0.0431 -0.0320  0.1336
18231W        W37085   7.151   1.851  11.207  0.2599 -0.0562 -0.0937
18232W        W37086  10.872   7.970   4.272  0.0702 -0.2036 -0.0853
18233W        W37087  18.354   4.652   2.842 -0.0770  0.0780 -0.3155
18234W        W37088  15.966   0.057   3.538 -0.0412 -0.0260 -0.2198
18235W        W37089  12.306  16.893  13.667  0.0168 -0.0599 -0.1038
18236W        W37090   0.617   1.701  14.533 -0.0734 -0.0872  0.1526
18237W        W37091   9.571   4.435   0.752 -0.2112  0.0802 -0.0454
18238W        W37092   9.615   1.598   5.098 -0.0537 -0.0813  0.0336
18239W        W37093   3.953   2.071   2.411 -0.2339  0.0157  0.2068
18240W        W37094   5.971   0.472   1.996 -0.1849 -0.3183  0.1047
18241W        W37095  14.104   8.475  14.472 -0.1411 -0.0716 -0.0411
18242W        W37096  16.807   2.612  13.813 -0.1158  0.2559  0.0856
18243W        W37097   0.801   2.156   2.889 -0.0774  0.1137 -0.1193
18244W        W37098  11.694   9.408  12.101  0.0109 -0.0127  0.2249
18245W        W37099   1.700   0.806  14.323  0.1254 -0.0244  0.1909
18246W        W37100  14.107   0.293   1.893 -0.0111  0.0200 -0.0089
18247W        W37101   5.924   3.229   1.566  0.0739 -0.1340  0.2268
18248W        W37102   5.114   7.951  14.136 -0.0062 -0.0297  0.0496
18249W        W37103   6.061  15.084  12.437 -0.3704  0.1806  0.1827
18250W        W37104  16.088  18.423  12.212 -0.1027  0.0829 -0.1109
18251W        W37105  12.930   9.620   0.291 -0.1119 -0.2857  0.1331
18252W        W37106  13.880  10.168  13.875 -0.1569 -0.0804 -0.2718
18253W        W37107   7.081  10.667   0.092  0.1336  0.1753  0.0464
18254W        W37108   2.689   0.661   3.375 -0.0396  0.0684 -0.1021
18255W        W37109   9.349  12.747   4.848  0.4030  0.2829  0.1998
18256W        W37110  17.036   2.815  14.843  0.0268 -0.2254 -0.1672
18257W        W37111   0.481  15.711  13.111 -0.0926 -0.2829 -0.0712
18258W        W37112  16.465   4.302  11.174 -0.0774 -0.0875 -0.1921
18259W        W37113  14.353  11.614  14.291 -0.0134 -0.0441  0.5556
18260W        W37114   4.684   4.160   1.971  0.1216  0.1084  0.3031
18261W        W37115   0.323  10.058  13.323 -0.2143 -0.0708 -0.1116
18262W        W37116   8.494   7.463  14.395 -0.0825 -0.0579  0.1078
18263W        W37117   0.820   5.870   4.440  0.0588 -0.2163 -0.1107
18264W        W37118   1.534  13.950  11.639  0.2761  0.2733  0.1482
18265W        W37119  18.408  15.698  13.651 -0.1714 -0.0245  0.1407
18266W        W37120   7.372  17.604  14.083 -0.4227  0.1591  0.0282
18267W        W37121  13.342  11.598   3.464  0.1026  0.0261  0.2597
18268W        W37122  16.966   2.667  12.356  0.2286  0.0076 -0.0919
18269W        W37123  14.796  12.876  14.158 -0.0008  0.2717  0.2170
18270W        W37124  16.782   0.464  12.519  0.2842 -0.0776 -0.0255
18271W        W37125  15.964  10.041   1.705  0.0599  0.0078 -0.2155
18272W        W37126   4.901   5.927  13.136  0.3169 -0.0606 -0.1967
18273W        W37127   0.138   4.710  14.033  0.0560 -0.0983 -0.0427
18274W        W37128   1.189  11.003   3.554  0.0667  0.0963  0.1250
18275W        W37129   9.106  10.294  13.436 -0.0677  0.6600 -0.0408
18276W        W37130   2.076   7.377  12.180 -0.4010  0.2600 -0.0740
18277W        W37131  16.827   1.942  14.155  0.1297  0.0629  0.0405
18278W        W37132   2.930  18.410   3.759  0.0196  0.0973 -0.0660
18279W        W37133   8.878   7.503  15.314 -0.1647 -0.0710 -0.2377
18280W        W37134   8.490  10.573  12.547  0.1453 -0.0867 -0.0845
18281W        W37135  11.038  11.553  13.555 -0.1050  0.1574  0.1124
18282W        W37136   8.433  14.043  11.173 -0.1102  0.0491  0.0729
18283W        W37137   5.570   9.804   4.557  0.0412  0.0976  0.4924
18284W        W37138   2.288  11.316   2.502  0.2137  0.2546 -0.0284
18285W        W37139  18.241   1.266  12.317 -0.0342 -0.1410  0.0403
18286W        W37140  16.726   5.604   2.816 -0.0935  0.1996  0.0869
18287W        W37141  10.192  14.961   4.502  0.0185 -0.0092  0.0211
18288W        W37142   9.296   9.793   3.879  0.0057  0.2162 -0.2438
18289W        W37143   8.579  12.429   1.801  0.1143  0.1435 -0.0058
18290W        W37144  14.036   6.530   1.839  0.1361  0.1460 -0.1547
18291W        W37145   0.020   6.978   0.076  0.0298  0.0690  0.0027
18292W        W37146   2.871  14.291   0.433  0.2747  0.2961  0.3568
18293W        W37147  12.167  14.790  13.636  0.2155  0.0712 -0.2436
18294W        W37148   2.516  18.067  13.807  0.0735  0.1585  0.1745
18295W        W37149  16.657   5.198   4.122 -0.1550  0.1933  0.1652
18296W        W37150  12.667   0.324   4.698 -0.0065  0.1059 -0.1008
18297W        W37151   8.614   5.004   4.810  0.0240 -0.3180 -0.1641
18298W        W37152   9.548  11.263  11.897 -0.0573 -0.2950  0.1440
18299W        W37153   8.615  11.527  14.639 -0.2079  0.3636 -0.1119
18300W        W37154   0.064   2.602   3.270 -0.3201  0.2059 -0.0894
18301W        W37155   0.402  13.043  13.482  0.1886 -0.0512  0.0727
18302W        W37156   8.579  14.098   4.754 -0.0176 -0.2529 -0.1895
18303W        W37157   1.342   8.505   1.089 -0.1231  0.2627  0.1512
18304W        W37158  13.237  13.249  14.097  0.0458  0.3350 -0.1720
18305W        W37159  10.359  10.983  14.668  0.0520 -0.4005 -0.1027
18306W        W37160  12.810   4.698   1.460  0.1999 -0.1448 -0.0541
18307W        W37161  11.702  14.149   2.238  0.2823  0.1110 -0.2700
18308W        W37162   3.905   3.441  15.404  0.0853 -0.0535 -0.1996
18309W        W37163   3.091   4.051  12.270  0.0667 -0.0840 -0.1531
18310W        W37164  10.433  17.680   2.112  0.2313 -0.0524  0.2139
18311W        W37165   9.509   3.705   3.213 -0.2331  0.2042  0.0182
18312W        W37166  18.538  12.916   0.469 -0.0774  0.0549  0.0952
18313W        W37167   6.876  18.414   2.288  0.1535 -0.1017 -0.0486
18314W        W37168  14.273   4.115   2.934  0.2944  0.1240 -0.1460
18315W        W37169  17.706   5.608  11.884 -0.0326 -0.1010  0.0340
18316W        W37170   9.404  17.853  12.365 -0.0909 -0.0195 -0.2468
18317W        W37171   3.632  12.261   4.028  0.2669  0.0643  0.1832
18318W        W37172   0.570   1.010   4.580 -0.1092 -0.0401 -0.1391
18319W        W37173  16.715   7.304  13.530 -0.1310  0.0612 -0.0438
18320W        W37174  13.332   1.277   0.630 -0.2364 -0.1675 -0.0150
18321W        W37175   4.943   7.387  13.829 -0.0898  0.0435  0.0176
18322W        W37176   7.115   8.761   1.764  0.1329 -0.0726 -0.2063
18323W        W37177  14.743  12.647  11.325 -0.1314  0.1097  0.0343
18324W        W37178   8.934  17.971   0.752  0.1517  0.0107  0.0536
18325W        W37179   5.611  14.215   1.507  0.0495 -0.1504 -0.2462
18326W        W37180   9.654   0.244   0.552  0.1426  0.0523  0.0535
18327W        W37181  17.074   0.906  13.708  0.1921  0.1785  0.1305
18328W        W37182  15.315   2.790   4.840 -0.0693  0.0184 -0.0704
18329W        W37183   5.697   0.854  13.361 -0.1768  0.1738 -0.1144
18330W        W37184  12.828  15.570  14.625  0.1474 -0.2173 -0.0678
18331W        W37185   5.105  14.014  14.222  0.3287 -0.1090 -0.3053
18332W        W37186   2.065   3.854   2.599 -0.1732 -0.3774  0.5103
18333W        W37187  10.772   4.844  13.832 -0.1417  0.3477  0.2121
18334W        W37188   8.577   2.970   1.593  0.0480 -0.3887 -0.1851
18335W        W37189   6.398  11.141   0.496 -0.0199  0.0079 -0.2187
18336W        W37190   3.873   7.515  14.397 -0.1453  0.1408  0.4780
18337W        W37191  15.236  14.001  15.068 -0.0757 -0.3354 -0.2230
18338W        W37192   6.090   5.313  14.599 -0.1146  0.2869  0.1124
18339W        W37193  18.508   2.641  10.565 -0.0596  0.0769  0.1412
18340W        W37194   0.747  10.902  13.129  0.1506 -0.0397  0.0943
18341W        W37195  17.822   9.100   3.907 -0.1526 -0.0187  0.3414
18342W        W37196   5.837  15.708  12.833  0.3137 -0.0347 -0.0990
18343W        W37197   5.167   4.255   1.849 -0.3196 -0.0546  0.0855
18344W        W37198  11.189  18.256  12.825  0.0527  0.1028 -0.0310
18345W        W37199  12.324  14.254  12.434  0.0096  0.1766 -0.1765
18346W        W37200  15.187   9.288   2.717 -0.2649 -0.0213  0.1598
18347W        W37201   3.878   2.634  13.599 -0.1255  0.0865  0.2006
18348W        W37202  11.281  13.099   4.146 -0.2602 -0.0829 -0.0001
18349W        W37203   5.093   9.163  13.346 -0.1553  0.1458 -0.2171
18350W        W37204  12.828   8.792  14.251  0.1710 -0.3225  0.0914
18351W        W37205  14.748   0.518  11.101 -0.0000 -0.0735 -0.1096
18352W        W37206  10.136  18.216  12.678 -0.1299  0.2787 -0.1050
18353W        W37207   9.311  18.171  14.766 -0.0540  0.0567  0.0051
18354W        W37208   6.920   6.994   4.572  0.0527  0.1052 -0.1666
18355W        W37209   5.277   0.514  15.177 -0.0154  0.2634  0.2041
18356W        W37210  14.710   3.480   4.251 -0.2980 -0.1869 -0.0218
18357W        W37211   8.534  12.955  15.401 -0.0920 -0.1086  0.1173
18358W        W37212   6.076  15.338   1.660 -0.0345 -0.0066 -0.2301
18359W        W37213  15.346  15.868   1.635  0.1863  0.1346  0.1778
18360W        W37214  10.928  10.402  11.383  0.0295  0.2414  0.0238
18361W        W37215   0.417  14.985   3.515  0.0033  0.2033  0.0475
18362W        W37216   9.502  11.172   1.177  0.1519 -0.2186 -0.1263
18363W        W37217  10.379  13.076   3.029  0.0775  0.0012  0.0998
18364W        W37218   1.603  16.858   3.714 -0.2096 -0.0417  0.0156
18365W        W37219   0.463   1.303   1.235 -0.0373 -0.1657  0.0157
18366W        W37220   0.831   3.543  11.872  0.3851 -0.2861 -0.2929
18367W        W37221   0.671   4.536   4.026  0.2490  0.1572 -0.3509
18368W        W37222   0.662  15.877   2.283 -0.5248 -0.0474 -0.0617
18369W        W37223   3.272   1.969   1.663  0.0230  0.1131  0.4868
18370W        W37224  15.466  15.199   4.395 -0.0233 -0.3785  0.0917
18371W        W37225   1.507   4.325  12.454  0.0747  0.1317 -0.1082
18372W        W37226   4.429   5.349   2.555 -0.2094 -0.1163 -0.1306
18373W        W37227   9.109   8.502   4.128  0.0049 -0.1042  0.1005
18374W        W37228   7.293   4.558   3.826  0.0921 -0.0546 -0.0985
18375W        W37229  17.368  15.323  15.220  0.0093  0.0045  0.2148
18376W        W37230   9.411   1.823  13.538  0.2206 -0.1383 -0.1488
18377W        W37231   9.165   2.018   2.574  0.1267 -0.0678  0.0495
18378W        W37232   5.076  10.123   4.353  0.0308 -0.0620 -0.1541
18379W        W37233  12.085   5.038   2.543 -0.2748  0.1038 -0.2734
18380W        W37234   0.154  17.205  13.780  0.0238  0.1416  0.3559
18381W        W37235  15.991  16.530  11.635 -0.2457 -0.1265  0.2909
18382W        W37236   0.603  13.270  12.382 -0.0489  0.0773 -0.0542
18383W        W37237   3.566  11.334   2.046  0.2003 -0.1333  0.3214
18384W        W37238   3.279   5.154   4.732  0.2942 -0.1421  0.0137
18385W        W37239   2.949   3.115  11.539 -0.0398  0.0951 -0.0558
18386W        W37240   1.575   3.963   1.267  0.2782 -0.4325  0.0621
18387W        W37241  12.557   2.164   3.540  0.1871  0.0605  0.2641
18388W        W37242   6.683  14.987   2.298 -0.0455 -0.1836 -0.1236
18389W        W37243  15.004   1.288   3.369 -0.0857 -0.1036 -0.0642
18390W        W37244  12.124  13.903  13.483 -0.0748  0.0089  0.1464
18391W        W37245  17.088   8.400  14.136 -0.1362  0.0445 -0.0700
18392W        W37246   8.612   7.401  13.231 -0.2007  0.3575  0.0519
18393W        W37247  12.743  14.270  14.806  0.0440  0.0925  0.0382
18394W        W37248  17.715   7.305  10.912 -0.0715 -0.2117  0.3030
18395W        W37249  10.616  13.254   0.455 -0.1599 -0.0014  0.1058
18396W        W37250   1.818   4.851  14.279 -0.1275  0.1039  0.2410
18397W        W37251   8.912  15.060   9.992 -0.0788 -0.1059  0.0957
18398W        W37252   9.903   9.132   3.219  0.0492  0.0673  0.2043
18399W        W37253   9.323   1.296  14.334 -0.2673 -0.1967 -0.2656
18400W        W37254  11.376   0.215   3.635 -0.0260  0.1233 -0.0521
18401W        W37255  17.563  18.120   4.293 -0.0904  0.4022 -0.0728
18402W        W37256   2.436  16.344   0.732  0.2906 -0.1167  0.0531
18403W        W37257  10.701  16.812   2.554 -0.1114  0.1610 -0.0727
18404W        W37258   8.909  13.967  12.523  0.0813 -0.0359  0.0573
18405W        W37259  15.854  11.264  11.857 -0.0812  0.0193  0.0147
18406W        W37260   2.283  17.377  14.628  0.2220  0.0133 -0.1115
18407W        W37261   4.857   6.263  11.809  0.4234 -0.1313 -0.0017
18408W        W37262   4.864  16.205   3.927 -0.0767 -0.1323  0.0182
18409W        W37263   0.478   4.725   3.594  0.0077  0.1692 -0.0976
18410W        W37264   0.994   2.942  14.469 -0.0513 -0.2453 -0.0901
18411W        W37265  15.883   4.885  12.817 -0.1066  0.0396  0.2138
18412W        W37266  11.663   6.256  13.699 -0.0621  0.2755  0.1710
18413W        W37267  14.557   3.633   0.865 -0.0811 -0.1509 -0.2021
18414W        W37268   8.390  11.844  15.034 -0.1727 -0.0092 -0.0906
18415W        W37269  15.646  11.848  15.235 -0.0694 -0.2783 -0.1837
18416W        W37270   4.530   3.035   0.494 -0.0480  0.3245 -0.1420
18417W        W37271  17.382   0.567  11.200  0.0159  0.0160 -0.3159
18418W        W37272  10.135  11.008  12.617  0.1170  0.0723 -0.0202
18419W        W37273   7.671   2.713   1.866  0.1704  0.1247 -0.0667
18420W        W37274   2.317  14.487  13.891  0.0429 -0.0946  0.2157
18421W        W37275  10.968   0.346  11.230 -0.2118 -0.1212  0.0313
18422W        W37276  16.744   6.858   5.656  0.0315 -0.0178  0.0127
18423W        W37277   6.702   0.823  14.762 -0.1127  0.0752  0.2327
18424W        W37278   6.756  16.780   1.449 -0.2540  0.0375  0.0202
18425W        W37279   7.153   0.810  13.493 -0.2497  0.3731 -0.1685
18426W        W37280   3.796  10.185   3.743  0.1926 -0.0933  0.1374
18427W        W37281  17.941  15.482   2.808  0.0873  0.1392 -0.2603
18428W        W37282   3.136   0.752   0.206  0.0350  0.2581  0.0098
18429W        W37283  15.513  13.255  11.486 -0.1732 -0.1394 -0.1316
18430W        W37284   4.302   7.085   3.502 -0.0155 -0.0585  0.2432
18431W        W37285  15.948  14.158  15.074 -0.1776 -0.0518 -0.1313
18432W        W37286   6.670  13.280   0.559  0.0289  0.0289  0.0079
18433W        W37287   3.205  15.845   3.296  0.1976 -0.1867 -0.0753
18434W        W37288   4.470  14.428  13.929 -0.1666 -0.4725  0.0938
18435W        W37289   7.146   5.461   3.375 -0.1532  0.0682  0.1019
18436W        W37290   0.184  18.456  10.831 -0.1270  0.1429 -0.0540
18437W        W37291  12.772   1.337  11.527 -0.1731  0.0003 -0.0088
18438W        W37292  14.002  17.373   2.782  0.2097  0.0911  0.0486
18439W        W37293  11.615   7.838   0.918 -0.0721 -0.0172 -0.1418
18440W        W37294  12.774   3.470   2.301 -0.0884 -0.0306  0.2460
18441W        W37295   5.736  15.316   0.008  0.1099  0.0261 -0.1175
18442W        W37296   0.420   9.192   0.142  0.0926 -0.0887 -0.0145
18443W        W37297  15.382   8.941  14.521 -0.0147 -0.2227 -0.1552
18444W        W37298  15.608   8.775  11.318 -0.0393  0.0388 -0.1888
18445W        W37299  13.795  12.845  11.974  0.0703  0.4056 -0.1429
18446W        W37300  16.128   0.367  14.992  0.1581 -0.1039  0.0016
18447W        W37301   6.440  13.424   1.467  0.1038 -0.1426  0.0454
18448W        W37302  14.951  13.039   4.403  0.0703  0.1207 -0.0621
18449W        W37303   5.483   8.095  13.814 -0.0378 -0.0434  0.1820
18450W        W37304   6.271  16.574  11.513 -0.2939  0.0212  0.2232
18451W        W37305   5.973   9.813   0.601 -0.0479 -0.2929  0.1077
18452W        W37306  16.863  11.210  12.603  0.2367  0.3227 -0.0723
18453W        W37307  15.353  14.254   3.478  0.3224 -0.0712  0.4545
18454W        W37308  13.475  14.102  12.202 -0.3330 -0.0748  0.3496
18455W        W37309   5.352   8.587  13.596 -0.0005 -0.3736  0.1519
18456W        W37310   4.605  12.579   4.444 -0.0579  0.1547  0.3315
18457W        W37311  10.811  10.551  11.904  0.0377 -0.2457  0.0153
18458W        W37312   8.441   6.706   1.883 -0.1411  0.1054 -0.0391
18459W        W37313  14.148  18.148  14.829  0.1062  0.0589 -0.0189
18460W        W37314   3.795  11.051  14.100  0.4410  0.1727  0.0673
18461W        W37315  10.337  18.429  11.581  0.0784 -0.0954  0.0195
18462W        W37316  10.495  18.413   1.055  0.2487  0.0191 -0.1037
18463W        W37317  17.169  10.610   1.772  0.0898  0.0787 -0.0759
18464W        W37318   8.931   2.627   0.851  0.1798  0.0903  0.0581
18465W        W37319   8.172  16.968  14.465  0.0344  0.1888  0.1598
18466W        W37320   8.152   6.429   3.181 -0.1831  0.2463 -0.1219
18467W        W37321   4.715   7.977  12.760  0.3613 -0.1855  0.1407
18468W        W37322  13.712   8.370  11.171  0.0069  0.0277 -0.0660
18469W        W37323   6.838  14.866   4.120 -0.1475 -0.4407  0.1737
18470W        W37324   2.029   4.215  12.363  0.2463  0.0298  0.0065
18471W        W37325  10.964  11.469  14.045  0.0543 -0.0635  0.2678
18472W        W37326   6.272   0.502  12.137  0.2862  0.0970 -0.2614
18473W        W37327  15.055  16.221   2.938 -0.1158  0.0530  0.1942
18474W        W37328   4.924   0.271   3.446  0.0187 -0.2571  0.0110
18475W        W37329   3.173   0.429   2.532  0.2342 -0.3251 -0.2109
18476W        W37330   9.353  10.016  11.532 -0.0344 -0.0960  0.0216
18477W        W37331  14.346   4.956   2.530 -0.1331  0.0134 -0.0218
18478W        W37332  11.419  16.655  11.129  0.0270  0.3529 -0.3475
18479W        W37333  14.018  11.647   4.859 -0.2822  0.3062  0.0452
18480W        W37334  14.357  16.963  13.061 -0.0090  0.2901 -0.1429
18481W        W37335  10.085   9.440  11.772 -0.0971 -0.1248  0.0394
18482W        W37336  15.557  16.392   4.523  0.2212 -0.1883  0.0332
18483W        W37337  14.990   8.061  11.056  0.2226  0.2340 -0.1648
18484W        W37338   2.274  16.571  13.274 -0.1367 -0.3436 -0.0127
18485W        W37339   2.524   6.558  14.129 -0.1823  0.1107 -0.1293
18486W        W37340  17.445  10.449   2.835  0.0952 -0.3438 -0.3389
18487W        W37341  15.819   7.428   2.501 -0.0932 -0.1941  0.2088
18488W        W37342  17.884   4.011  11.660  0.1392 -0.0774 -0.0532
18489W        W37343  15.875   3.713   3.078  0.0414  0.0097 -0.0375
18490W        W37344  10.833  15.128  12.490 -0.0875 -0.2277  0.2548
18491W        W37345   0.724  11.835  12.640  0.0506 -0.0144  0.1801
18492W        W37346   4.026  16.783  10.973 -0.1656  0.3059 -0.0214
18493W        W37347   2.036   7.299  15.108  0.1016 -0.2439 -0.2418
18494W        W37348  16.158  18.530  12.758  0.2110  0.0294 -0.3216
18495W        W37349   9.628   2.588  14.636  0.1741 -0.1150  0.2426
18496W        W37350  15.158  14.562  10.861 -0.1144  0.1255  0.4262
18497W        W37351  15.129   8.633   2.311 -0.2409  0.1409  0.1393
18498W        W37352  13.339  12.594  13.303  0.0444  0.0798 -0.0899
18499W        W37353  18.161  14.573  13.456 -0.2439 -0.2084 -0.1076
18500W        W37354   7.382   9.802   4.554 -0.0602 -0.4595 -0.1026
18501W        W37355  11.965  11.081  12.756 -0.0164  0.2675  0.3235
18502W        W37356   0.619   5.345  14.531 -0.2437  0.0309  0.0413
18503W        W37357  14.603   7.187   0.383 -0.0393 -0.3576  0.0709
18504W        W37358   0.486   9.990  12.745 -0.3318  0.3811 -0.1333
18505W        W37359   0.982   7.954  12.784 -0.1265 -0.1434  0.1762
18506W        W37360   5.561  16.479  12.501 -0.0432 -0.0396 -0.0028
18507W        W37361   9.985   2.833  14.235 -0.0126  0.1564 -0.0770
18508W        W37362  13.131  16.114  10.551 -0.1210  0.1463  0.0405
18509W        W37363   3.715   9.100   0.392 -0.2251  0.1833  0.0569
18510W        W37364   7.523  13.472   1.029 -0.0951  0.2800  0.0764
18511W        W37365  12.493   4.579   3.231  0.0159 -0.0406 -0.2215
18512W        W37366   2.119   2.245  12.140  0.2332 -0.0250  0.2096
18513W        W37367   0.445   6.430  14.815  0.1151  0.0714  0.3448
18514W        W37368   3.795   8.015  12.752  0.1311  0.1020  0.2475
18515W        W37369  14.881   7.090  11.641 -0.1950  0.0475 -0.2249
18516W        W37370   1.290  10.708   4.440 -0.0418  0.0011  0.4058
18517W        W37371  16.885   7.278  11.855  0.1025  0.1567 -0.1318
18518W        W37372  17.060   5.887  13.712 -0.3633 -0.2298  0.2379
18519W        W37373  17.830   3.247  14.975  0.0805 -0.0629  0.1551
18520W        W37374  16.905  14.022  15.449 -0.0390  0.0757  0.1055
18521W        W37375  14.011   8.792  15.417  0.1424  0.1048  0.0245
18522W        W37376  13.426  10.027   2.263  0.2065 -0.4435  0.0786
18523W        W37377   6.215   6.464  11.945  0.2203  0.0382  0.0567
18524W        W37378   4.533  11.724   2.407 -0.1701  0.1545 -0.0279
18525W        W37379   1.692   7.110   0.448  0.4670  0.0179 -0.0330
18526W        W37380   5.490   4.897   0.655 -0.0808  0.1027  0.0535
18527W        W37381   0.072  17.975   3.604 -0.2489 -0.0309  0.1917
18528W        W37382  15.776  10.714   1.072 -0.0728 -0.2115  0.0545
18529W        W37383   7.044  10.296   2.874 -0.1289 -0.1081 -0.0124
18530W        W37384  18.378  11.395   3.848 -0.0512  0.0506  0.2603
18531W        W37385   7.681   6.579  12.798  0.2974  0.3842  0.1671
18532W        W37386  18.489  10.845  11.950  0.0775  0.3313 -0.0126
18533W        W37387   3.046   0.004   1.060 -0.0327 -0.0175 -0.1083
18534W        W37388   6.100   4.341  14.560  0.0863  0.0462 -0.1703
18535W        W37389  11.748  15.377   4.360  0.4322  0.0435 -0.0466
18536W        W37390  17.172  17.969   0.121 -0.0656  0.1832 -0.0456
18537W        W37391   5.621   8.124   1.206  0.2959  0.1074  0.1108
18538W        W37392   9.438   0.576   4.284 -0.1658  0.1124  0.1356
18539W        W37393   6.041   4.063   3.787 -0.0443  0.0521  0.5535
18540W        W37394   7.591   9.688  13.427 -0.2681  0.0123  0.0589
18541W        W37395   4.066  11.921   4.227 -0.0459  0.1494  0.0523
18542W        W37396  17.662  14.361  10.309  0.0144  0.1057 -0.0919
18543W        W37397   9.632   0.237   2.138  0.0803 -0.1279 -0.0306
18544W        W37398  11.058   5.779  11.703 -0.0858 -0.2920  0.2081
18545W        W37399   3.249  10.367   1.956 -0.1912  0.0706 -0.0769
18546W        W37400   0.478   2.973   0.204  0.1781  0.2102  0.1922
18547W        W37401   8.665   3.598   4.262  0.0204 -0.1676  0.0577
18548W        W37402   6.709   4.020  12.627  0.0444 -0.5897  0.0309
18549W        W37403   9.867  15.384   4.417 -0.2570  0.0238  0.3109
18550W        W37404  10.538   5.971   2.685 -0.1618 -0.0896  0.0415
18551W        W37405  18.556   0.769   0.669 -0.0627 -0.1547  0.1705
18552W        W37406  17.984  10.081  13.548 -0.2036  0.1321 -0.0465
18553W        W37407   0.150   0.740  12.980  0.2832 -0.0134  0.0952
18554W        W37408   8.114   7.065  13.690  0.2723  0.3221 -0.1209
18555W        W37409   4.405  11.469   1.613 -0.0908  0.0863  0.1979
18556W        W37410   3.223  11.561  14.918 -0.0733 -0.1653 -0.1104
18557W        W37411  17.388   2.339   1.338 -0.2778 -0.1173  0.0427
18558W        W37412   4.149  16.245  14.460 -0.0327 -0.0681 -0.2517
18559W        W37413  17.744   6.454  13.484 -0.0952 -0.1875  0.1425
18560W        W37414  12.178   8.322   2.396 -0.1828 -0.1926 -0.2685
18561W        W37415  18.282   5.699  10.671 -0.0926 -0.1625  0.0006
18562W        W37416  17.730   2.744   1.546 -0.2218  0.1063  0.2161
18563W        W37417   6.489  16.594   4.450  0.0384  0.1400  0.2375
18564W        W37418  17.269   1.909  11.471  0.1273 -0.2200  0.2872
18565W        W37419   7.318  17.247  10.283 -0.0799  0.2502  0.1546
18566W        W37420  13.142   5.652  12.239  0.0802  0.2168  0.2110
18567W        W37421  12.641  15.427   4.152  0.3911 -0.0514  0.0183
18568W        W37422   2.452  10.679  14.391  0.2978 -0.0922  0.3074
18569W        W37423   4.732  12.840   3.758 -0.4506 -0.0767  0.1196
18570W        W37424  14.377  11.980  13.942  0.1190  0.2920  0.2030
18571W        W37425  16.766   3.499  13.472 -0.0433 -0.2343  0.1721
18572W        W37426  10.524   8.891   0.466 -0.1495 -0.2348  0.0801
18573W        W37427  10.104  11.390  13.870  0.3408  0.1274  0.2157
18574W        W37428   2.401  17.511  13.522  0.0448  0.0743 -0.0373
18575W        W37429   5.240   6.884   3.228 -0.4286 -0.4027  0.1589
18576W        W37430   9.368   6.956   3.894 -0.2067 -0.1203  0.0061
18577W        W37431   8.865   0.006  11.364  0.1583  0.4560  0.0867
18578W        W37432  13.547   4.849  15.146 -0.3574  0.1674  0.0018
18579W        W37433  14.372   0.187  13.166  0.1425 -0.0516  0.1395
18580W        W37434   2.529   3.427  11.331 -0.3488  0.1399 -0.0816
18581W        W37435   7.336   0.727  12.152  0.2241 -0.5982  0.1133
18582W        W37436  13.810   7.666  15.201 -0.3192  0.1951 -0.0860
18583W        W37437  11.886   0.689   0.333  0.0246  0.0099  0.1578
18584W        W37438   9.659   4.872   0.536  0.1223 -0.0749 -0.0619
18585W        W37439  15.584  17.136   2.144 -0.1541  0.0256  0.0693
18586W        W37440  10.317  15.373  14.342  0.0792  0.1265 -0.1063
18587W        W37441  16.423  16.898   0.918  0.0283  0.0815  0.2763
18588W        W37442   7.800  17.100   4.612 -0.2017 -0.4009  0.1366
18589W        W37443  16.178   8.556   1.721 -0.1069  0.2395  0.0019
18590W        W37444   7.954  11.804  11.082  0.0813  0.2041 -0.5875
18591W        W37445   8.892  16.200  13.016  0.0809  0.0535 -0.0501
18592W        W37446   2.854  14.989  11.128 -0.1060 -0.1758 -0.0872
18593W        W37447  13.470  13.825  10.183 -0.1945  0.0394 -0.0086
18594W        W37448  10.339  11.934   2.243 -0.0270  0.0727 -0.1547
18595W        W37449  16.155   0.988   4.631 -0.0598 -0.1550 -0.1902
18596W        W37450  10.134   6.861  13.218 -0.0711  0.0878 -0.0389
18597W        W37451  16.414  10.829  13.750 -0.0140 -0.1312 -0.0825
18598W        W37452   0.561  11.546  10.616  0.1584  0.2576  0.1792
18599W        W37453  12.442   9.942  14.504 -0.1794  0.0841 -0.1489
18600W        W37454  13.859   5.037   3.913 -0.1484 -0.0685  0.0248
18601W        W37455  13.370  14.362   3.305 -0.0482 -0.0108 -0.3420
18602W        W37456   8.191  16.593   4.361  0.4520  0.1096  0.2684
18603W        W37457   1.220   6.631   0.872 -0.1029 -0.1919 -0.0492
18604W        W37458   1.111   5.113   0.583 -0.3458 -0.2190  0.0748
18605W        W37459  12.500  15.363   0.867  0.2834  0.1081 -0.0781
18606W        W37460  15.464   0.424   2.216 -0.1666  0.4146 -0.0946
18607W        W37461   6.495  14.561   0.191  0.2337  0.1828  0.2168
18608W        W37462  14.679   6.374   2.575  0.2450 -0.2231  0.0685
18609W        W37463  15.299   4.453  14.817  0.0269 -0.0563 -0.3486
18610W        W37464   7.576   8.672   0.063  0.0313 -0.1481  0.1457
18611W        W37465  15.667   6.902   2.320  0.1295  0.1860 -0.0538
18612W        W37466  10.553   0.675  14.610 -0.0093 -0.1408  0.4068
18613W        W37467  12.675  18.236   4.200  0.1686 -0.2214  0.0762
18614W        W37468   2.683  14.162   2.122 -0.2835 -0.1163  0.0376
18615W        W37469   3.547   1.299  13.379 -0.2563 -0.1378 -0.1470
18616W        W37470  12.107   3.115   1.562  0.0097 -0.0844 -0.0315
18617W        W37471  16.541  13.958  14.584 -0.1366 -0.0469 -0.0462
18618W        W37472   4.587   3.676  11.115  0.0161 -0.2162  0.2905
18619W        W37473   3.476   9.300  13.415 -0.2750 -0.1046 -0.1748
18620W        W37474  16.512  18.115   2.786  0.0378  0.0425  0.3627
18621W        W37475   5.438  14.405  15.037 -0.3446  0.1342 -0.1237
18622W        W37476  13.004   9.217  11.164 -0.3576 -0.0504  0.2331
18623W        W37477  17.267   3.336   5.317 -0.3027  0.0697 -0.1408
18624W        W37478  12.428  17.395   4.013  0.2482  0.0237 -0.1877
18625W        W37479   8.591   6.418   2.867 -0.2850  0.1525 -0.0927
18626W        W37480  12.108  17.940   1.158  0.2279 -0.1079 -0.3038
18627W        W37481   3.221  16.663   0.833 -0.0163 -0.2243 -0.1001
18628W        W37482   1.458   5.802  10.462  0.0816  0.1303  0.4293
18629W        W37483   1.829  16.431   1.126 -0.2061  0.1385  0.0423
18630W        W37484  16.412   8.613  13.590  0.1164 -0.0436 -0.1059
18631W        W37485   8.504   7.523   2.391 -0.1139 -0.2668 -0.2883
18632W        W37486   5.891   3.293   2.048 -0.2474  0.1749  0.0532
18633W        W37487  13.248  16.383   1.400 -0.1571  0.0456  0.3414
18634W        W37488   1.141  15.301   2.527 -0.2571 -0.0226 -0.1493
18635W        W37489  16.772   6.108  11.518  0.3100 -0.2606 -0.0264
18636W        W37490  17.988   2.963  13.307  0.1249  0.0533  0.3153
18637W        W37491   2.700  12.290  13.040 -0.1136 -0.4757 -0.2272
18638W        W37492  11.023  13.603   2.576  0.1745 -0.0214 -0.2354
18639W        W37493   2.341   6.218  11.096 -0.0021  0.0154  0.1192
18640W        W37494   6.051  15.309   4.096 -0.1119  0.2676 -0.0238
18641W        W37495  13.995   5.470   1.027 -0.1034 -0.0338 -0.1350
18642W        W37496  10.854  13.010   4.377  0.1970 -0.1143  0.2043
18643W        W37497  11.671  15.763   1.115  0.2090  0.1355 -0.0858
18644W        W37498  16.993  11.994  14.593 -0.0892  0.2947  0.0816
18645W        W37499  13.524  17.904  11.740 -0.2013  0.2111  0.2134
18646W        W37500   8.577  12.696   5.421  0.1932  0.3430 -0.1554
18647W        W37501  10.301  13.850  13.813 -0.1285  0.1077 -0.1492
18648W        W37502   4.082   1.830   4.749  0.1874  0.3952 -0.1075
18649W        W37503   2.935   7.127  10.932 -0.1259  0.0290 -0.0066
18650W        W37504   5.657  13.302   3.628  0.1713  0.1449  0.2528
18651W        W37505   7.181  11.220   4.261 -0.1006  0.0698 -0.0943
18652W        W37506  12.962   4.288   0.287  0.3932 -0.1255  0.0990
18653W        W37507  14.884   3.097   3.999 -0.0824 -0.3696  0.0599
18654W        W37508  10.551   4.658  14.826  0.0354  0.0465 -0.1880
18655W        W37509  15.823  13.432   0.652 -0.1556 -0.1147  0.2751
18656W        W37510   5.221   4.651  12.219 -0.0396 -0.0724  0.1138
18657W        W37511   2.036   9.745   3.136  0.3097  0.2731  0.3317
18658W        W37512   0.116   3.696   4.836  0.0185  0.1687  0.0611
18659W        W37513   7.303  10.352   4.013  0.1249 -0.1623 -0.0225
18660W        W37514  17.763   7.628   1.073 -0.0186 -0.0543 -0.4468
18661W        W37515   2.849  14.539  11.354  0.0266 -0.1614 -0.0118
18662W        W37516  11.992   4.595  10.654  0.1217 -0.1058 -0.1142
18663W        W37517  10.971   9.749   4.515 -0.3483 -0.0437  0.0511
18664W        W37518   3.978  10.978  11.790  0.1655  0.2094 -0.2079
18665W        W37519   4.424   0.910  15.425 -0.2178 -0.0273  0.0152
18666W        W37520  14.346   5.967   3.619 -0.0168 -0.1421  0.0226
18667W        W37521  16.831  13.847   0.504 -0.0425  0.1767 -0.1121
18668W        W37522  16.726   2.288   2.154  0.0678  0.4856  0.0197
18669W        W37523   8.105  13.524  12.304  0.2080  0.0685 -0.0698
18670W        W37524   3.626   1.520   3.512 -0.2829  0.1085  0.1223
18671W        W37525   3.954  10.489  12.703  0.4473  0.0918 -0.0054
18672W        W37526  15.246  17.903   3.366  0.0391  0.1573  0.4389
18673W        W37527   7.306   2.727  13.754 -0.0299  0.0383 -0.2689
18674W        W37528   9.807   7.040   3.114  0.0188  0.1540  0.2108
18675W        W37529   8.713  11.216   2.639  0.0099  0.1251  0.1037
18676W        W37530   0.170  16.249  14.481  0.1604  0.2463 -0.3705
18677W        W37531   7.132  13.914  13.466  0.0618 -0.0998 -0.1631
18678W        W37532  11.860  18.067   0.585  0.1618 -0.2305  0.0554
18679W        W37533  14.562   2.102   1.085  0.3626  0.0621  0.0967
18680W        W37534   1.652   3.839  12.420 -0.1148 -0.0489  0.0061
18681W        W37535  18.162   7.659   4.143  0.0089 -0.1034  0.0848
18682W        W37536   5.673  17.291   2.146  0.0958  0.1564 -0.0991
18683W        W37537  13.491   2.313   4.565 -0.0458  0.2248  0.3131
18684W        W37538   9.172   3.325   3.037 -0.0902  0.0262 -0.1561
18685W        W37539   9.335   8.417  13.766  0.1315 -0.0363  0.0082
18686W        W37540   4.209  11.856  12.708  0.0934  0.2721  0.1619
18687W        W37541  17.421  14.730   2.448 -0.1266  0.4103  0.0910
18688W        W37542   9.797   8.420  15.449 -0.0060  0.2583 -0.1494
18689W        W37543   9.937  16.466   4.909  0.1992 -0.2796  0.1194
18690W        W37544  18.299   9.296   1.017 -0.0042  0.2655 -0.1851
18691W        W37545  18.115   2.998  12.015 -0.0586 -0.2441 -0.0552
18692W        W37546   6.364  11.306  11.558 -0.3406  0.0628  0.0212
18693W        W37547  11.824  11.662   1.147  0.0095  0.2847  0.0879
18694W        W37548   7.599   7.868  13.317 -0.1151 -0.0165  0.2666
18695W        W37549   9.905  16.858   4.604  0.2443  0.5230 -0.0803
18696W        W37550  11.217   7.180   2.035 -0.0842 -0.3600  0.3223
18697W        W37551   9.744  18.322  11.701 -0.0738 -0.0973  0.0646
18698W        W37552   8.009   2.291   0.553 -0.2111 -0.1579  0.3291
18699W        W37553   2.164  15.667   1.460  0.1153 -0.0847  0.1462
18700W        W37554   9.314   2.163   0.475  0.2088 -0.0326  0.1229
18701W        W37555  14.967   8.295  12.290  0.1112 -0.1583  0.0950
18702W        W37556   7.052  10.796   2.777  0.0123 -0.1792 -0.2648
18703W        W37557   0.756  13.289   2.861  0.1280  0.3482  0.0011
18704W        W37558  11.815  16.736   2.647  0.1233 -0.3108  0.0405
18705W        W37559   4.134  12.497   2.451  0.1042 -0.0751  0.0547
18706W        W37560  17.394   2.496   2.610 -0.0719 -0.0141 -0.0350
18707W        W37561  16.528  17.298   1.706  0.1067  0.0783 -0.1823
18708W        W37562  10.947   2.941  12.004  0.1261  0.1208  0.0759
18709W        W37563   1.079  18.443   0.591 -0.0293  0.1476 -0.0118
18710W        W37564   6.128   8.894   2.776 -0.2422  0.0249  0.2864
18711W        W37565   5.778   0.773  12.413 -0.1356  0.0975 -0.1438
18712W        W37566   8.085   5.531   1.211  0.0940  0.2764 -0.1609
18713W        W37567  11.994   8.561  12.525 -0.0808 -0.0913 -0.0945
18714W        W37568   5.989  16.741   1.276 -0.0318  0.1458  0.0240
18715W        W37569  15.515  12.274  11.517  0.1535  0.0753 -0.4957
18716W        W37570  12.451   0.169  10.881 -0.2175  0.2533  0.2093
18717W        W37571   3.686   7.322   2.382 -0.0012  0.3600  0.1257
18718W        W37572  11.182  16.774  10.664  0.1180  0.1966  0.0201
18719W        W37573   2.679   8.937   0.470  0.0480 -0.2360  0.1656
18720W        W37574  11.076  14.951   2.071 -0.1707 -0.1849  0.2135
18721W        W37575  13.851  16.125   3.347 -0.1871 -0.1660 -0.2110
18722W        W37576  11.375  10.469  10.592  0.1799  0.1053 -0.2682
18723W        W37577   3.424  11.283  12.880  0.1608  0.2290 -0.1676
18724W        W37578  10.771  16.065   0.868  0.1622  0.3309 -0.0933
18725W        W37579  12.264   1.580   1.301 -0.0017  0.2256 -0.0972
18726W        W37580   1.274  17.537   3.856  0.3854  0.1650  0.1001
18727W        W37581  15.980   5.108  11.434  0.0124  0.0340 -0.0055
18728W        W37582  15.571  12.810  13.341  0.2105 -0.0813  0.0391
18729W        W37583   8.171  12.265   1.498 -0.1931  0.0515  0.1545
18730W        W37584   5.531   4.615   2.027  0.0521  0.2853  0.1160
18731W        W37585   6.377  15.557   4.440  0.1841 -0.3825  0.0102
18732W        W37586  12.781   5.777   5.726 -0.1190  0.0941 -0.2040
18733W        W37587   6.747  15.674  15.305  0.0941 -0.0729  0.4370
18734W        W37588   8.509   7.241   3.386 -0.1399 -0.0170  0.0788
18735W        W37589   3.009   6.469   2.381 -0.0299 -0.1103  0.1719
18736W        W37590  11.848   1.236   1.305 -0.3703  0.0045  0.2313
18737W        W37591   7.120   9.098   0.667  0.0370 -0.2120  0.1670
18738W        W37592   4.391   7.836   1.860  0.1871 -0.1567 -0.2290
18739W        W37593  13.547   8.371   2.288 -0.1870  0.3179  0.2040
18740W        W37594   3.049  16.503  11.844  0.0214 -0.0946  0.0905
18741W        W37595  13.010  12.245   5.541  0.1119  0.2111 -0.3806
18742W        W37596   5.746   9.568   2.258 -0.2633 -0.2155  0.2500
18743W        W37597  12.473   7.937   1.051  0.2040 -0.1819  0.1705
18744W        W37598   2.362   0.340   1.747 -0.2356 -0.0082  0.0558
18745W        W37599  18.437  10.728  12.707 -0.3136  0.4594  0.3088
18746W        W37600  16.946   1.850   9.928 -0.2275 -0.0370  0.2923
18747W        W37601   4.729   4.263  13.456 -0.2400  0.0039 -0.0523
18748W        W37602   7.103  16.263  11.810 -0.2013 -0.3024  0.2934
18749W        W37603  17.046  12.299   2.266  0.0037 -0.0974  0.1782
18750W        W37604  10.566  15.702   4.119  0.0168 -0.0018  0.0398
18751W        W37605  12.545  11.623  13.016 -0.0457 -0.0566  0.1399
18752W        W37606   7.338  15.455   4.582  0.1501 -0.1243 -0.0266
18753W        W37607  18.262  12.045  14.025 -0.1665 -0.1569  0.0277
18754W        W37608   3.421  14.214   3.839  0.1354  0.0800  0.1672
18755W        W37609   8.509  17.636  13.803  0.0948 -0.0640  0.2496
18756W        W37610   8.969   2.825   3.391  0.0343  0.0070  0.0179
18757W        W37611  13.311  10.842  15.065 -0.0322 -0.0472 -0.4376
18758W        W37612   9.318  18.215   4.274 -0.0216  0.5179 -0.1799
18759W        W37613   1.500   9.663   1.384  0.1358  0.2267  0.1842
18760W        W37614   0.858  18.450  13.772 -0.4405 -0.0386  0.0188
18761W        W37615   7.683  11.565   3.062 -0.0056  0.1608 -0.2475
18762W        W37616   9.744  10.152  14.599  0.1989  0.4262  0.2137
18763W        W37617   6.836  12.828   4.952 -0.0470 -0.1090  0.2365
18764W        W37618   4.164  17.455  12.320  0.1748 -0.0939 -0.1858
18765W        W37619  10.954  16.966   1.027 -0.3243  0.2319 -0.0667
18766W        W37620  10.618   2.618   3.387 -0.1699 -0.3707  0.0988
18767W        W37621  17.370   8.216   3.339 -0.2072  0.0187  0.0050
18768W        W37622  14.060   9.895  14.630 -0.0196 -0.0001 -0.0601
18769W        W37623   6.328  15.117  13.754  0.1110 -0.0411  0.2473
18770W        W37624   9.416  12.396   2.115  0.2807  0.1307  0.0600
18771W        W37625   1.453  10.069   1.615 -0.0676  0.2142  0.0366
18772W        W37626  11.663  10.338  13.862  0.1158 -0.3276  0.2191
18773W        W37627   2.637   5.591   2.763  0.3623  0.2118 -0.3520
18774W        W37628   9.261   3.864  15.002  0.0037  0.1393 -0.0330
18775W        W37629  14.406   5.366  13.487 -0.1107 -0.2810  0.6205
18776W        W37630  16.795   4.022  13.545 -0.2314 -0.0396 -0.0867
18777W        W37631  11.433  13.320   2.533 -0.1602  0.3066 -0.0116
18778W        W37632  11.475   9.050  14.470  0.1024  0.3702 -0.1078
18779W        W37633   2.094   4.388   0.337 -0.1292  0.1321  0.1464
18780W        W37634  12.453  16.871  11.107 -0.0610 -0.0352  0.0168
18781W        W37635   2.268  18.385   0.274 -0.3227 -0.2111  0.2684
18782W        W37636  14.566  13.136   0.116  0.0120  0.1079 -0.0856
18783W        W37637   7.187  16.635  12.109 -0.0058  0.1287 -0.1816
18784W        W37638   9.625   5.902   2.870  0.0595  0.2100  0.2605
18785W        W37639  13.140   3.843  14.506  0.0464 -0.2898 -0.0031
18786W        W37640  18.075   8.959   1.809 -0.0771  0.1782  0.1840
18787W        W37641  17.633   6.019   0.258  0.0760  0.0272 -0.1428
18788W        W37642   1.983  13.115  10.124  0.0142  0.1278  0.0896
18789W        W37643  15.168   5.798  11.438  0.0765 -0.0182 -0.2826
18790W        W37644  15.387   7.463   4.317 -0.1055  0.1246 -0.1270
18791W        W37645  14.134   5.895  12.372  0.0458  0.0044  0.1755
18792W        W37646   6.336   3.672  11.336  0.1461  0.0445  0.0729
18793W        W37647   6.716   1.210   1.934  0.0170 -0.1476  0.3332
18794W        W37648   6.002  18.031   1.853  0.0524  0.0269  0.0058
18795W        W37649   0.902   5.815   0.011 -0.1437 -0.0101 -0.2057
18796W        W37650   0.511  14.519  12.890  0.1224  0.3395  0.2249
18797W        W37651   6.879   0.462  12.263 -0.2413  0.1850 -0.4333
18798W        W37652   5.585  13.336  10.957  0.0652 -0.2938  0.0546
18799W        W37653   7.004  14.876   0.007  0.0449  0.3659  0.1343
18800W        W37654   2.730  16.203  11.587  0.0369  0.1219 -0.1311
18801W        W37655   6.515   6.794  13.519  0.2920 -0.0186  0.1430
18802W        W37656  10.257   7.358  15.108  0.0493 -0.1865  0.0103
18803W        W37657  15.213   8.946   1.095  0.2743  0.1866 -0.1118
18804W        W37658  11.411  13.558   3.431  0.2949  0.0046 -0.2617
18805W        W37659   8.963   2.095   0.929  0.0842  0.2041 -0.2167
18806W        W37660   6.241  11.331  13.055 -0.0906  0.1280 -0.0512
18807W        W37661  16.953   7.290  14.683 -0.0272 -0.1530  0.0461
18808W        W37662   8.701  13.358   1.200 -0.3733 -0.2527 -0.2475
18809W        W37663   6.671  18.166   5.351  0.1625  0.0137  0.0136
18810W        W37664   1.714  17.149  13.337  0.2356  0.1961 -0.0240
18811W        W37665   5.637   0.706   0.013  0.0152 -0.0040 -0.0182
18812W        W37666   7.341   6.372   4.523  0.2320  0.0976  0.2416
18813W        W37667   6.735   0.742   1.793 -0.2609  0.2175 -0.0976
18814W        W37668  14.012   3.100   1.017  0.1201  0.3882 -0.0529
18815W        W37669   3.072   0.812   4.023  0.3743  0.3503 -0.0745
18816W        W37670   9.984   1.264  10.338  0.1427 -0.2553 -0.0594
18817W        W37671  16.742   0.126  15.136 -0.1168 -0.0400  0.1890
18818W        W37672   3.465  17.768   1.767  0.2437 -0.1976 -0.1544
18819W        W37673  13.996  17.106   0.525 -0.3346 -0.1241  0.3795
18820W        W37674  18.274   3.031   5.038 -0.1366  0.0612  0.2466
18821W        W37675  15.164  11.158   1.878 -0.3193  0.0068 -0.2225
18822W        W37676   0.850   7.393  11.718  0.1325 -0.1225 -0.1041
18823W        W37677   4.115  10.395   4.164  0.0858 -0.0865  0.3045
18824W        W37678   4.801  12.088   0.798 -0.0089  0.2687  0.2176
18825W        W37679   9.243  17.957  11.836 -0.0809  0.1965  0.1804
18826W        W37680   1.886  16.391   2.027  0.0791  0.1908  0.0444
18827W        W37681   4.855  15.979   1.758  0.2313 -0.1910  0.4704
18828W        W37682  12.969  17.573  12.291  0.1487  0.0641 -0.0379
18829W        W37683  13.523  13.000   0.108  0.0999 -0.1732 -0.3229
18830W        W37684  18.143   5.044  12.593  0.0372 -0.0844  0.1821
18831W        W37685  10.228  11.670   1.088 -0.0174  0.0946 -0.1775
18832W        W37686  16.840   7.675  14.255  0.1576  0.1107 -0.1781
18833W        W37687   9.131  15.966  13.893  0.0097 -0.1078  0.0924
18834W        W37688   6.920   8.482   3.853 -0.1933 -0.1308 -0.0323
18835W        W37689   8.602   4.336  13.211  0.1132  0.1411 -0.0918
18836W        W37690   1.467   2.348  14.763 -0.4914  0.1357  0.1321
18837W        W37691  16.928  12.898  11.467 -0.0849 -0.0690  0.0035
18838W        W37692   5.984  10.501  10.879 -0.0277  0.0428  0.0587
18839W        W37693  16.727  16.251   4.634  0.2130  0.1726 -0.2353
18840W        W37694  17.844  14.986   3.330  0.3093 -0.0412  0.3088
18841W        W37695   4.014  13.078  15.242 -0.2092 -0.4130  0.1950
18842W        W37696  13.676   1.685  14.351  0.3160  0.0991  0.3954
18843W        W37697  11.798   4.440  12.944 -0.0827  0.1730 -0.1477
18844W        W37698  12.231   5.211  13.281 -0.0580 -0.1542 -0.0271
18845W        W37699   2.607   1.995  11.893  0.0419  0.0850  0.2314
18846W        W37700  14.744   3.522  12.922  0.3457  0.0467 -0.0020
18847W        W37701  15.136  14.887  13.464 -0.0940 -0.1573 -0.1539
18848W        W37702  14.528   1.146  12.008 -0.1987 -0.4272 -0.2942
18849W        W37703   0.344   2.619  11.989 -0.0621  0.1729  0.1363
18850W        W37704  13.662   6.112   4.209 -0.0324  0.0157 -0.1581
18851W        W37705  13.682   1.867   3.118  0.1363  0.2669 -0.1175
18852W        W37706  14.755   2.623  11.904  0.0499 -0.0778 -0.0011
18853W        W37707  16.709   0.387   2.519 -0.3819 -0.0817  0.2307
18854W        W37708  12.309   9.810   3.342  0.1248 -0.1045  0.1055
18855W        W37709   9.668   8.688  13.044  0.1221 -0.1089  0.1212
18856W        W37710   0.258  12.682   0.026 -0.1346  0.2852 -0.1354
18857W        W37711   0.578   0.695  14.512 -0.0538  0.0102 -0.1165
18858W        W37712  17.406   1.043   1.069  0.0477 -0.0252 -0.2743
18859W        W37713   2.526  15.843  12.590  0.1878  0.1424  0.1945
18860W        W37714   9.251   1.758   3.533 -0.0191  0.0330  0.0942
18861W        W37715   3.241   1.619   2.185 -0.2365 -0.1559  0.0684
18862W        W37716  14.095   9.990   0.585 -0.0852  0.0675  0.2336
18863W        W37717  11.296  11.215   0.701  0.1122  0.1193  0.0271
18864W        W37718  15.252  17.662   4.280  0.3112  0.0166  0.0230
18865W        W37719   9.931  17.631   4.338 -0.4409  0.1913 -0.0225
18866W        W37720   4.256   1.941  11.010 -0.3069  0.2387  0.0526
18867W        W37721   6.415  16.079  10.779  0.0531  0.0380 -0.0935
18868W        W37722   8.335  14.949  11.192 -0.0685  0.0802 -0.1013
18869W        W37723  14.529  14.594   4.976  0.2222 -0.2089  0.2165
18870W        W37724   6.334  18.171  11.003 -0.1453 -0.2671  0.0293
18871W        W37725  12.910   3.752   0.447  0.3484  0.4247 -0.2827
18872W        W37726  17.744   5.272  14.084  0.0265  0.2354  0.2810
18873W        W37727   2.011  16.602   1.592  0.3420 -0.1977 -0.1942
18874W        W37728  15.772   7.833  14.383 -0.1524  0.0446 -0.2394
18875W        W37729   4.267  15.100  14.616  0.0083  0.1388 -0.2010
18876W        W37730   3.538  13.026   0.488  0.2348 -0.0581 -0.0093
18877W        W37731  15.489  16.369   1.671 -0.0323  0.2932  0.1249
18878W        W37732   3.044   8.587   0.228 -0.1772  0.0323  0.0592
18879W        W37733   1.435   5.748  12.124 -0.0138 -0.0040  0.0996
18880W        W37734  16.649   2.096  14.716  0.0104  0.1504  0.1032
18881W        W37735   1.625  18.305   3.521  0.0582  0.0407  0.1737
18882W        W37736  13.533  16.412   0.096 -0.1324  0.0324  0.0680
18883W        W37737   2.794   1.678   4.291 -0.0359  0.1925  0.2469
18884W        W37738  15.854   9.885  13.308 -0.2091 -0.0924 -0.0563
18885W        W37739  17.909   3.132  12.824 -0.6237 -0.1751  0.0802
18886W        W37740  13.828   5.807  11.763 -0.3381 -0.2042 -0.2221
18887W        W37741   0.324   2.945  10.438 -0.3140  0.0860  0.1714
18888W        W37742   7.245   5.388   0.892  0.1589  0.1106  0.1310
18889W        W37743   4.848   7.794  13.413  0.0455 -0.1710 -0.2638
18890W        W37744  18.459   8.768   0.398  0.0784  0.0628 -0.0888
18891W        W37745   9.461   7.887  14.835  0.2768 -0.2826 -0.1918
18892W        W37746   4.951   3.522  11.437 -0.0138 -0.1682 -0.0622
18893W        W37747   2.853  10.111   1.825  0.1812  0.0429 -0.0437
18894W        W37748  15.675  18.156   1.070  0.1828  0.2117 -0.0527
18895W        W37749   3.922   8.078   2.695 -0.3854  0.0060 -0.2458
18896W        W37750   9.712  16.872   0.759  0.0596 -0.1991 -0.0799
18897W        W37751  12.653  12.955   4.450 -0.2923 -0.3494  0.0264
18898W        W37752   6.129   6.284  14.795  0.1726 -0.0745 -0.0441
18899W        W37753  14.625  13.773  14.209 -0.1955  0.0719 -0.2171
18900W        W37754   3.686  10.640   2.366 -0.2830  0.0798 -0.1168
18901W        W37755  18.282  11.726   2.011 -0.3290 -0.0744 -0.3497
18902W        W37756   0.831   4.115  14.997  0.1533 -0.2469 -0.2081
18903W        W37757  17.633  12.482   0.717 -0.2224 -0.0600  0.2180
18904W        W37758   9.949   5.463  14.786  0.1267 -0.1378  0.1734
18905W        W37759   2.060   5.042  12.280 -0.2265  0.0390 -0.3310
18906W        W37760  10.202   7.816   2.031  0.2902 -0.2254  0.2884
18907W        W37761  11.496  17.049   2.875 -0.2523 -0.0855 -0.1368
18908W        W37762  10.926   4.772   1.981 -0.1016  0.1290 -0.0258
18909W        W37763  14.610   5.913   2.133 -0.1169  0.1814  0.0051
18910W        W37764   7.537  17.661   2.497  0.0333 -0.1680 -0.1462
18911W        W37765  11.491  14.849   1.644 -0.3447 -0.3678 -0.1084
18912W        W37766   6.667  11.971  14.409  0.0618  0.0924  0.1748
18913W        W37767  15.469   4.516   3.086  0.1403  0.1376  0.0135
18914W        W37768   7.999   5.949  13.113  0.1867 -0.0013  0.0997
18915W        W37769  15.765  11.841  11.629  0.1378 -0.1931 -0.2474
18916W        W37770   5.033   7.455   3.260  0.2395  0.4703  0.2338
18917W        W37771   5.058   0.237   4.637 -0.2137  0.2522 -0.1068
18918W        W37772   9.565   5.298   2.066  0.2289  0.0968 -0.1274
18919W        W37773  17.056   2.104   2.704 -0.0780  0.0516  0.0099
18920W        W37774  14.099   6.690   4.204 -0.2337  0.0259 -0.3337
18921W        W37775   9.052   2.333  15.447  0.1245  0.0316  0.0225
18922W        W37776  18.317   0.138   1.303  0.2311  0.0099  0.0176
18923W        W37777  15.698   1.847   4.944 -0.1065 -0.2326 -0.0780
18924W        W37778  14.529  18.346   2.448  0.0607 -0.0778 -0.1571
18925W        W37779  14.606   5.277  13.009 -0.1894 -0.3115 -0.1780
18926W        W37780   1.183   8.275   0.624 -0.0855  0.3005  0.0666
18927W        W37781  13.194  17.021   3.354  0.0419 -0.0849 -0.1575
18928W        W37782   4.750   9.363   0.319  0.0570 -0.1126 -0.2276
18929W        W37783   1.179  16.894   4.371  0.4127  0.2212  0.0389
18930W        W37784   8.674  17.174  14.578  0.2480 -0.1868  0.0414
18931W        W37785   4.655  15.336   3.784  0.1744  0.0671  0.0671
18932W        W37786   1.106  14.421   0.683 -0.1846  0.0792 -0.0145
18933W        W37787  10.442  15.887   0.370 -0.3895 -0.0966 -0.3349
18934W        W37788  13.852   7.644  14.695  0.1861 -0.0321  0.1376
18935W        W37789  12.005   9.379   1.583  0.1027  0.0461 -0.3327
18936W        W37790  18.365  17.242  11.516  0.3318  0.1927 -0.0155
18937W        W37791  12.080  18.474  12.799 -0.1762 -0.1286 -0.1665
18938W        W37792   3.512   7.268   1.848 -0.0008 -0.1623 -0.0219
18939W        W37793   3.559  16.865   1.148 -0.0476 -0.1379 -0.1158
18940W        W37794  14.970  17.493  11.479  0.1776 -0.0034  0.0845
18941W        W37795   2.686   4.964  13.153  0.2191  0.2274  0.0378
18942W        W37796  10.181  14.730   2.297  0.1024  0.2298 -0.0549
18943W        W37797  14.312  15.014   2.372 -0.0045 -0.0033  0.0066
18944W        W37798   7.979   8.960   4.614 -0.3791  0.1187  0.0300
18945W        W37799   6.274   6.450  12.726  0.1388 -0.1705  0.1812
18946W        W37800  14.938  17.657   1.417  0.0247  0.1304 -0.0127
18947W        W37801  17.817  14.478  14.090 -0.2180 -0.1265 -0.0461
18948W        W37802   9.922  14.919   2.639 -0.2098  0.2096 -0.0118
18949W        W37803   8.811   0.407  15.146  0.0464  0.2340  0.1689
18950W        W37804  17.777  16.258  13.474  0.3642  0.4056  0.3548
18951W        W37805  14.201   5.219  14.826  0.0522  0.0718 -0.2765
18952W        W37806   9.753   9.058   3.997  0.1330 -0.0855 -0.1263
18953W        W37807   0.785   4.546   5.397  0.2714  0.1907 -0.1157
18954W        W37808   6.090  13.333   4.451  0.0532  0.0467 -0.0158
18955W        W37809  11.426  18.511   4.081  0.3863  0.0897 -0.1016
18956W        W37810   6.646   4.600  14.228 -0.0529 -0.4787 -0.1520
18957W        W37811  18.270   8.495  14.479 -0.0585 -0.1814 -0.2153
18958W        W37812  12.895   6.516  13.497  0.2595 -0.2387 -0.0855
18959W        W37813  17.509   2.586  14.340 -0.0667  0.2563 -0.2319
18960W        W37814   4.631   8.781  13.985 -0.1498  0.3871  0.0113
18961W        W37815  14.050  15.780  11.261  0.1296  0.2210 -0.0225
18962W        W37816  17.456  16.966   2.569  0.1594 -0.0411  0.3651
18963W        W37817   8.085   4.132   1.496 -0.0437 -0.0001  0.1767
18964W        W37818  18.288   7.012  15.070 -0.1614  0.0066 -0.0104
18965W        W37819  11.451   1.321   0.396  0.3509 -0.4302 -0.1354
18966W        W37820   8.374   3.738   1.117  0.0398  0.4104  0.1103
18967W        W37821   3.729   3.673   1.621 -0.0778 -0.1502  0.2823
18968W        W37822  16.747   3.428  11.800 -0.2783  0.0000  0.0735
18969W        W37823   6.216   8.830   0.117 -0.1738 -0.0886 -0.0490
18970W        W37824   5.413  18.210  12.998  0.0849 -0.0197  0.1086
18971W        W37825   8.323   4.204   3.782 -0.0646 -0.0295 -0.0606
18972W        W37826   7.774   2.328   3.989  0.3911  0.0402 -0.4196
18973W        W37827  14.579   4.944   2.016 -0.0334  0.0090  0.2565
18974W        W37828   0.956   0.737   4.230  0.1327  0.1822 -0.0799
18975W        W37829  13.113  12.716   2.198  0.0083 -0.1836  0.0439
18976W        W37830   3.206   1.950  15.130  0.0602  0.0647 -0.3484
18977W        W37831   6.524  10.073   2.302  0.0684  0.0496 -0.2592
18978W        W37832   4.545  16.710   1.154  0.2923  0.3900 -0.0163
18979W        W37833   1.397  10.498   1.842  0.1186 -0.0370  0.1720
18980W        W37834   2.225   5.671   2.430  0.2908 -0.0164 -0.0617
18981W        W37835  15.491   1.155  12.718 -0.2693 -0.4112  0.1521
18982W        W37836   1.078  18.539  12.902  0.2237 -0.2685  0.0346
18983W        W37837  15.394   6.804   1.479  0.0422 -0.1087 -0.2180
18984W        W37838  18.490   5.971   3.558  0.1968 -0.0310 -0.1700
18985W        W37839  17.980  13.366   0.875 -0.0081 -0.2712 -0.1333
18986W        W37840  10.246   9.815   2.805 -0.1448 -0.1419  0.1544
18987W        W37841  17.696   8.611   3.061  0.0798  0.0790 -0.0827
18988W        W37842   0.647  17.952  12.153  0.2529 -0.0141  0.0686
18989W        W37843  12.448   8.063  14.836  0.1171 -0.2654  0.1797
18990W        W37844   8.836   2.413  14.592  0.0152  0.0085 -0.1832
18991W        W37845  12.284  11.035  13.655 -0.1416  0.2410  0.0374
18992W        W37846   2.939  10.311  15.268  0.3159 -0.1486 -0.0950
18993W        W37847   1.420   2.751  15.290  0.3026 -0.1169  0.1574
18994W        W37848  17.425   2.761   3.494 -0.0701 -0.0740  0.0397
18995W        W37849   8.649  11.420  15.165 -0.1758 -0.0374  0.3155
18996W        W37850  15.869   6.684   4.730 -0.2440  0.0311  0.3922
18997W        W37851  14.539   1.370   3.257  0.3206  0.0987  0.4233
18998W        W37852  15.908  14.100   2.246  0.2474 -0.1957  0.1604
18999W        W37853  11.041   3.339   2.907 -0.1028  0.0801 -0.1255
19000W        W37854   0.664   0.117  14.719  0.0344 -0.0880  0.1129
19001W        W37855  18.525  14.861   1.680  0.0687 -0.0546 -0.1663
19002W        W37856  16.452  12.568  14.235  0.0340  0.3802 -0.3081
19003W        W37857  13.694   4.391   4.489  0.3054 -0.1809  0.0582
19004W        W37858   5.303  16.350  13.631  0.0210 -0.1036 -0.0988
19005W        W37859  17.041   2.313  14.948 -0.1485  0.0672 -0.0003
19006W        W37860   0.912   4.776   2.441 -0.0904  0.3740 -0.2949
19007W        W37861   2.428  10.077   0.904 -0.1458  0.0913  0.0367
19008W        W37862   8.295   8.110  12.753 -0.0436 -0.0409 -0.0394
19009W        W37863  10.475   4.446   0.458 -0.2691  0.3682  0.1881
19010W        W37864  17.754   2.127  12.252  0.3653  0.1820 -0.0643
19011W        W37865  16.966   9.725   2.367 -0.2033  0.1974  0.2443
19012W        W37866   1.492  13.888   1.900  0.0217  0.0626  0.3694
19013W        W37867   2.644  14.137  10.579 -0.1699  0.2808 -0.4815
19014W        W37868  11.943   5.069   2.070  0.0055  0.1605 -0.0825
19015W        W37869   6.724  16.244  15.342 -0.1303 -0.1469 -0.1003
19016W        W37870  11.727  13.226   0.852 -0.0876 -0.0141  0.0640
19017W        W37871  15.498  12.969   4.297 -0.0046 -0.0866  0.1617
19018W        W37872   9.746   6.439  14.523  0.1085  0.3561  0.0582
19019W        W37873  16.542   3.052   5.494  0.2762  0.0547 -0.1382
19020W        W37874   8.192   0.402  12.263  0.2104 -0.3559 -0.0517
19021W        W37875   8.420   7.137   0.453  0.4050 -0.0104  0.0189
19022W        W37876   8.405  16.692   2.654  0.2292  0.1156  0.0250
19023W        W37877  13.946   3.686  13.394 -0.0828 -0.2093 -0.0836
19024W        W37878   1.265  12.412  14.272 -0.1400  0.0187 -0.0116
19025W        W37879  11.568  14.684  13.056 -0.3805  0.0903  0.1240
19026W        W37880  13.699  12.878   4.544 -0.2008  0.1813 -0.1940
19027W        W37881   3.602  14.550   1.008  0.3745 -0.3376  0.1131
19028W        W37882  16.367  12.692   2.861 -0.0070  0.2263  0.0523
19029W        W37883   7.124   5.636   1.397  0.0297  0.1654 -0.0371
19030W        W37884   7.155   6.527  11.771  0.1861 -0.0213  0.1892
19031W        W37885   4.516   5.399   4.331  0.2365  0.2754 -0.0528
19032W        W37886  17.083   3.968   4.118 -0.4917  0.1955  0.0190
19033W        W37887   2.919   8.017  12.130 -0.0360 -0.0245 -0.1043
19034W        W37888  13.130   5.608   4.277 -0.3738  0.2442 -0.0741
19035W        W37889  15.462   3.450   3.357 -0.1205  0.1128  0.1384
19036W        W37890   9.735  10.482   4.732  0.3123 -0.2087 -0.0238
19037W        W37891   1.930   4.680  12.610 -0.2445  0.1076 -0.1180
19038W        W37892   0.938  16.107  13.696  0.1220  0.2301 -0.0766
19039W        W37893   1.172   2.327   2.600 -0.2954 -0.0476 -0.3942
19040W        W37894  12.720  15.214   1.993 -0.1933  0.3061 -0.2389
19041W        W37895  12.096   8.537   2.914  0.3838  0.1023 -0.0466
19042W        W37896   9.614   0.614   2.470  0.0060 -0.2242  0.0857
19043W        W37897   4.492  10.605  15.019 -0.2744  0.2096  0.0727
19044W        W37898   7.268   2.661  11.199 -0.2989  0.0677 -0.1026
19045W        W37899   6.012   2.083   3.981 -0.0393  0.1275  0.1837
19046W        W37900   9.193   7.818  11.639 -0.2829  0.1144 -0.1209
19047W        W37901   1.560   1.768   3.461  0.0504  0.0711  0.0546
19048W        W37902   3.771   1.186   2.275 -0.0966  0.0506 -0.0248
19049W        W37903   6.175   7.268   4.082  0.3497 -0.2013 -0.3211
19050W        W37904   6.511   1.861  12.420 -0.0393 -0.3460 -0.0171
19051W        W37905  14.606   4.459   1.254  0.2355 -0.1387  0.2169
19052W        W37906   2.753  16.744   2.910  0.0145  0.1607  0.0199
19053W        W37907   2.166   6.703  12.905  0.0717 -0.2406  0.0455
19054W        W37908   9.100  17.185  11.429 -0.0536 -0.0481 -0.3950
19055W        W37909   8.646  12.052   1.327  0.2009  0.0535  0.2190
19056W        W37910  17.954  17.854   4.993  0.0302  0.1849  0.3270
19057W        W37911   4.076   4.430  14.305 -0.1758 -0.0952  0.2818
19058W        W37912   6.639  15.422  14.438 -0.0786 -0.0246 -0.1393
19059W        W37913  16.146   4.057  15.216 -0.0156  0.1921  0.0841
19060W        W37914  12.892   0.682  12.190  0.0825 -0.1120  0.1841
19061W        W37915   2.075   4.230  14.832 -0.0019  0.1075  0.0815
19062W        W37916   5.104   5.839  15.368  0.1159 -0.0484  0.3667
19063W        W37917  16.785   6.374  13.617 -0.3264  0.1247 -0.1392
19064W        W37918  14.539   6.047  11.987  0.2681 -0.2613 -0.0613
19065W        W37919  13.112   6.398  13.974 -0.1478 -0.0003  0.2739
19066W        W37920   7.748   4.002  15.351  0.1706  0.3673 -0.0166
19067W        W37921  14.210  17.673   1.866 -0.1985  0.0435 -0.0516
19068W        W37922   7.498  14.135   4.526 -0.0885 -0.3617  0.3193
19069W        W37923  16.141   2.040   0.820  0.1579  0.0714 -0.0083
19070W        W37924   0.819  10.926  11.700 -0.1548  0.3118  0.3025
19071W        W37925  12.235  15.759  13.910 -0.1616  0.4549  0.1226
19072W        W37926  14.837   7.520  11.176 -0.5292  0.0477 -0.0148
19073W        W37927   7.746  15.828   1.931 -0.0544 -0.1691  0.0357
19074W        W37928   5.468   6.894  12.406 -0.1108 -0.1150  0.0043
19075W        W37929  14.179   2.608  14.201  0.2102  0.4141 -0.0670
19076W        W37930  14.539   1.521   2.808  0.0243 -0.1456  0.0053
19077W        W37931   9.332   8.570   0.330  0.2616 -0.4928 -0.2969
19078W        W37932   8.325  17.121   2.905 -0.0726  0.1214  0.2409
19079W        W37933  11.725  10.975  14.429 -0.3024  0.0076 -0.0450
19080W        W37934   6.170  17.630   3.868  0.0468  0.0994  0.1866
19081W        W37935   7.267  10.322  12.421  0.2269 -0.0065 -0.2656
19082W        W37936  13.010   2.826   0.538  0.0401 -0.0037  0.2663
19083W        W37937  15.946   9.671   0.127 -0.1690 -0.2000  0.1737
19084W        W37938   0.827  18.375  14.376  0.3737  0.0220 -0.0260
19085W        W37939  17.579   6.427  10.832 -0.2034 -0.3467  0.1689
19086W        W37940   8.736   7.982  12.522  0.0069  0.3386  0.1054
19087W        W37941   6.755  12.086   0.410 -0.1750 -0.1470 -0.1484
19088W        W37942   0.741  14.616   9.682  0.3414  0.1082 -0.0145
19089W        W37943   3.009   4.192  13.935 -0.0435 -0.0418  0.0332
19090W        W37944   0.175   9.136   3.476  0.1949 -0.1006  0.1575
19091W        W37945   5.022   5.956  14.868  0.1029 -0.0741  0.0831
19092W        W37946  17.463   5.006  14.680  0.2229 -0.2194  0.0064
19093W        W37947  13.969  14.494  15.305 -0.1034  0.1547  0.0430
19094W        W37948  14.877   3.808   1.612  0.0792 -0.1967 -0.3024
19095W        W37949   2.787   1.579  12.749  0.1758  0.2377  0.0025
19096W        W37950  10.792   6.148   0.323  0.0404 -0.2409  0.2715
19097W        W37951  13.116  16.609   3.132 -0.1090  0.0548 -0.1644
19098W        W37952   8.542   6.169  12.226 -0.3062  0.0397  0.3005
19099W        W37953  13.486   5.097  13.525  0.2649  0.1772 -0.0056
19100W        W37954  17.826   0.677   3.314 -0.0197 -0.2891 -0.0942
19101W        W37955  17.223  15.463   9.911 -0.3575 -0.1764  0.1591
19102W        W37956  11.445  13.707  13.743  0.2649 -0.1016  0.0176
19103W        W37957  13.862  14.191   3.120  0.1252 -0.4052 -0.0471
19104W        W37958   2.236   5.808   0.396  0.1410 -0.3329 -0.1591
19105W        W37959  16.046   7.374   5.304  0.0734  0.1469 -0.1006
19106W        W37960   1.794  12.617  14.158  0.0304 -0.0699  0.1903
19107W        W37961   8.442   4.043  14.707  0.0509  0.0384  0.0089
19108W        W37962  17.011  11.849   4.750  0.2346  0.0714  0.1893
19109W        W37963   1.874  14.796   0.898 -0.0888  0.4361  0.1729
19110W        W37964   7.852   7.986  14.166 -0.1530  0.0573 -0.4235
19111W        W37965  16.642   5.062  13.235  0.0302  0.0900 -0.1751
19112W        W37966  13.705  15.873  11.918  0.2692 -0.0025  0.0142
19113W        W37967   2.475   7.393  14.805  0.0689 -0.1833  0.1699
19114W        W37968   8.766  15.763   0.530 -0.0902  0.1687 -0.2203
19115W        W37969  10.067  11.485   3.638  0.0925 -0.0187 -0.2623
19116W        W37970   7.401   3.481   2.405 -0.1235 -0.0670 -0.0164
19117W        W37971  18.323   8.802   2.809  0.0745  0.1415  0.0921
19118W        W37972  12.773  17.142   3.616  0.0168  0.0352  0.1273
19119W        W37973  17.378  15.546   0.211 -0.0558  0.0425  0.0110
19120W        W37974   5.852   5.691  11.887  0.3431 -0.0126 -0.1744
19121W        W37975  12.553  11.644   3.908  0.0181 -0.0669  0.1346
19122W        W37976   6.382   4.286   2.119  0.2004  0.3264 -0.0276
19123W        W37977   9.836   6.930   3.730  0.2449 -0.2114  0.0378
19124W        W37978  10.839   3.147  14.452  0.0733 -0.0929 -0.0276
19125W        W37979  14.789  10.702  14.471  0.1980  0.2651 -0.0115
19126W        W37980  17.390  12.163  11.855 -0.3088  0.0530  0.1205
19127W        W37981   1.387   3.805   0.767  0.1544  0.0111 -0.2764
19128W        W37982  13.667  15.627  13.603  0.1487  0.1207  0.0208
19129W        W37983  12.742   1.270   0.512  0.0148  0.1290  0.3033
19130W        W37984  12.732   5.858   2.474  0.1151 -0.0916  0.2077
19131W        W37985   6.559   6.797   1.931 -0.0671  0.3490 -0.0489
19132W        W37986   0.469  11.700   3.412 -0.2345 -0.0944 -0.0589
19133W        W37987   7.241   1.216   0.836  0.1480 -0.1918  0.1527
19134W        W37988  12.973  12.216  11.768  0.0453 -0.1452  0.0444
19135W        W37989  15.579   7.576  14.022  0.1402 -0.0867 -0.0365
19136W        W37990  17.730   3.260   1.124 -0.0554 -0.3163  0.0779
19137W        W37991   5.496  13.742  10.611 -0.2288  0.0076 -0.1156
19138W        W37992   0.005   8.357  12.294  0.1264  0.2483  0.1509
19139W        W37993  12.319   2.920   5.786 -0.0580  0.0319  0.2974
19140W        W37994   0.911   9.900  11.519  0.1220  0.0865  0.0649
19141W        W37995  11.041  10.887   2.061 -0.0524  0.1670  0.0942
19142W        W37996  18.201  13.342  15.047  0.0060 -0.0763 -0.1143
19143W        W37997   6.486  14.716   1.633 -0.1440 -0.2608 -0.0142
19144W        W37998   9.690  14.055   0.532  0.2889  0.0659  0.1221
19145W        W37999  15.679   1.371  13.736 -0.2460 -0.0149 -0.0389
19146W        W38000   1.763  11.283   0.919 -0.4590 -0.3145  0.0259
19147W        W38001   0.720  15.996  14.632  0.2248  0.0375 -0.0938
19148W        W38002   7.475   5.924   0.424 -0.0022  0.2200  0.0414
19149W        W38003   1.172   1.200   3.727 -0.1316 -0.0471  0.0268
19150W        W38004   5.717  18.519  13.251  0.0028  0.0463  0.2896
19151W        W38005  12.162   9.470  15.181 -0.1111  0.1118 -0.0518
19152W        W38006   1.021  16.361   4.261 -0.1955 -0.0072  0.3468
19153W        W38007  15.080   4.436   1.910 -0.2251 -0.0679 -0.0042
19154W        W38008   1.597   6.608  12.643 -0.0416 -0.2816  0.3875
19155W        W38009   3.449   8.124   5.163 -0.0300  0.0447 -0.2632
19156W        W38010  16.392  12.787   9.947  0.2336 -0.0338 -0.1685
19157W        W38011  12.489   2.982  12.695  0.1510  0.0379 -0.2061
19158W        W38012   1.349   6.315  14.552 -0.0060  0.1060  0.0283
19159W        W38013   1.872  14.732   3.446 -0.0863 -0.0103 -0.1961
19160W        W38014   1.525   4.020   3.019  0.1449 -0.4360  0.1680
19161W        W38015   8.284  12.246  12.486  0.0359 -0.1146  0.1746
19162W        W38016  16.671  18.478   2.482  0.0113  0.1742 -0.3611
19163W        W38017   7.593   2.432   0.249 -0.5252 -0.2813 -0.2594
19164W        W38018  11.806  18.203   2.034  0.0108 -0.1735  0.0854
19165W        W38019   7.390  18.199  13.382 -0.2880  0.0019 -0.2812
19166W        W38020  16.331   9.806   4.373 -0.1447 -0.0928  0.3392
19167W        W38021   7.079   0.642   0.060  0.0725  0.1903 -0.2274
19168W        W38022  15.467   0.825   2.804  0.4896 -0.1638 -0.0347
19169W        W38023   9.084  11.790  14.621  0.1127 -0.0121  0.1342
19170W        W38024   2.352  16.038   2.818  0.0591 -0.1910 -0.2070
19171W        W38025   7.169   2.513   3.106 -0.1048 -0.1123  0.0697
19172W        W38026   0.752   3.285  13.233 -0.3211 -0.2111  0.0642
19173W        W38027   5.747   9.995  13.534 -0.0478  0.1532 -0.1615
19174W        W38028  11.835   4.907  14.153 -0.2554  0.1779 -0.1758
19175W        W38029  10.411  17.903  13.441  0.0463 -0.1981  0.0944
19176W        W38030  18.411  10.831  14.119  0.0136  0.2792  0.1591
19177W        W38031  11.011   5.317  11.262  0.0424 -0.2349 -0.3644
19178W        W38032  18.441   4.198  13.204  0.0908  0.1012  0.1836
19179W        W38033  14.353  15.178  10.955 -0.0305 -0.0494 -0.1734
19180W        W38034   4.695   3.812   2.861 -0.0380  0.0588  0.1248
19181W        W38035   5.463  14.654  12.949  0.2861 -0.1120 -0.1387
19182W        W38036  18.291   4.661  13.661  0.1901  0.4640  0.0739
19183W        W38037  10.729   7.657  14.110  0.1184  0.1473 -0.0467
19184W        W38038   1.810   0.620   2.752 -0.1563  0.1985  0.1846
19185W        W38039  15.543   3.291   4.746  0.2426  0.1616  0.0350
19186W        W38040  12.613  13.211   3.223  0.3436 -0.0320 -0.0254
19187W        W38041  16.352   9.849   1.457 -0.5801 -0.0917  0.1882
19188W        W38042  10.039   8.129  11.958 -0.2390 -0.1056 -0.1504
19189W        W38043   5.274  14.803  14.726  0.1096 -0.2444 -0.1405
19190W        W38044   2.448   9.918  13.158 -0.0928 -0.0904 -0.2005
19191W        W38045   1.047   2.261   0.286 -0.4299  0.2285 -0.0214
19192W        W38046  10.030  17.489  14.745  0.1213  0.1829  0.0523
19193W        W38047   8.116   4.609   1.695 -0.3999  0.0960  0.1334
19194W        W38048   4.268   1.782   2.143  0.0227 -0.0776  0.0563
19195W        W38049  15.620   2.399  10.549 -0.1281 -0.0876 -0.0979
19196W        W38050   6.176   3.196  14.303 -0.0407 -0.1387 -0.1546
19197W        W38051   4.254  13.461   3.056 -0.4801  0.1938  0.2257
19198W        W38052  18.473  10.867   3.125 -0.1388  0.3224  0.0764
19199W        W38053  14.960   2.011  12.101  0.2234 -0.0551 -0.3074
19200W        W38054   1.831   1.032   2.348 -0.1313  0.0668 -0.0618
19201W        W38055   5.523  16.599   3.493 -0.2127 -0.0463  0.1493
19202W        W38056  10.023  14.346   5.231 -0.1750 -0.0459 -0.1588
19203W        W38057   5.698  10.763   3.978  0.0152 -0.1073 -0.1486
19204W        W38058   6.605  11.617  11.251  0.2335 -0.3650 -0.1812
19205W        W38059   7.671   6.368   2.798  0.0389  0.1941 -0.3632
19206W        W38060   1.244  10.450   1.037 -0.3632 -0.0280 -0.0703
19207W        W38061   5.701   7.147   3.840  0.2686 -0.3134  0.0929
19208W        W38062   5.135  13.145  14.346 -0.1482 -0.2924 -0.1370
19209W        W38063   0.649  12.519  11.451 -0.2439 -0.2642  0.3421
19210W        W38064  14.695  17.861  10.787  0.1292 -0.1040  0.1545
19211W        W38065  18.399  13.906   2.578  0.1558  0.1006  0.2269
19212W        W38066   6.260  17.616  12.607  0.2836 -0.1593  0.1511
19213W        W38067  17.297   9.784   5.208  0.1003  0.2139  0.0379
19214W        W38068   8.987  12.283   3.634 -0.0624  0.0161 -0.1602
19215W        W38069  12.588   9.943   2.445 -0.2134 -0.1180 -0.2394
19216W        W38070   0.758   7.244  10.531  0.0156 -0.0209 -0.2016
19217W        W38071  14.645  18.568   3.441 -0.1021  0.1415  0.1866
19218W        W38072   9.257   8.876   3.863 -0.0110 -0.0927  0.5404
19219W        W38073   8.801  13.359  15.194  0.4613 -0.1562  0.1364
19220W        W38074   9.053  14.586  13.240  0.3831 -0.0251  0.2922
19221W        W38075  16.057  16.410  13.679 -0.1658 -0.1150 -0.0581
19222W        W38076  11.646  18.558  12.543  0.2594 -0.1109 -0.0898
19223W        W38077   1.485  10.188  13.327 -0.2503 -0.1644 -0.0041
19224W        W38078  17.452   1.239  14.242  0.0293 -0.1545 -0.0396
19225W        W38079   3.592  15.114  11.247 -0.0790  0.1294 -0.0678
19226W        W38080  15.667   5.928   5.601 -0.1656 -0.0599  0.0053
19227W        W38081  13.174  17.192   1.077  0.2694  0.1475  0.0682
19228W        W38082  11.328   8.722   0.476  0.1624  0.0321  0.3078
19229W        W38083  13.247  11.310  15.044  0.1921  0.0635  0.1144
19230W        W38084  16.401  12.802  11.296  0.0847  0.0406  0.0729
19231W        W38085   9.004  10.765   1.069 -0.2404  0.0650 -0.2088
19232W        W38086   3.915  11.420   9.823 -0.4856 -0.0027 -0.2066
19233W        W38087   6.227   9.730  13.803  0.2237  0.1751 -0.0591
19234W        W38088   3.891   6.498   3.450 -0.1529 -0.3544 -0.2760
19235W        W38089   8.142  10.099  14.301 -0.4717  0.3196  0.0925
19236W        W38090  11.545  15.316   0.840  0.1398  0.0980 -0.1071
19237W        W38091  12.769   1.029   2.444  0.3686 -0.2958 -0.0887
19238W        W38092   7.962  15.611  11.844 -0.0299  0.3084  0.1872
19239W        W38093  10.038  10.344  15.441  0.2443  0.1572  0.0608
19240W        W38094  11.931  10.878   4.896 -0.1162  0.2119 -0.3942
19241W        W38095  13.942  14.947   1.125  0.0700  0.0831  0.0599
19242W        W38096   7.177   0.178  14.733 -0.0713 -0.2362  0.1239
19243W        W38097  14.565   3.064  11.717 -0.1860 -0.1750 -0.1619
19244W        W38098  11.161  16.175   2.775 -0.0963  0.0525 -0.2189
19245W        W38099  16.027   2.416   3.929 -0.0746 -0.1379 -0.0961
19246W        W38100   0.270   4.501  11.121 -0.1722 -0.1311  0.3065
19247W        W38101   0.350   3.327  10.997  0.3631 -0.2292  0.1531
19248W        W38102  14.121  12.955   2.236  0.1828 -0.2593 -0.1275
19249W        W38103  16.833  14.365   3.613  0.1817  0.3151  0.4148
19250W        W38104  14.128  17.000  15.094 -0.1076 -0.1985  0.1741
19251W        W38105  10.623  11.236  15.107  0.0913  0.0784  0.0976
19252W        W38106  17.705  12.224  13.804  0.2217  0.0283  0.2860
19253W        W38107  16.020  15.742  12.471 -0.1218  0.0718 -0.0211
19254W        W38108   0.608   4.768   0.669 -0.1062 -0.4183 -0.1116
19255W        W38109  14.457  16.835   2.859 -0.2036  0.1079 -0.1401
19256W        W38110   3.097  18.383  11.140 -0.2687 -0.4802  0.2862
19257W        W38111  11.087   3.436   4.403 -0.2612  0.1455  0.2283
19258W        W38112   7.741   5.884   0.874  0.0246 -0.1519 -0.0479
19259W        W38113  17.310   9.243   1.870  0.2990  0.0159  0.0791
19260W        W38114  11.863   6.316  11.233 -0.2321 -0.0991 -0.0852
19261W        W38115  12.961   8.626  13.474 -0.0705  0.2178  0.3338
19262W        W38116   7.795   3.411   0.368  0.1294  0.2011 -0.1312
19263W        W38117   3.932   1.983  13.363  0.1488  0.1909 -0.0577
19264W        W38118   4.946   1.643   1.995 -0.0186  0.3872  0.1513
19265W        W38119   8.469   1.806   4.216 -0.1728  0.0841  0.2314
19266W        W38120  17.933  17.582   0.638  0.4140  0.0376 -0.1039
19267W        W38121   5.221   4.619  15.356 -0.1059  0.2255  0.0662
19268W        W38122   6.291  13.093   1.903 -0.1270  0.0168  0.2186
19269W        W38123  16.034   3.384   3.446 -0.1869 -0.1352 -0.0054
19270W        W38124   1.775  10.546   4.685 -0.0581 -0.0149  0.1666
19271W        W38125   9.329  13.583  13.696 -0.0883  0.0664 -0.3737
19272W        W38126   2.255   3.056  12.638  0.6197 -0.0459 -0.3618
19273W        W38127   5.437  12.363   4.270 -0.1563  0.2034  0.1871
19274W        W38128  14.000  15.009  11.962  0.3516 -0.0275 -0.2451
19275W        W38129  11.983  17.222   2.826  0.3336  0.0315  0.0308
19276W        W38130   4.722   0.327  14.516 -0.3058  0.0023  0.0800
19277W        W38131   9.853   1.629  14.764 -0.2826  0.1191  0.1521
19278W        W38132  10.543   4.800  14.310  0.0279 -0.1165 -0.1043
19279W        W38133   2.373  12.150  12.176  0.1691 -0.1963 -0.0211
19280W        W38134   3.429   3.535  12.572  0.2057  0.0147 -0.1900
19281W        W38135   1.440  11.009   5.039 -0.0283 -0.0094  0.0686
19282W        W38136  10.918   7.599  11.871 -0.1917 -0.1464 -0.1908
19283W        W38137  15.053  13.692   0.783  0.2694 -0.1759  0.1441
19284W        W38138  15.477   8.315  14.424 -0.1314 -0.1245  0.0158
19285W        W38139   2.641  14.140  13.789  0.2226 -0.1637 -0.0526
19286W        W38140   3.581  15.424  12.503 -0.0627 -0.2029  0.1540
19287W        W38141  12.287  14.387  15.044  0.1281 -0.0784  0.0302
19288W        W38142   4.561   7.361  12.543 -0.0448  0.3271 -0.1512
19289W        W38143   3.434   6.789  14.191 -0.2881 -0.1526  0.4064
19290W        W38144  15.813  10.199  15.325 -0.2007  0.1264 -0.2335
19291W        W38145   9.507  18.326  13.523  0.0356  0.2114  0.2211
19292W        W38146  15.615   4.719  11.720  0.1846  0.2813 -0.0661
19293W        W38147  10.278   6.388   2.501 -0.0861 -0.0162 -0.1606
19294W        W38148  18.413  10.259   3.502  0.2083 -0.0513  0.0246
19295W        W38149   9.276   1.910   1.479  0.1619 -0.0424  0.2026
19296W        W38150  11.340  18.030  14.558  0.1673 -0.1654  0.1385
19297W        W38151   2.932   6.322   0.920  0.0639  0.0134  0.2499
19298W        W38152  12.733  10.232  14.119 -0.0996 -0.2198 -0.2652
19299W        W38153   7.153  11.618  15.244  0.4388  0.0495  0.1483
19300W        W38154   7.853  13.007   3.879  0.4269  0.2287  0.2328
19301W        W38155   9.860   0.777   1.609 -0.0755 -0.3480 -0.0701
19302W        W38156  15.802  16.995  11.796 -0.1271 -0.0003 -0.0519
19303W        W38157   5.241   6.288   1.779  0.0663 -0.0244  0.0846
19304W        W38158   7.293   5.048   2.656  0.0412 -0.0017  0.3265
19305W        W38159  16.372  18.063  13.055  0.0960  0.0116 -0.0111
19306W        W38160  16.604  11.372  14.406  0.0945 -0.2095 -0.1264
19307W        W38161  13.845   9.414  15.467  0.1963  0.2192  0.0691
19308W        W38162   3.840   5.308  11.689  0.0682  0.1556  0.0281
19309W        W38163  13.271  14.183  14.607  0.0355 -0.0557 -0.1511
19310W        W38164   8.433   0.505  12.934 -0.2576 -0.0015  0.1565
19311W        W38165   1.874  16.825   2.948  0.1391  0.0456  0.1203
19312W        W38166  15.881   8.336  11.142  0.2066  0.0161 -0.1776
19313W        W38167   2.013  15.010  12.760 -0.1822 -0.0175  0.2459
19314W        W38168   9.992   7.369  13.295 -0.0731  0.0406  0.1003
19315W        W38169  16.228  15.491  13.831  0.1092  0.1726  0.3448
19316W        W38170   9.604  15.417   3.940  0.0084 -0.2405  0.0396
19317W        W38171  12.029  12.202  11.896  0.2269 -0.0891  0.0452
19318W        W38172  18.451   0.222   2.037  0.1659 -0.0351 -0.0808
19319W        W38173  17.051   3.353  15.440  0.4054  0.1232  0.1001
19320W        W38174   6.316  13.575   0.151  0.0219  0.1452  0.0995
19321W        W38175  13.163  18.076   0.633  0.2104 -0.1227 -0.3778
19322W        W38176   2.966   6.372   0.097  0.2169  0.0948 -0.3668
19323W        W38177  11.162   6.018   2.977 -0.2020 -0.2690  0.0916
19324W        W38178  16.441   3.819   4.594 -0.3037 -0.0653  0.0995
19325W        W38179   1.127   9.280  12.343 -0.1666 -0.1458  0.2264
19326W        W38180  10.430   6.823  10.076  0.1490 -0.3095  0.0975
19327W        W38181  11.622   4.585   3.691 -0.2659 -0.1442 -0.1148
19328W        W38182   4.232   7.264  14.903 -0.1768  0.0062 -0.3088
19329W        W38183  15.009  11.347   3.250 -0.1072  0.2596  0.4072
19330W        W38184   8.654  11.842  13.392  0.0068  0.1252 -0.2440
19331W        W38185   0.857  13.479   3.624  0.0097 -0.0695 -0.1465
19332W        W38186  10.312   8.492  11.722  0.2039 -0.0838  0.0275
19333W        W38187   1.602   4.980   4.149 -0.1753 -0.1671 -0.2695
19334W        W38188  16.867   0.158   1.125  0.0196  0.0077  0.2373
19335W        W38189  16.874  16.584   3.277 -0.0207 -0.0862  0.0867
19336W        W38190  17.542  17.787   5.265  0.2006  0.0352  0.3358
19337W        W38191   6.086   2.997  12.539  0.0919 -0.1673  0.0750
19338W        W38192   6.389   4.242  14.012 -0.3331  0.2165 -0.0056
19339W        W38193   9.550  11.455  14.649  0.0828 -0.1027 -0.1458
19340W        W38194  10.063   3.733   0.075  0.3089 -0.2251 -0.1721
19341W        W38195   8.257  10.895   1.799  0.4965  0.3427  0.3668
19342W        W38196   4.795  10.216  14.836  0.2480  0.1404 -0.2071
19343W        W38197   0.860  10.558   1.930 -0.1023 -0.0968 -0.1397
19344W        W38198   3.029   7.355   0.838 -0.0989 -0.0880 -0.0662
19345W        W38199   9.723  10.430  15.014  0.1797 -0.0653  0.3365
19346W        W38200   4.575  14.376  10.342 -0.0756 -0.3801  0.0726
19347W        W38201  14.449  15.078  12.123  0.1513 -0.1051 -0.0120
19348W        W38202   5.883   6.121  13.375 -0.1151  0.0476  0.0667
19349W        W38203   2.103   8.479   1.723  0.2987 -0.0308 -0.2005
19350W        W38204   4.590   9.637   1.359 -0.1481 -0.0575 -0.4866
19351W        W38205  14.094  17.934   0.681 -0.3684 -0.1239  0.4259
19352W        W38206  11.022   1.111   0.347  0.0037 -0.2000  0.0948
19353W        W38207  17.907   4.893   0.445 -0.5038 -0.1424 -0.0168
19354W        W38208  17.518  12.419   1.978 -0.2063 -0.0007  0.1402
19355W        W38209  16.675   7.649  14.815  0.1241 -0.2231 -0.1657
19356W        W38210  16.555  10.532  13.351  0.2057 -0.0553  0.2427
19357W        W38211   4.052  12.319   3.032 -0.1359 -0.2167 -0.0463
19358W        W38212  15.229   7.890   3.089  0.0923  0.1438 -0.1647
19359W        W38213   1.039  10.064  12.835  0.1105 -0.4999 -0.0132
19360W        W38214   9.168   7.749   2.341  0.1557 -0.0673  0.2122
19361W        W38215  15.272  11.335   4.612  0.0163  0.1125  0.1426
19362W        W38216   8.910   5.323  12.361  0.1967  0.1751 -0.2429
19363W        W38217  17.350   1.023  13.216  0.2518 -0.4083 -0.2406
19364W        W38218   6.047   6.356   3.511  0.0531 -0.2743  0.2116
19365W        W38219   7.605   7.673  11.965 -0.0806 -0.0279  0.0293
19366W        W38220   9.130   0.832  11.906  0.1299 -0.1241 -0.1312
19367W        W38221   5.006  14.581  13.139  0.0709  0.1989 -0.5190
19368W        W38222  11.797  14.417  12.182  0.0060 -0.1105 -0.1317
19369W        W38223   0.060  15.797   0.105 -0.0824 -0.0047 -0.0013
19370W        W38224   1.504   0.154   0.238  0.0795 -0.1267  0.1475
19371W        W38225  10.407  13.944   1.910 -0.0695  0.1144  0.2254
19372W        W38226  13.434  11.206  12.754  0.0690  0.1372  0.0943
19373W        W38227   2.277   2.114  13.844 -0.0644  0.0174 -0.0409
19374W        W38228   2.136  12.857   4.484 -0.3032 -0.1303 -0.1798
19375W        W38229  18.101   9.677  13.904 -0.3838  0.4184 -0.1023
19376W        W38230  12.056   1.240  15.162  0.0898 -0.1019 -0.0842
19377W        W38231   8.250  10.965   2.473  0.2886  0.2338 -0.4219
19378W        W38232  11.304   8.781   0.989  0.2664  0.1351 -0.5070
19379W        W38233   6.650   0.362  13.320  0.0342  0.4027 -0.3728
19380W        W38234  15.372  10.791   2.169  0.0497  0.1518 -0.1671
19381W        W38235   5.599  13.245  12.420  0.1674  0.1761  0.0488
19382W        W38236  15.974   7.209  15.165  0.0644  0.0261 -0.1488
19383W        W38237   5.833   0.231   1.394 -0.0916  0.0453 -0.0974
19384W        W38238  16.641  15.301  13.015  0.1174  0.1199  0.1067
19385W        W38239  13.354  13.405  11.790  0.0812  0.0649 -0.1213
19386W        W38240   8.460  12.843   2.080 -0.0454 -0.3028 -0.1980
19387W        W38241  16.235   7.457  13.597 -0.0666 -0.2680 -0.1338
19388W        W38242   5.912   9.570  10.813 -0.0067  0.0997 -0.1699
19389W        W38243   1.726  18.403  11.036 -0.3244 -0.3635  0.2932
19390W        W38244   0.071  10.069   0.458  0.2822  0.1286 -0.3715
19391W        W38245  12.332   1.523  11.244  0.1396 -0.0288  0.0768
19392W        W38246   3.316   9.692  13.624  0.1094 -0.0849 -0.1836
19393W        W38247   7.093   1.159  12.098  0.1380 -0.3493  0.1511
19394W        W38248  17.014   1.185  15.172 -0.1095 -0.3640 -0.4414
19395W        W38249   9.292   5.451   4.542 -0.1697  0.1648  0.0640
19396W        W38250   9.370   6.976  14.283  0.0859  0.1916  0.1113
19397W        W38251   6.317   7.005  11.087 -0.0367  0.0559  0.1098
19398W        W38252  10.926  11.794   5.444 -0.1938 -0.1565 -0.1297
19399W        W38253  11.492  17.566   2.926  0.1820 -0.1086 -0.1254
19400W        W38254  15.686  11.694  12.615  0.1522  0.3623  0.0607
19401W        W38255   8.761   3.703   4.903  0.0057 -0.0462 -0.0712
19402W        W38256  15.193   1.553  14.649  0.1943  0.1300  0.0124
19403W        W38257   1.697   9.222   0.654  0.2549  0.1272 -0.1119
19404W        W38258  11.306  16.793  12.469  0.1705 -0.2095  0.0344
19405W        W38259  10.530  10.545  11.071  0.0709  0.2351 -0.1082
19406W        W38260  13.308   8.598   3.817 -0.0040  0.2711  0.2490
19407W        W38261   1.539   8.978  14.572  0.0288  0.2895  0.0678
19408W        W38262  17.433   4.695  12.784 -0.2540 -0.0730  0.0474
19409W        W38263   5.868  14.637  10.953 -0.1330 -0.2115 -0.0970
19410W        W38264  15.502   4.603  13.647  0.0136  0.1539  0.2923
19411W        W38265   9.991   0.648  13.440  0.2808 -0.0861 -0.0632
19412W        W38266  16.427  12.548  11.745 -0.2698 -0.0511  0.1564
19413W        W38267  10.975  17.341  13.076  0.0504 -0.1025  0.1301
19414W        W38268  17.372   9.679  12.359  0.1102  0.1086  0.0836
19415W        W38269  13.571  15.184   1.458  0.1055 -0.0366 -0.0668
19416W        W38270  12.511   3.244  14.205 -0.1105  0.0978  0.0508
19417W        W38271   1.133   8.486  11.314  0.1327  0.0856 -0.3061
19418W        W38272  17.423   4.136   2.640  0.0956  0.1146 -0.0882
19419W        W38273  11.866   1.324   3.850 -0.0259  0.1958 -0.3110
19420W        W38274   7.995   5.409  14.039 -0.0162 -0.3108  0.1696
19421W        W38275  11.402  10.159  13.492  0.1622 -0.1936 -0.3004
19422W        W38276  13.639  15.642  14.928 -0.0124 -0.2923  0.0143
19423W        W38277  11.376  11.664   2.522  0.1409  0.4638 -0.0123
19424W        W38278  13.073  11.566   0.056 -0.1362  0.0036  0.1083
19425W        W38279   5.968  14.009   4.329  0.1302 -0.1181  0.1354
19426W        W38280   8.478  16.209   0.682 -0.2166 -0.1730 -0.2091
19427W        W38281  16.392   2.884  13.890 -0.0607 -0.2678 -0.0363
19428W        W38282  17.109  17.651  11.803  0.1467 -0.1699  0.2177
19429W        W38283  18.572   2.734   1.096 -0.1994 -0.1451  0.0875
19430W        W38284   2.612   5.730   3.221 -0.0633  0.3352  0.2711
19431W        W38285  10.725  10.968   3.281  0.2167 -0.0010  0.1695
19432W        W38286  12.397  18.410   1.195 -0.0837 -0.1769 -0.0956
19433W        W38287   8.767  10.863   1.647  0.0553 -0.2652 -0.1212
19434W        W38288   7.862   0.275   3.326  0.0861  0.1405 -0.2041
19435W        W38289  12.743  13.474  15.027 -0.2158 -0.1002  0.0961
19436W        W38290  13.394   2.100  14.188 -0.1089  0.3786  0.0894
19437W        W38291   2.810  17.820  13.527 -0.0031  0.0219 -0.3024
19438W        W38292  10.591   3.803  13.260  0.0192  0.4117  0.1411
19439W        W38293   6.866   5.421   4.172 -0.0050 -0.2922 -0.0265
19440W        W38294   8.604   6.732  11.702  0.1373  0.4921 -0.1371
19441W        W38295   4.432   7.571   3.306 -0.0687 -0.1837  0.1547
19442W        W38296  14.170  11.402  10.819  0.0931 -0.3006  0.2347
19443W        W38297   3.516  10.717   2.923  0.1099 -0.0786 -0.0680
19444W        W38298   2.485   3.769   3.762 -0.0609  0.0551  0.1214
19445W        W38299   1.739  15.531  10.746  0.0332 -0.0884 -0.2084
19446W        W38300  13.050  18.349  11.804  0.0812  0.0894  0.3042
19447W        W38301  16.399  10.927  15.205  0.0243  0.0906 -0.2707
19448W        W38302  10.722   6.255   1.807 -0.1623  0.0949 -0.1904
19449W        W38303  14.073   2.498   2.819  0.0889 -0.2295  0.1639
19450W        W38304  18.141  15.490  14.952 -0.3512 -0.0923  0.1493
19451W        W38305  16.981  16.381  15.092  0.2106 -0.2904  0.0507
19452W        W38306  13.553   7.327  11.174  0.1997  0.1028 -0.2254
19453W        W38307  16.807   8.569   0.346 -0.1583  0.2268 -0.0260
19454W        W38308   6.969   5.961  11.562 -0.1022  0.0498  0.0025
19455W        W38309   2.079   7.513  13.579 -0.0706 -0.0242  0.1076
19456W        W38310   2.923   2.303   2.542  0.4145 -0.2215  0.0931
19457W        W38311   7.080   4.254   2.616  0.0693  0.1989  0.4276
19458W        W38312   3.749   1.689  14.223  0.0899 -0.0745  0.1243
19459W        W38313  13.616  16.974  12.952  0.2799  0.0882 -0.3052
19460W        W38314  16.046   8.282   2.148  0.3644  0.1357  0.1150
19461W        W38315   1.368   8.726   1.825 -0.1487  0.0933  0.0609
19462W        W38316  17.187  13.743  14.017 -0.0233  0.1607  0.0501
19463W        W38317  15.980  11.809   0.149 -0.1798 -0.0167  0.0478
19464W        W38318  10.201   8.928   2.543  0.0893  0.0413 -0.0314
19465W        W38319   9.838  11.650  12.948 -0.1339  0.2280  0.1875
19466W        W38320  12.173  15.267  12.406 -0.0092  0.1220 -0.0075
19467W        W38321  10.141  14.626  11.508 -0.2898  0.2317 -0.2513
19468W        W38322  13.899   4.381   4.961 -0.4068  0.3849 -0.0134
19469W        W38323   8.206  18.085  11.184 -0.4308 -0.0118  0.5332
19470W        W38324   3.654   7.700   2.065 -0.1172 -0.3368  0.0016
19471W        W38325   2.382  14.871  10.938 -0.1719  0.0407  0.0036
19472W        W38326  15.418  14.035   3.060  0.3690  0.0243 -0.1278
19473W        W38327   0.073   2.054  10.753  0.2824 -0.0914 -0.1622
19474W        W38328   7.623  11.416  11.252  0.2254 -0.3861 -0.1458
19475W        W38329  12.636   3.750  14.285  0.1233  0.2214  0.1352
19476W        W38330  16.320  10.176  14.312 -0.0151 -0.1121 -0.0843
19477W        W38331   2.170  17.098  15.070 -0.0380  0.3417  0.1345
19478W        W38332   3.931   3.562  14.873 -0.0559 -0.1066  0.0701
19479W        W38333   9.054   3.207  13.648  0.1509  0.1328 -0.2276
19480W        W38334   6.310   4.609   0.424  0.1792 -0.1778 -0.1879
19481W        W38335   6.844  14.800   1.033 -0.2248  0.0182 -0.0118
19482W        W38336  11.554   9.017   2.259 -0.2631 -0.0943  0.0013
19483W        W38337   4.919   5.218   4.091  0.1974 -0.0650 -0.0494
19484W        W38338  13.403  11.587   0.436 -0.1081 -0.2933  0.2192
19485W        W38339  17.919  13.788   4.042 -0.0631  0.2075  0.3083
19486W        W38340  10.213   8.430  10.712 -0.0912 -0.2521 -0.1435
19487W        W38341  12.601   2.452   1.182 -0.1910 -0.3534  0.1593
19488W        W38342   8.259   6.413   1.124 -0.0524  0.0542  0.0743
19489W        W38343  11.128   9.511  13.206 -0.1827 -0.1963  0.1454
19490W        W38344   6.671  14.839  13.544  0.4522  0.1984 -0.5323
19491W        W38345   3.711  13.700  15.027 -0.0270 -0.4055  0.1546
19492W        W38346  15.025   4.812  11.116 -0.0973 -0.0653 -0.1053
19493W        W38347   1.514  12.590   0.762 -0.0062 -0.0024 -0.4110
19494W        W38348   5.726   6.128   1.642  0.3724  0.0943  0.1212
19495W        W38349  12.573  13.069   0.576  0.0661 -0.1140 -0.2052
19496W        W38350   6.831  13.250  10.270 -0.0758 -0.0802 -0.3765
19497W        W38351   8.621  13.495   4.104  0.1061 -0.2197 -0.0288
19498W        W38352  12.367   7.439   1.159  0.1045 -0.0838 -0.0992
19499W        W38353   7.736   9.963   4.170  0.0380 -0.2949 -0.1927
19500W        W38354   6.048  13.605   3.527  0.3376  0.2945 -0.1733
19501W        W38355   8.885   1.611   3.828  0.4989  0.2136 -0.0544
19502W        W38356   3.313   8.235  15.291 -0.1426 -0.1754  0.0234
19503W        W38357   6.885   8.899  14.877  0.3123 -0.3075 -0.1146
19504W        W38358   0.023  13.071  14.083 -0.1569  0.0088 -0.2065
19505W        W38359  17.836   5.822  12.298 -0.0320  0.1152  0.0661
19506W        W38360   9.237   9.795  13.291  0.1360  0.1142 -0.0169
19507W        W38361   2.050   6.310  14.550 -0.2862  0.0668  0.3617
19508W        W38362  10.028  15.431  11.863 -0.0417 -0.0897 -0.2839
19509W        W38363   0.614  18.028   3.685 -0.2256  0.0727 -0.2714
19510W        W38364  17.214   5.070  14.120  0.1396  0.0057 -0.0973
19511W        W38365   7.155   9.074   1.279  0.2342 -0.1175  0.1617
19512W        W38366  17.348   0.424   0.211 -0.0277 -0.0268 -0.0772
19513W        W38367  11.210  10.179  14.799  0.0241  0.0979  0.1542
19514W        W38368   8.418  16.205  14.804  0.0088 -0.0512  0.4549
19515W        W38369   7.910   5.182  10.207 -0.0146 -0.2490  0.1119
19516W        W38370   8.580   4.195   1.644 -0.4265  0.1018 -0.0633
19517W        W38371  16.829   3.920  15.408 -0.0605  0.1120  0.0872
19518W        W38372   7.490  14.242  11.395 -0.0700 -0.3484  0.1105
19519W        W38373  15.206   6.904   3.218  0.0417  0.0467  0.2056
19520W        W38374  14.523  11.496   3.118  0.0704  0.2835 -0.4377
19521W        W38375  12.927  13.375  12.792 -0.1722 -0.0694 -0.1166
19522W        W38376   1.810  15.858  15.290  0.0976  0.0628 -0.0617
19523W        W38377  16.306  12.404  13.728  0.1006 -0.1545 -0.1198
19524W        W38378  16.248   1.204  13.934 -0.2599 -0.0943  0.1360
19525W        W38379  15.790  10.811  13.641 -0.2861  0.1267  0.0815
19526W        W38380  13.553  14.786   3.082 -0.0481  0.0682  0.0260
19527W        W38381   2.484   6.050   0.748 -0.1762  0.1757 -0.0215
19528W        W38382  11.026   1.971  11.914 -0.2606  0.1399 -0.0636
19529W        W38383   1.360   5.960  12.848 -0.3272 -0.3091  0.1756
19530W        W38384   4.517   1.705   2.826 -0.0002  0.1184  0.0554
19531W        W38385   2.931   8.887   2.066 -0.3179 -0.0049  0.0266
19532W        W38386   8.532  14.334   1.619 -0.2353  0.0453  0.0272
19533W        W38387  17.576  14.669   0.105  0.2331  0.0799 -0.2173
19534W        W38388   6.676   4.876  15.110 -0.1351  0.1034  0.0158
19535W        W38389   1.558  18.462   2.034 -0.3089 -0.1045  0.4165
19536W        W38390  14.688   8.835  12.988  0.0013  0.0575  0.3823
19537W        W38391  10.445   8.352   4.260  0.2529 -0.1751  0.3928
19538W        W38392  12.676   1.062  12.662  0.1861 -0.1446  0.0659
19539W        W38393   0.411  12.725   1.705 -0.0637  0.1552  0.3191
19540W        W38394   0.129  16.685  13.651  0.3262  0.0149 -0.1136
19541W        W38395  17.165  14.633  12.685 -0.0628  0.0933 -0.0453
19542W        W38396  12.714   1.095   3.508 -0.0751 -0.0848 -0.0074
19543W        W38397   0.207  12.305   3.340  0.2809 -0.2588 -0.1840
19544W        W38398  17.965  15.267  12.247  0.3481 -0.4027 -0.0763
19545W        W38399  11.475  18.025   0.909  0.1245 -0.1551 -0.0554
19546W        W38400   7.753   2.792  13.535  0.2082  0.0954 -0.2256
19547W        W38401   7.693   5.489  13.058  0.2025 -0.2405  0.0243
19548W        W38402   5.088   0.177  12.148 -0.1078 -0.1582  0.1962
19549W        W38403   6.500   4.883  13.769 -0.0901  0.0347 -0.1818
19550W        W38404  17.018  16.071   4.171  0.2871 -0.0625  0.0398
19551W        W38405   6.800   3.113   0.412 -0.1402  0.1856  0.1900
19552W        W38406   4.223   0.925   2.194 -0.0618 -0.0525 -0.1808
19553W        W38407   9.769   5.227   4.451  0.0726  0.0352 -0.1588
19554W        W38408   6.255  15.440  15.394  0.0861 -0.1783 -0.1335
19555W        W38409   7.281  14.244  13.889  0.2722 -0.0351  0.1493
19556W        W38410  15.736  17.238   1.263 -0.3274  0.1467 -0.0167
19557W        W38411   6.228   9.515  14.680  0.0287 -0.0830  0.0792
19558W        W38412   8.912  17.364  12.503 -0.1924  0.4804 -0.1420
19559W        W38413  17.131  16.224  13.010 -0.1461  0.1911  0.0115
19560W        W38414   6.854   7.021  12.312 -0.1316 -0.0407  0.1725
19561W        W38415   0.247  14.590  14.082  0.3052 -0.0044  0.2732
19562W        W38416  11.763   3.406  10.463 -0.0161  0.0706  0.0846
19563W        W38417   7.320  12.597  14.856  0.1665  0.1863 -0.0294
19564W        W38418  15.300  15.572  12.283  0.3818 -0.2976 -0.1891
19565W        W38419   4.259  18.423  15.404 -0.0124 -0.1680 -0.1058
19566W        W38420   1.668   7.935   1.323 -0.0997 -0.0762 -0.1703
19567W        W38421   5.296   5.934   2.681  0.0314 -0.1715 -0.0473
19568W        W38422  12.660  16.175  12.648 -0.0037  0.0972 -0.1893
19569W        W38423   2.039  11.137   2.095  0.1255 -0.0009  0.1107
19570W        W38424   7.211  15.756   2.508 -0.3355  0.0654 -0.1962
19571W        W38425   8.233  17.429  12.777  0.1800  0.0359 -0.0205
19572W        W38426   5.925   3.905  12.581  0.0414  0.0118 -0.0169
19573W        W38427  14.459  16.833   1.569  0.0533  0.2495  0.1645
19574W        W38428   4.530   4.888  11.453 -0.0948 -0.0006  0.0013
19575W        W38429   8.992  13.114  11.058  0.2145  0.2798  0.0789
19576W        W38430  11.973   6.454   4.694 -0.0348  0.4728  0.0226
19577W        W38431  13.274  14.948  12.159  0.0600  0.2023 -0.0073
19578W        W38432  17.142   5.922   1.275 -0.2746 -0.1100  0.0206
19579W        W38433   7.081  15.411  12.209 -0.0468 -0.1040  0.1573
19580W        W38434  12.798   0.391   0.398  0.3408  0.0262  0.0489
19581W        W38435  15.007   0.128  13.472  0.0142 -0.0416 -0.0123
19582W        W38436   4.955  15.379   3.290  0.0072 -0.0732 -0.0774
19583W        W38437  10.146  14.758  10.441 -0.0892 -0.0605  0.1018
19584W        W38438  14.111   3.131  12.619  0.2551  0.1552 -0.0134
19585W        W38439   9.086  11.238   1.920  0.1104  0.1499 -0.1277
19586W        W38440   8.781  13.834   2.522 -0.1419  0.2966 -0.0339
19587W        W38441   5.840   5.659   1.839  0.2187 -0.1605 -0.0579
19588W        W38442  17.075  10.962   2.523 -0.0422  0.1642  0.0916
19589W        W38443   4.815   8.814  11.918  0.3746  0.1095  0.4336
19590W        W38444  15.399   2.458   2.295  0.0959 -0.1788  0.0895
19591W        W38445   6.232   5.952   0.281 -0.1331 -0.1209  0.1988
19592W        W38446   3.825   6.264  11.665  0.3331  0.0352 -0.4403
19593W        W38447   0.720   7.653  15.028  0.1498  0.1319 -0.2915
19594W        W38448  10.205  13.999   0.781  0.1221  0.0776  0.0458
19595W        W38449   9.760  16.187   4.491 -0.2125 -0.0797 -0.1886
19596W        W38450   1.887  11.362   0.257  0.3017  0.0704 -0.1782
19597W        W38451   0.307  15.415   0.631  0.0410 -0.1805 -0.1084
19598W        W38452   0.146   0.791  11.254 -0.2282  0.3000 -0.1398
19599W        W38453  12.979  12.580  14.658 -0.0707 -0.3019  0.0128
19600W        W38454   1.557  14.701  12.713  0.2497 -0.1530  0.0348
19601W        W38455   2.858  16.424   1.165 -0.2930  0.0639  0.0167
19602W        W38456   4.779  17.941   4.813  0.2691  0.0747  0.4230
19603W        W38457   0.841   1.258  11.879 -0.1655 -0.0786 -0.0458
19604W        W38458   4.828   5.133  12.656 -0.0773  0.0311  0.0014
19605W        W38459   4.785  10.698  11.626 -0.2456  0.2936 -0.1114
19606W        W38460  12.389  11.868  15.207 -0.1965  0.0216 -0.2299
19607W        W38461   6.555   6.764   0.907  0.0598 -0.3257 -0.0894
19608W        W38462   5.650   1.131   0.298 -0.3143  0.0251 -0.1027
19609W        W38463  16.055   0.747   0.383  0.0870 -0.0002  0.0147
19610W        W38464   5.391  15.878   3.939 -0.3153  0.1514 -0.0914
19611W        W38465  12.179  10.078   3.822  0.1365  0.0149  0.0270
19612W        W38466   9.520  14.562  12.991 -0.5722  0.1823 -0.4910
19613W        W38467  11.496  16.116  11.880  0.1967 -0.2914 -0.0510
19614W        W38468  16.126   2.712   3.525  0.0308 -0.1194 -0.2625
19615W        W38469   3.410  15.551   3.716 -0.2104 -0.0910 -0.1723
19616W        W38470   0.408   0.293  11.712  0.0984 -0.0194 -0.0561
19617W        W38471   1.725   7.267   3.769  0.0485 -0.0661  0.1855
19618W        W38472  14.874  10.856   2.208  0.0938 -0.1659  0.4364
19619W        W38473  16.636   0.181   4.885 -0.0119  0.0182 -0.0761
19620W        W38474   3.444  17.381  14.590  0.0717  0.2362  0.0227
19621W        W38475   9.378   2.805   4.679  0.0243  0.0726 -0.1448
19622W        W38476   1.066  14.546  10.616  0.0363  0.1778 -0.2419
19623W        W38477   8.652   0.509   2.199  0.1733  0.1644 -0.2344
19624W        W38478   6.483  18.199  12.934  0.1302  0.0938  0.0206
19625W        W38479   7.282  11.522  11.904 -0.2978  0.1333 -0.0548
19626W        W38480   5.221   2.628  15.149  0.3613  0.2997 -0.0304
19627W        W38481   0.698   8.542  13.970 -0.0976 -0.1216  0.0119
19628W        W38482  15.226   8.549  15.371 -0.1859 -0.1653 -0.3308
19629W        W38483   1.194   7.609   3.796  0.0231  0.1835 -0.3469
19630W        W38484  12.038  11.172   0.061  0.0692  0.0323 -0.0210
19631W        W38485   9.997  14.427   2.715 -0.0440  0.0572  0.1638
19632W        W38486  15.033  16.463  14.001  0.1806  0.0591 -0.1165
19633W        W38487  15.964  17.306   5.001  0.1805  0.0387  0.2747
19634W        W38488  14.643  12.984   3.694 -0.2530  0.0396 -0.2072
19635W        W38489   6.321   1.077   1.669 -0.0322  0.1565 -0.0052
19636W        W38490   0.486  13.723   5.129 -0.0753  0.0985  0.2797
19637W        W38491   2.704   4.048   2.980 -0.1643 -0.1945 -0.1231
19638W        W38492   2.355   0.984  10.958  0.1536 -0.1692  0.2167
19639W        W38493   8.793   3.726  11.068 -0.0391 -0.0979 -0.1452
19640W        W38494  10.468   7.442   1.511  0.2238 -0.0466  0.5274
19641W        W38495   9.842   9.160  14.624 -0.0483 -0.1465 -0.2185
19642W        W38496  14.171   3.334  13.783 -0.3737 -0.2001 -0.0383
19643W        W38497   5.997   5.118   1.943 -0.0621 -0.0112  0.0742
19644W        W38498  16.420  17.341   4.758 -0.2147  0.2745  0.0316
19645W        W38499   5.554   4.852  10.229  0.0290 -0.1187  0.2662
19646W        W38500   3.719   0.085   5.462  0.0562  0.4229  0.0164
19647W        W38501   3.378   8.562   3.343  0.1536 -0.1207 -0.2187
19648W        W38502   5.624   8.053   2.480  0.2228 -0.0973 -0.1298
19649W        W38503  18.376   6.588   0.395 -0.0685 -0.2548  0.0582
19650W        W38504  10.594  12.937  14.597  0.1207  0.2424  0.1576
19651W        W38505  12.725   9.269  14.955 -0.0430 -0.2023  0.3280
19652W        W38506  14.648  11.005   3.148 -0.0289  0.1067  0.0496
19653W        W38507  11.368   5.973   4.233 -0.1584 -0.0557 -0.0617
19654W        W38508  17.709   8.653  11.898 -0.0166 -0.0165 -0.0171
19655W        W38509  10.911  15.426   3.928 -0.2424 -0.0710  0.0401
19656W        W38510  13.763   2.103  11.067 -0.5085 -0.1095 -0.0015
19657W        W38511  14.025   7.397   1.357 -0.0383  0.2073 -0.1691
19658W        W38512   6.796  14.429  12.521 -0.3830 -0.0229 -0.3076
19659W        W38513  12.721  18.057  14.445  0.1151 -0.0112  0.0959
19660W        W38514   0.764  14.320  14.057 -0.1173  0.2904 -0.1495
19661W        W38515   0.428  11.321  14.289 -0.0601 -0.0732  0.0398
19662W        W38516   2.811  11.099  13.710  0.2651 -0.1323 -0.0352
19663W        W38517  12.600  18.018   3.018  0.2311 -0.0957 -0.1194
19664W        W38518  13.566   7.272  14.480  0.3732 -0.1013  0.2468
19665W        W38519  10.966   1.802   3.056  0.1289 -0.4126  0.3819
19666W        W38520   1.992   2.733  13.946 -0.3625 -0.0971  0.2155
19667W        W38521  14.495   1.962   1.670 -0.1859 -0.0493 -0.2788
19668W        W38522   8.686  10.429  15.235  0.2852  0.0357  0.1052
19669W        W38523  16.342  14.818  12.902  0.1364 -0.0422  0.0751
19670W        W38524  13.660  13.895  13.406 -0.1844 -0.1091  0.1674
19671W        W38525  17.773   9.951   1.809 -0.3089  0.0691  0.2123
19672W        W38526   4.570   7.368   1.823  0.0857  0.0599 -0.1573
19673W        W38527  15.455  12.812   2.674 -0.1282  0.0941 -0.2549
19674W        W38528   5.904   2.374  11.670 -0.0749  0.1855  0.0604
19675W        W38529  11.462   0.363   0.398 -0.0340  0.1375  0.1207
19676W        W38530  17.085   6.868  11.948  0.0821  0.4782 -0.2261
19677W        W38531   1.900  14.650  11.108  0.2438  0.1059 -0.0985
19678W        W38532   9.227  14.808   0.678  0.0482 -0.1376 -0.2413
19679W        W38533   1.060   5.548  13.031 -0.2533  0.2331 -0.2323
19680W        W38534  14.457   1.254  12.474  0.3774  0.2686 -0.2426
19681W        W38535   2.622  12.662   3.170  0.0762  0.0075  0.2491
19682W        W38536   8.401   2.973  14.981  0.2271 -0.0527 -0.0356
19683W        W38537  14.326  11.158   3.494  0.3733 -0.1416  0.0367
19684W        W38538   2.106   0.779   1.551 -0.1583  0.0125  0.1204
19685W        W38539  17.227   7.930   2.508 -0.0647 -0.1338 -0.1665
19686W        W38540  12.851   4.993   1.860  0.4203  0.3318  0.0570
19687W        W38541   8.656  15.377   3.424 -0.2236  0.0637  0.2638
19688W        W38542  12.371  11.690   3.431  0.0405 -0.0558  0.1941
19689W        W38543  16.028   7.118  14.659 -0.0511 -0.0374  0.0832
19690W        W38544   9.172  14.153  15.296 -0.2038 -0.0591  0.0062
19691W        W38545   6.558   1.809  10.509  0.2762 -0.2266  0.1205
19692W        W38546   6.489  18.356  13.482 -0.0258 -0.0508  0.2568
19693W        W38547  13.989   0.276  11.141  0.2181  0.2603 -0.1075
19694W        W38548  16.672   2.203  12.122 -0.3294  0.1330 -0.0678
19695W        W38549   6.539   4.158   0.588 -0.0316 -0.2372  0.0506
19696W        W38550   9.232  11.121   2.498 -0.1138  0.1815  0.2174
19697W        W38551  11.509  15.911  12.728 -0.2162  0.1590 -0.1871
19698W        W38552   6.169  12.506   3.465  0.1120  0.0115  0.0880
19699W        W38553   8.074   9.293   1.801 -0.3032 -0.1794 -0.2336
19700W        W38554   2.294  11.938   3.634  0.0248  0.1087  0.0754
19701W        W38555  18.150  15.499   3.638  0.3812  0.2357 -0.0133
19702W        W38556  15.262   3.559   1.446  0.3449 -0.2953  0.4843
19703W        W38557   0.204  15.330   0.166 -0.1874  0.1222 -0.1610
19704W        W38558   5.892  11.522  11.768 -0.2084  0.0322  0.1052
19705W        W38559  10.307  14.293   3.946  0.1318  0.0862  0.1560
19706W        W38560   9.306   3.495  11.028  0.2328 -0.1011 -0.2223
19707W        W38561  13.220   7.484   5.570 -0.0852 -0.1746 -0.2855
19708W        W38562  16.945  14.214  14.898  0.2229  0.3587 -0.0743
19709W        W38563   5.322  15.062  11.782 -0.3174  0.1178  0.3731
19710W        W38564   0.965   7.674  12.164  0.2906  0.1247  0.0645
19711W        W38565   5.902   0.411   3.991 -0.1012 -0.1617 -0.2490
19712W        W38566  11.450  14.260   4.426 -0.0264  0.0505 -0.1463
19713W        W38567  15.070   2.492  13.816 -0.4034 -0.0977 -0.1518
19714W        W38568  15.935  14.615  12.035 -0.2480 -0.0294 -0.0047
19715W        W38569   2.613   8.281  13.729 -0.2674 -0.0380 -0.0108
19716W        W38570  11.650  14.200   3.649 -0.2409 -0.1878  0.2954
19717W        W38571   5.876  11.319  13.416  0.0616 -0.2724 -0.1511
19718W        W38572  16.184   2.958   1.712 -0.0660  0.0966 -0.1779
19719W        W38573  10.584   8.874  13.630  0.3942 -0.0546  0.2861
19720W        W38574  14.007   3.265  15.096 -0.0614  0.1903  0.1942
19721W        W38575   3.926  17.254   1.398  0.3233  0.2458 -0.0015
19722W        W38576  15.125  13.787  14.318  0.1223 -0.0162  0.0042
19723W        W38577  16.119   9.509  10.936  0.0697 -0.0715 -0.1901
19724W        W38578  11.120  18.110  15.385 -0.0936  0.0452  0.1845
19725W        W38579   9.097  15.637  14.346  0.0656  0.2186  0.2214
19726W        W38580  14.027  17.824  11.293  0.0780  0.1842 -0.2979
19727W        W38581   1.944  16.185   4.553  0.0753  0.0075  0.0787
19728W        W38582   1.019  10.055   3.484 -0.0426 -0.2177  0.0709
19729W        W38583   6.734   7.714   3.343 -0.1039 -0.0433 -0.0703
19730W        W38584  12.895   2.623  11.414 -0.0872  0.2546  0.0654
19731W        W38585  18.032  13.289  11.552  0.2895  0.1607 -0.0887
19732W        W38586  16.173   6.851  12.139 -0.2015 -0.0200 -0.0278
19733W        W38587   1.472  16.889   2.624 -0.1455 -0.1178 -0.3354
19734W        W38588   2.297   7.103  13.845  0.0114 -0.3339  0.4342
19735W        W38589   1.780   7.143  14.345  0.2495  0.0488 -0.0735
19736W        W38590   3.415   5.052   3.491  0.0942  0.0018 -0.0281
19737W        W38591   6.836   6.025   4.517 -0.4138 -0.2389 -0.0435
19738W        W38592   7.408  15.656   1.017  0.0534  0.2071  0.2062
19739W        W38593   2.922  13.103   3.016 -0.2854  0.1148  0.1540
19740W        W38594   6.034  18.388   0.534  0.1679  0.0690  0.1072
19741W        W38595  12.895   9.350   4.436 -0.0553 -0.1095 -0.1607
19742W        W38596   1.814  11.891  13.428  0.2003  0.1900 -0.0115
19743W        W38597   4.518   2.192   0.236 -0.2951  0.1246  0.0769
19744W        W38598  15.694  15.502  13.912 -0.0334  0.2552 -0.1270
19745W        W38599   2.826  11.796   0.404  0.1845  0.0380 -0.0345
19746W        W38600   9.979  17.704   3.342 -0.0181 -0.1445 -0.2201
19747W        W38601  12.970  14.823   2.226  0.0971 -0.0660 -0.0981
19748W        W38602  10.735   8.056   3.781 -0.3296  0.0280 -0.0149
19749W        W38603   8.702  17.663   1.072 -0.1231  0.1294  0.1186
19750W        W38604   3.101  16.970   3.857 -0.0787  0.1629 -0.0153
19751W        W38605  15.096  16.801   3.297 -0.0547 -0.1805 -0.0960
19752W        W38606  18.118  16.328   2.891  0.0051 -0.1692 -0.0475
19753W        W38607  11.210   0.139  12.360  0.2333  0.0956 -0.1292
19754W        W38608  13.579   6.249  13.357 -0.2559 -0.2168  0.1065
19755W        W38609  15.589  14.076   0.007 -0.0794 -0.2271  0.2557
19756W        W38610   7.334   9.741   0.093 -0.0786 -0.1966  0.2297
19757W        W38611   1.623  12.376   2.317  0.0547  0.0112  0.2066
19758W        W38612  11.769   3.706  13.981 -0.0757  0.0306 -0.0453
19759W        W38613   0.948  14.219  13.206 -0.0361 -0.2650 -0.0159
19760W        W38614   6.500   1.370  11.325 -0.1121  0.1170  0.2832
19761W        W38615  12.486  12.314   3.249  0.3429  0.4658 -0.1829
19762W        W38616  12.386  15.513  14.389 -0.0055 -0.3332 -0.0101
19763W        W38617  17.808  12.150  11.513 -0.4073 -0.0449 -0.0980
19764W        W38618  11.181   2.910   2.718  0.0474  0.2414  0.0197
19765W        W38619   4.694  14.183  12.829 -0.0132  0.2799  0.0417
19766W        W38620  12.956   6.439   4.122 -0.0328  0.2070  0.2080
19767W        W38621   7.393  13.277  11.014  0.0896  0.4114  0.3256
19768W        W38622  14.860   6.707  12.634  0.2628 -0.0276 -0.3551
19769W        W38623   0.336  18.440   3.517  0.1358  0.2071  0.4538
19770W        W38624  16.779   8.016   4.522 -0.2048  0.1812  0.0396
19771W        W38625  17.993  18.443  12.653  0.1948 -0.1370  0.0837
19772W        W38626   3.357  18.532  14.854 -0.0428 -0.3315  0.0681
19773W        W38627  11.463  10.437  12.118 -0.0320  0.1140 -0.1523
19774W        W38628  10.203  12.584  12.634  0.3286 -0.4376  0.0789
19775W        W38629  13.478   1.737   0.998 -0.2028  0.1184 -0.0713
19776W        W38630   1.510   8.010  10.567 -0.1033  0.0609  0.2134
19777W        W38631  11.344   6.344  15.182 -0.0213 -0.0090 -0.5723
19778W        W38632  11.174   8.278   3.931  0.1985  0.2170 -0.0558
19779W        W38633   2.726  14.984   3.210  0.1423 -0.1679  0.0869
19780W        W38634  16.778   7.690   3.054 -0.1641 -0.0683 -0.0749
19781W        W38635  13.569   1.351  13.101 -0.2040  0.3033  0.2772
19782W        W38636  10.834   9.939  11.329 -0.2019 -0.3264  0.0219
19783W        W38637   9.112   0.006  14.977  0.0730  0.0050  0.2464
19784W        W38638   6.741  14.029  12.947  0.2978  0.0969  0.2102
19785W        W38639   1.735  10.015  14.460 -0.0392  0.3721  0.0445
19786W        W38640   0.946   4.537   3.472  0.0494 -0.1420  0.1960
19787W        W38641  13.989   9.311   4.540 -0.2658 -0.0202 -0.2073
19788W        W38642  12.207  11.142   4.379 -0.1751  0.0617  0.2038
19789W        W38643  17.241   1.247  12.389  0.0276 -0.1059 -0.1204
19790W        W38644  11.242  11.105  14.390  0.2466  0.1260 -0.0704
19791W        W38645   6.505  10.606  14.332  0.3428 -0.1330 -0.2313
19792W        W38646   3.016   8.386   1.163  0.0647 -0.1403 -0.1729
19793W        W38647  11.818  11.330  11.857 -0.0311 -0.4801  0.0614
19794W        W38648   6.256   5.376  13.508  0.4095 -0.2608  0.1169
19795W        W38649  16.497   2.090   5.400 -0.0361 -0.2179 -0.1189
19796W        W38650   9.061  11.598   0.417  0.0201 -0.3314  0.3950
19797W        W38651   7.555   0.738   4.749  0.0157 -0.0504  0.1151
19798W        W38652   7.240  16.261   3.477 -0.2436  0.0760  0.1088
19799W        W38653  14.597   8.620  13.979 -0.2737  0.0964 -0.0018
19800W        W38654   1.141   7.098   0.969 -0.1932 -0.1430  0.2473
19801W        W38655   5.720   9.368   4.280  0.0166 -0.0404  0.0589
19802W        W38656   1.839   2.360  13.658  0.1431  0.0420 -0.3012
19803W        W38657  10.144  17.138   0.508 -0.1299 -0.2531 -0.0805
19804W        W38658   1.524  12.327  15.136 -0.1754  0.1007  0.0947
19805W        W38659  11.443  16.061   2.192  0.1155 -0.0248 -0.0577
19806W        W38660   5.284   0.401   1.343 -0.3139 -0.1186  0.0460
19807W        W38661  13.767  17.099   4.841  0.0584  0.0527  0.0727
19808W        W38662  14.600   8.514  12.593 -0.1792 -0.0559  0.0253
19809W        W38663  15.940  17.580  14.788 -0.0758  0.2234 -0.0211
19810W        W38664  10.235   8.709  14.412 -0.1207 -0.2862  0.1519
19811W        W38665   1.332  13.886   9.743 -0.1516  0.0648 -0.1687
19812W        W38666   0.245  10.143   1.744  0.1567  0.3394  0.2128
19813W        W38667  12.198   5.233   4.064 -0.2814  0.1428 -0.4045
19814W        W38668   8.705  12.144   0.546 -0.2111  0.2509 -0.2406
19815W        W38669   7.399   9.011  15.169 -0.1125 -0.0343  0.3251
19816W        W38670  14.175   3.395   2.388 -0.0994 -0.0414  0.2088
19817W        W38671  16.207  18.112  11.244  0.2096 -0.1866 -0.1758
19818W        W38672  17.613  12.186   2.404  0.4086 -0.0198  0.1651
19819W        W38673   1.980   5.406  11.806 -0.0433 -0.1757 -0.0015
19820W        W38674  11.976  13.500  12.515  0.0765  0.1144 -0.2026
19821W        W38675   9.965  10.339   1.403 -0.0901 -0.3063  0.2476
19822W        W38676   8.294  14.913  12.724 -0.1029  0.1787 -0.0239
19823W        W38677  17.057   7.516  12.871  0.0686  0.0657  0.1257
19824W        W38678   7.001   5.867   0.625  0.2634  0.4104 -0.2110
19825W        W38679  15.432   9.941  11.428  0.1193 -0.1476  0.0601
19826W        W38680   6.601  16.469  11.070  0.0745  0.0773 -0.2116
19827W        W38681  12.817   0.476  11.272 -0.1981  0.0254 -0.1549
19828W        W38682   9.604   0.596   1.158 -0.1192  0.1105  0.0504
19829W        W38683   1.437   3.200  14.234  0.1468 -0.4061 -0.1501
19830W        W38684  14.934  15.676  11.058 -0.2552 -0.1029 -0.0671
19831W        W38685  13.804   8.940  12.017  0.3786 -0.0238  0.0163
19832W        W38686   4.674   2.342   5.372  0.5389  0.0061  0.1597
19833W        W38687  17.867   2.663   1.083 -0.1168 -0.2256 -0.1984
19834W        W38688   2.956  18.489  12.196  0.1482 -0.0893  0.1150
19835W        W38689  15.806  10.563   4.343  0.0073  0.4012 -0.2147
19836W        W38690   1.947   0.841   0.439  0.3865  0.1575 -0.1047
19837W        W38691  11.078  10.540   1.110 -0.2193  0.0387 -0.1122
19838W        W38692   5.841   8.999   1.352 -0.0069  0.0118  0.0117
19839W        W38693  16.821   5.943  14.567  0.1034 -0.0554  0.1847
19840W        W38694  12.004  14.613  12.765 -0.0671  0.2162  0.0766
19841W        W38695   9.122  13.844   0.332 -0.0251 -0.0887  0.1548
19842W        W38696   0.118   2.374  15.057 -0.0956  0.1988  0.1181
19843W        W38697   4.767  11.184   4.246 -0.2601 -0.3721 -0.0129
19844W        W38698   3.833  11.111  13.186  0.2680 -0.0854 -0.2726
19845W        W38699   1.187   0.351   0.662 -0.3228 -0.1074 -0.0075
19846W        W38700   6.653  12.877  11.541  0.0990  0.0600 -0.2738
19847W        W38701   2.311  18.361  11.593 -0.2838 -0.3385 -0.1032
19848W        W38702   6.289   1.427   2.090 -0.1652  0.3247  0.0119
19849W        W38703  10.889   0.742  13.875  0.0926 -0.1047  0.1008
19850W        W38704   2.665  15.160  15.340 -0.0952  0.1394  0.1761
19851W        W38705  14.289  10.610   1.802  0.1251  0.0016  0.1433
19852W        W38706   5.640   3.149   1.109 -0.0075  0.1317  0.0594
19853W        W38707   9.538  17.390   3.221  0.1477 -0.2597  0.4285
19854W        W38708   9.251   4.472  12.112 -0.2083  0.1998  0.2284
19855W        W38709   9.628   0.922  11.715 -0.0361  0.1144  0.4477
19856W        W38710   8.254  10.041  12.555  0.0819  0.1501 -0.0476
19857W        W38711   0.084   7.058  13.511 -0.3161  0.0048  0.0807
19858W        W38712   1.435   5.725   3.583 -0.0299  0.2569 -0.1247
19859W        W38713  17.631  13.271   0.458 -0.0651  0.0491 -0.0279
19860W        W38714   8.652  14.908   3.317 -0.1245 -0.1440 -0.0035
19861W        W38715  18.028  13.147  13.844 -0.1443 -0.0009 -0.1529
19862W        W38716   0.163   9.002   0.777 -0.2810 -0.1396  0.2221
19863W        W38717  15.242  15.180  11.688  0.2440  0.3521 -0.2326
19864W        W38718  10.696  11.720   2.042 -0.1871 -0.1967 -0.2365
19865W        W38719  18.334   4.299   1.623  0.1200 -0.1342  0.1345
19866W        W38720  11.312  11.840  13.925 -0.1332  0.1438 -0.6306
19867W        W38721  15.259  17.544   3.762  0.1786 -0.0117 -0.0714
19868W        W38722  17.431  15.175   1.066 -0.0946  0.0632 -0.1331
19869W        W38723   7.331   0.558   2.452 -0.4742  0.1151  0.0764
19870W        W38724  13.392  12.911  11.652  0.1503  0.0072 -0.0522
19871W        W38725  11.455   5.763  11.426  0.1419  0.1990 -0.3469
19872W        W38726   7.573  12.584   3.349  0.1481 -0.0102 -0.4133
19873W        W38727   2.336  10.428  13.188 -0.0973 -0.0376  0.1933
19874W        W38728  15.912   8.280   4.197 -0.0431 -0.0768  0.0259
19875W        W38729  10.195   4.711   3.736  0.1722  0.2223  0.0222
19876W        W38730   7.769   7.852   3.039  0.0103  0.2480 -0.3144
19877W        W38731  18.461  12.045  12.293  0.0653  0.1744 -0.0701
19878W        W38732  17.034   5.969   0.439  0.4052 -0.0339  0.1928
19879W        W38733   0.690  11.258   1.934  0.2211  0.2436  0.1893
19880W        W38734   2.613   5.337  13.510 -0.2335  0.1227 -0.0331
19881W        W38735  14.812  12.001  12.517  0.0560 -0.0749  0.5333
19882W        W38736  17.845   4.872  14.932 -0.2098  0.0403 -0.3358
19883W        W38737  10.889  17.861  13.251  0.3963 -0.3251  0.0420
19884W        W38738  17.456  18.482  12.479 -0.0242 -0.0706 -0.0543
19885W        W38739  13.628   9.437   2.236  0.2044 -0.4121  0.1352
19886W        W38740   9.983  17.622  11.118  0.0515  0.0475  0.2013
19887W        W38741  18.526   6.130   2.951  0.0288 -0.1532 -0.0860
19888W        W38742   0.070   4.678  15.228  0.1768 -0.0710 -0.1609
19889W        W38743  14.388  16.601  15.240 -0.1646 -0.2125 -0.1037
19890W        W38744  13.310   3.768   2.353 -0.0192 -0.0942 -0.0031
19891W        W38745  12.307   3.613   4.739 -0.1247  0.0850 -0.0549
19892W        W38746  14.460  11.050   3.988  0.1522  0.1914 -0.3188
19893W        W38747   8.696   6.143   0.771 -0.1434  0.1210 -0.0321
19894W        W38748  14.568  13.208   2.889  0.1457 -0.0226 -0.1201
19895W        W38749   7.722  12.629  15.294  0.0209 -0.1099  0.0268
19896W        W38750  13.239   1.105   4.367 -0.0460 -0.2588  0.0735
19897W        W38751   9.847   0.566  13.969  0.2268  0.1408  0.3040
19898W        W38752   4.806   7.845   2.875  0.0563 -0.0812 -0.3321
19899W        W38753  15.911   0.334   0.077 -0.0712  0.2013  0.0827
19900W        W38754   3.918  14.141  14.724  0.1200 -0.0372 -0.0497
19901W        W38755   8.121   8.499   1.981  0.0960  0.3835 -0.0966
19902W        W38756   7.050  13.525  12.446  0.0503 -0.1517  0.0724
19903W        W38757  16.620  16.176  11.151 -0.1790 -0.0942 -0.0683
19904W        W38758  12.284  15.278   5.342 -0.1305  0.1657  0.2932
19905W        W38759   1.446  10.101   2.180  0.2222  0.0228 -0.0565
19906W        W38760  12.612  11.298   2.749  0.0246 -0.3672  0.1969
19907W        W38761  14.273  17.175   3.186  0.3199  0.0194 -0.0986
19908W        W38762  12.795   3.302   1.071  0.1619 -0.1215 -0.0935
19909W        W38763  16.584  15.908   9.738  0.2102 -0.2603 -0.0431
19910W        W38764  14.590  14.595  12.675  0.0981 -0.1986 -0.0604
19911W        W38765   1.744   0.259   3.121  0.0822 -0.0962  0.0657
19912W        W38766  12.404   4.338  12.303 -0.1447 -0.2729  0.2058
19913W        W38767  16.172  17.234  13.272  0.0477  0.1313 -0.0188
19914W        W38768   1.196  17.531  14.440 -0.0812  0.1687 -0.2451
19915W        W38769  15.915  15.792  13.013 -0.2263  0.0316  0.1815
19916W        W38770   2.849   9.859  12.837  0.1044 -0.0700  0.0356
19917W        W38771   1.435  13.466   3.452  0.1934  0.2319  0.0236
19918W        W38772  13.380   9.772   0.833 -0.0733 -0.6531 -0.0941
19919W        W38773   7.102  11.629  13.322 -0.2029  0.0328  0.0367
19920W        W38774   0.198  11.115   1.761 -0.2628 -0.2451  0.1856
19921W        W38775  16.833   1.171  12.689  0.0458  0.0335  0.1002
19922W        W38776  18.071   6.662  14.704  0.1785 -0.0507 -0.0079
19923W        W38777  16.258   6.439  12.641  0.0309 -0.1055 -0.0173
19924W        W38778   8.106  17.567  15.268 -0.0227  0.0528  0.0438
19925W        W38779   0.384  13.669   2.166  0.2053 -0.1733  0.1822
19926W        W38780  15.227   3.852  12.103 -0.1946 -0.0450  0.0138
19927W        W38781   9.437  14.148  11.446  0.0742 -0.0697 -0.3404
19928W        W38782   2.593   9.206  14.647  0.2783  0.0388  0.1048
19929W        W38783  11.762   4.916  14.911 -0.0336 -0.2667 -0.2390
19930W        W38784   2.586   8.031  11.093 -0.0097 -0.2452  0.0745
19931W        W38785  15.463   3.846   0.574 -0.0497 -0.3027  0.1521
19932W        W38786   9.631   9.025   0.477  0.0419  0.1101  0.1070
19933W        W38787   8.599   0.017  12.876 -0.0592 -0.2572 -0.0192
19934W        W38788  14.091  16.102  12.709  0.4400  0.2511  0.1604
19935W        W38789   5.187  15.303  14.623 -0.0187  0.0879 -0.1897
19936W        W38790   4.863  18.102  15.454  0.2539 -0.0510 -0.0482
19937W        W38791   7.132  13.525  11.438 -0.1494  0.1309 -0.1964
19938W        W38792  11.705   7.992  14.162  0.2149 -0.2284 -0.1359
19939W        W38793  17.575  14.864  11.920  0.1485 -0.1304 -0.0109
19940W        W38794  18.421   1.806   0.866  0.1224  0.0480 -0.1713
19941W        W38795  16.849   1.149   4.037 -0.1288 -0.2346 -0.1647
19942W        W38796   3.653  12.055  14.286 -0.0520  0.2042  0.1177
19943W        W38797   5.315   9.139  12.858 -0.1568  0.0938  0.1114
19944W        W38798   7.987  16.749   2.162 -0.0297 -0.0750  0.1263
19945W        W38799  10.180   5.686  14.446  0.1370 -0.0797  0.3376
19946W        W38800   8.208   0.567   2.984 -0.1757 -0.0474 -0.1289
19947W        W38801   0.467   5.105  12.595 -0.0098 -0.1630  0.0606
19948W        W38802   0.722  13.256  14.802 -0.0278  0.0674 -0.1209
19949W        W38803   2.929  11.970  13.302  0.0882 -0.0524 -0.2453
19950W        W38804  17.190  16.819   1.631 -0.1894 -0.1601  0.1321
19951W        W38805   8.860   4.137   3.417 -0.2872  0.2688  0.2889
19952W        W38806   2.460   7.979  13.386 -0.0002 -0.1484  0.0849
19953W        W38807   6.531   9.590  12.644  0.0351  0.1528 -0.0631
19954W        W38808   5.236  10.997   4.071 -0.3305 -0.1109 -0.1769
19955W        W38809   6.315   5.416  11.873 -0.0241 -0.2729 -0.0634
19956W        W38810   1.197   0.403  11.747 -0.0520  0.2668 -0.2537
19957W        W38811   8.452  17.233   4.839  0.0857 -0.2182 -0.0894
19958W        W38812   7.562  18.441   4.229 -0.1661  0.0109 -0.0979
19959W        W38813   4.944  15.772  11.413  0.0404  0.0228  0.1914
19960W        W38814  15.793   8.742   9.959  0.0109  0.1137  0.1181
19961W        W38815   7.121  15.608  14.541 -0.1420  0.1186  0.1151
19962W        W38816   3.641  14.652  14.391  0.1409 -0.1424  0.1798
19963W        W38817   7.459   8.653   1.401  0.0748  0.1334 -0.2332
19964W        W38818   7.555  13.066  13.525  0.2487 -0.2662  0.2083
19965W        W38819   5.829   7.636   5.747 -0.1794  0.0618 -0.1329
19966W        W38820   3.898   7.765  13.522 -0.1698  0.0216 -0.0227
19967W        W38821   9.129  12.411  12.743  0.1695  0.0650  0.1620
19968W        W38822   6.066   9.616  12.809  0.1119 -0.2538  0.0439
19969W        W38823   3.488   3.036  12.848 -0.0163  0.1698 -0.0531
19970W        W38824   1.081  18.199   1.945 -0.0720  0.2007 -0.2753
19971W        W38825  12.779   6.783   4.513 -0.0622 -0.3379  0.0468
19972W        W38826  13.857  12.158  12.546  0.2321 -0.0981  0.1435
19973W        W38827   0.890   8.342  10.875  0.2408 -0.1049  0.1039
19974W        W38828   4.578   1.413   4.373 -0.3114 -0.2119  0.0238
19975W        W38829   7.282  10.819   3.951  0.2344  0.0763 -0.1752
19976W        W38830   7.377   7.005   1.225  0.1973  0.1239 -0.1184
19977W        W38831   9.310  13.735   1.685 -0.0408  0.0784 -0.0543
19978W        W38832  16.672   0.817   2.227  0.4060  0.0196  0.0563
19979W        W38833   6.287  11.265  11.032  0.0172 -0.0537 -0.1157
19980W        W38834  18.235  12.818   4.278  0.0678 -0.2954  0.1327
19981W        W38835  14.620  11.204  14.285 -0.0821 -0.0143  0.3095
19982W        W38836   3.771   3.573   0.531  0.0934  0.0085  0.2482
19983W        W38837  17.288  16.560  14.279 -0.0065  0.0176 -0.2133
19984W        W38838   1.933   2.767  15.251  0.0694  0.1731 -0.0948
19985W        W38839   7.545   6.257  12.408  0.3363 -0.2379  0.0728
19986W        W38840   5.931  14.286  11.793 -0.0487  0.1337  0.0261
19987W        W38841  10.694  15.568   0.691  0.1832 -0.5028  0.1266
19988W        W38842   8.398  12.073   3.103 -0.1504 -0.2535  0.2336
19989W        W38843   4.421   4.197  12.008 -0.0945 -0.0249  0.3145
19990W        W38844  16.670  17.829  11.630 -0.2843  0.0121  0.1874
19991W        W38845  16.566   3.413  11.320  0.1388  0.3062  0.0333
19992W        W38846  10.443   7.955  10.957  0.0251  0.0124 -0.1096
19993W        W38847   7.962  18.012   1.660 -0.1413 -0.1611 -0.2087
19994W        W38848   5.759   8.346   2.024  0.3579 -0.3375  0.3635
19995W        W38849   4.141  10.484   2.312  0.3185  0.2077 -0.2227
19996W        W38850   4.745  16.410   2.995 -0.0296 -0.0084 -0.0344
19997W        W38851   8.470  18.468  14.364 -0.0459  0.2822  0.0665
19998W        W38852  11.059   5.698   3.327 -0.0070 -0.0799 -0.0367
19999W        W38853   7.120   5.038   3.937  0.2221 -0.1867  0.1193
20000W        W38854   5.445   9.407   3.755 -0.1294  0.0056  0.3025
20001W        W38855   3.166   2.643  12.698 -0.1515  0.1828 -0.0851
20002W        W38856   8.144   8.214  14.904 -0.0857 -0.2918 -0.0780
20003W        W38857   9.414   0.831   1.961 -0.0319  0.0391  0.0789
20004W        W38858  16.103   7.875   3.761  0.1494  0.1059  0.1859
20005W        W38859  17.424   6.964  14.609  0.0445 -0.2531 -0.1887
20006W        W38860   1.099  17.109   0.375  0.0319 -0.0658  0.0095
20007W        W38861   2.257   0.802   4.296  0.1007  0.1405  0.1523
20008W        W38862  10.680   2.208   2.884  0.1081  0.0508 -0.0159
20009W        W38863   2.808   4.289  12.883  0.3494  0.0371 -0.0878
20010W        W38864   7.284  13.330   0.474  0.1490 -0.0192  0.2117
20011W        W38865   2.288   4.512   3.522 -0.1355 -0.1002  0.3365
20012W        W38866   0.422   7.730   2.194  0.0822  0.2048  0.1557
20013W        W38867   3.207  14.530  13.108  0.1832  0.2787 -0.0192
20014W        W38868   1.050   7.400   2.928  0.0585  0.1241 -0.4492
20015W        W38869  10.024  18.462   0.436  0.2086  0.1261 -0.1009
20016W        W38870   5.189   1.413  14.938  0.1575 -0.1070  0.0166
20017W        W38871   1.557  10.947   5.544 -0.0186 -0.0705  0.2105
20018W        W38872   3.243   9.091   0.432 -0.1395 -0.0321 -0.0308
20019W        W38873   6.280  11.792  12.212  0.2100  0.2864 -0.0582
20020W        W38874   2.547   6.349  12.449  0.0630 -0.1112  0.1546
20021W        W38875  16.001  17.252  11.411  0.1436 -0.2753  0.2008
20022W        W38876   3.208  10.629  12.390  0.0309  0.3622  0.0977
20023W        W38877   6.528   6.401   0.092 -0.2625  0.0767 -0.0958
20024W        W38878   2.890   7.958  14.527  0.2173  0.2265  0.0461
20025W        W38879  11.118   9.805   3.977 -0.0243  0.0790  0.1841
20026W        W38880   4.947  16.810  11.417  0.1380  0.2336 -0.2517
20027W        W38881  18.035  12.410   2.701 -0.3111  0.3538  0.2473
20028W        W38882  12.604   8.445  11.249  0.2368  0.1895  0.0030
20029W        W38883  14.296   9.591   2.075 -0.0615  0.0578 -0.0780
20030W        W38884   8.926   7.636   2.729  0.0944 -0.1550  0.1763
20031W        W38885   6.937  15.877   0.839  0.0213  0.0580 -0.0487
20032W        W38886   2.060  12.869  11.837 -0.0237 -0.0815  0.1430
20033W        W38887   4.108   1.278  12.528 -0.2553  0.3345  0.1161
20034W        W38888  11.196  12.534   1.113 -0.2281  0.0627  0.0605
20035W        W38889   9.179   5.769   3.699  0.2675 -0.1929  0.0567
20036W        W38890   5.438  10.275   1.060 -0.0501  0.0739  0.0354
20037W        W38891   7.503   4.925   0.837 -0.2950 -0.0336  0.1565
20038W        W38892   6.311   3.892  12.963  0.3637 -0.0812 -0.2169
20039W        W38893  10.812  13.273   3.934 -0.1722 -0.0183 -0.1158
20040W        W38894  10.037  14.873  15.161  0.1065  0.0459 -0.1597
20041W        W38895   1.578   1.865  12.831  0.4480  0.4770 -0.2951
20042W        W38896   8.688   7.911   3.083  0.2129 -0.1992 -0.1445
20043W        W38897  16.723  18.330   0.409  0.0673  0.0467  0.2948
20044W        W38898   1.407   4.327   2.192 -0.1484  0.0719 -0.3844
20045W        W38899   1.323   0.527   1.827  0.0599 -0.1148  0.2011
20046W        W38900   5.558   2.598  11.369 -0.1451 -0.3078 -0.1576
20047W        W38901  18.081  14.510   3.650  0.0122 -0.0918 -0.1386
20048W        W38902  16.157   2.765   2.969  0.3602 -0.0475  0.3424
20049W        W38903   0.348   9.509  11.629  0.0505  0.2642  0.0659
20050W        W38904  15.262   8.497   1.301  0.0417  0.2881  0.3378
20051W        W38905   5.292   1.695   1.014 -0.1937  0.1254  0.0429
20052W        W38906  10.013  17.396  12.162  0.0751  0.0020  0.0489
20053W        W38907   4.629  16.005   2.685 -0.0699 -0.2756  0.1324
20054W        W38908   9.128  16.464   1.784 -0.0694  0.2917  0.0049
20055W        W38909  15.026  18.289  12.641 -0.1449 -0.1376  0.1854
20056W        W38910   0.515   5.630   0.375 -0.1519  0.1808 -0.0174
20057W        W38911  14.812  18.428  13.098  0.1379 -0.0090  0.2607
20058W        W38912  15.299   4.041   0.070 -0.4823 -0.0269  0.1463
20059W        W38913   9.081   8.459   1.005  0.2168 -0.0729 -0.0587
20060W        W38914  10.940   6.212   4.857 -0.3350 -0.1965  0.1986
20061W        W38915   0.029  11.589   0.841 -0.1751  0.2375  0.0651
20062W        W38916   8.991   5.307   1.933  0.1396 -0.1391  0.1577
20063W        W38917  15.678   7.293  14.378 -0.0495 -0.0906 -0.1720
20064W        W38918  13.900   2.196  14.433 -0.0301 -0.1744 -0.0580
20065W        W38919  11.351  16.796  13.906 -0.2132 -0.1244  0.3907
20066W        W38920  15.057   9.467  13.927  0.2484 -0.0546  0.1917
20067W        W38921  14.073  10.391  12.125  0.2139  0.1223  0.1515
20068W        W38922   0.828   1.264   4.111  0.3800 -0.0569  0.8009
20069W        W38923  11.434   9.897  11.251 -0.0555 -0.0240 -0.1508
20070W        W38924  13.737   0.803  13.775 -0.2420  0.1015 -0.1856
20071W        W38925  16.016  11.889   3.601 -0.2737  0.0027  0.2119
20072W        W38926   9.098   6.731   2.523  0.3446  0.1927  0.0140
20073W        W38927  13.272   3.453   4.020  0.0549  0.2437  0.2263
20074W        W38928   4.330  10.030   3.842  0.1520 -0.1808 -0.0138
20075W        W38929   1.269   6.639  10.959  0.0302  0.0630  0.0478
20076W        W38930   4.568   0.147   0.797  0.1931  0.0727  0.0173
20077W        W38931   4.431   6.964  14.425 -0.2644 -0.0554 -0.0715
20078W        W38932  14.972  13.804   3.279  0.1279  0.0480  0.0908
20079W        W38933   2.855  14.669  14.653  0.1171 -0.1256 -0.0557
20080W        W38934  15.109   2.039  13.098  0.0111 -0.1517  0.2121
20081W        W38935  13.919  15.760   0.738 -0.1048 -0.2180  0.2178
20082W        W38936  10.838   5.346  14.681  0.0168  0.1038 -0.1447
20083W        W38937  15.230   6.567   0.936 -0.0110  0.0585 -0.2486
20084W        W38938  17.236   9.997   1.181  0.1981 -0.2359  0.1799
20085W        W38939  13.705  13.151  14.979  0.0451  0.1456 -0.0590
20086W        W38940  10.114  15.418   2.716 -0.0313 -0.0470  0.2765
20087W        W38941  15.424  15.871   4.184  0.1346 -0.2367  0.0585
20088W        W38942   0.162  10.561   2.509  0.1878 -0.3119 -0.0538
20089W        W38943  12.324  18.225   0.719 -0.0740  0.0198  0.0624
20090W        W38944  14.236  16.828  13.791 -0.1031  0.2519 -0.1625
20091W        W38945   0.586   6.268   1.256  0.0026  0.1061  0.0928
20092W        W38946   5.349  12.258   3.767  0.1843  0.1616 -0.2934
20093W        W38947  17.610   1.845  12.755  0.1784 -0.0820 -0.0569
20094W        W38948  15.747  16.239  12.956 -0.2612  0.1651 -0.0492
20095W        W38949   2.772  15.272  12.866  0.2402  0.3453  0.4033
20096W        W38950   4.139   6.861  15.223 -0.1395 -0.0956 -0.1245
20097W        W38951  10.633  15.110   2.274  0.2091  0.1931 -0.2737
20098W        W38952  16.002   3.538  14.555 -0.0025  0.1451  0.0756
20099W        W38953  14.944   7.697  15.027 -0.3676 -0.1065 -0.3817
20100W        W38954  14.574  16.843  14.235  0.1180  0.0202  0.0933
20101W        W38955  13.222  12.655  12.806 -0.0964 -0.0676 -0.0671
20102W        W38956   7.703  11.238   0.093 -0.1716  0.0333 -0.1099
20103W        W38957   3.462   4.271  13.642  0.0652  0.1402  0.0536
20104W        W38958  10.524  16.312  12.322 -0.1935 -0.1968  0.2554
20105W        W38959  17.147  11.821  10.901  0.0310 -0.1410 -0.0521
20106W        W38960   4.998   6.716   0.378  0.2013 -0.2372  0.0397
20107W        W38961  12.889   6.334  11.702  0.0853  0.0638 -0.0770
20108W        W38962   7.381   5.269  12.256  0.1289  0.0467  0.3495
20109W        W38963   6.218  10.634   1.117 -0.0738  0.1592 -0.1421
20110W        W38964   3.085   6.467   3.971 -0.1816  0.2353  0.0516
20111W        W38965  13.776   7.118   3.349 -0.1790 -0.2294  0.0820
20112W        W38966  13.950   9.536   0.787 -0.0595 -0.0099  0.1146
20113W        W38967   7.819  13.338   0.304 -0.0243 -0.3399 -0.0401
20114W        W38968  17.041  13.118  12.426  0.1492  0.1424 -0.0241
20115W        W38969  14.667  13.936   0.481  0.2795 -0.1554  0.2640
20116W        W38970  12.968   2.188   4.477 -0.2523  0.0313  0.1320
20117W        W38971  10.799   7.564  15.218  0.1620  0.0653  0.1215
20118W        W38972  16.264   3.607  12.446  0.0665  0.0794  0.3614
20119W        W38973  17.386   0.417   4.560  0.1730  0.2480 -0.0661
20120W        W38974  11.104   8.305  14.872  0.0063  0.1200  0.0032
20121W        W38975   3.823  14.445   4.088  0.1576 -0.1715 -0.1394
20122W        W38976  17.848  12.016   3.803 -0.3741  0.1449 -0.2303
20123W        W38977  14.790   0.827  11.730 -0.1624  0.0054  0.1540
20124W        W38978  10.152  17.323   3.949  0.1824 -0.1034  0.1424
20125W        W38979  11.788   1.956  14.188  0.4023  0.0901 -0.1721
20126W        W38980  13.357   8.354  12.707  0.0782  0.2689 -0.0959
20127W        W38981  14.290   4.746  14.693 -0.1077  0.2516  0.2197
20128W        W38982   8.832   1.432  14.595 -0.2925 -0.0504 -0.0255
20129W        W38983  16.512  15.161  12.521  0.2833  0.1931 -0.0650
20130W        W38984  16.841  15.898  13.961  0.0703 -0.0823  0.1171
20131W        W38985   2.142  10.984  13.096  0.2849  0.1981 -0.2031
20132W        W38986  18.176   1.824  11.452  0.0464  0.1740  0.0161
20133W        W38987   6.043   8.095   0.958 -0.4898  0.2367 -0.1387
20134W        W38988  14.951   6.672  13.656 -0.0337  0.2045 -0.1160
20135W        W38989  10.531  14.726  15.035  0.1621 -0.0464 -0.0857
20136W        W38990   0.727  14.137   1.204  0.1916 -0.1326 -0.1106
20137W        W38991   8.003   4.274  14.458 -0.0973 -0.1882  0.1344
20138W        W38992  16.114   4.011  12.019  0.2996  0.0686 -0.0520
20139W        W38993   0.753   8.767   2.985 -0.2157 -0.0173  0.1888
20140W        W38994  17.199  12.786  11.904  0.2498 -0.0530  0.2419
20141W        W38995  11.292   9.471   2.160  0.1795  0.0577  0.1840
20142W        W38996   4.917   4.178   1.405 -0.2074  0.2385 -0.3282
20143W        W38997  11.611  13.540   5.263 -0.2136 -0.2443  0.2823
20144W        W38998   9.482   4.788   3.722 -0.1619 -0.1469 -0.1873
20145W        W38999   0.428  17.551  15.148  0.4577 -0.0877  0.0964
20146W        W39000   1.387   8.137   3.064 -0.2691 -0.1031  0.0083
20147W        W39001  11.794   8.378  12.971  0.3751 -0.2442  0.0246
20148W        W39002   9.392   0.426  15.111 -0.1041  0.2088 -0.0772
20149W        W39003  11.273   1.330  12.747  0.5374  0.0523  0.0297
20150W        W39004  11.678   5.281  13.475  0.2130  0.2433  0.1139
20151W        W39005  13.035   4.501   2.554  0.1308 -0.0554  0.2088
20152W        W39006  14.854  11.679  14.135 -0.1611  0.0129 -0.2964
20153W        W39007  13.114   2.369  12.790  0.1104 -0.0442  0.3119
20154W        W39008   2.548  12.393  13.531  0.0731 -0.2476 -0.1640
20155W        W39009   6.184  15.263  11.908  0.2180 -0.0569  0.1162
20156W        W39010  11.772   1.405  14.632 -0.2403 -0.2001  0.2220
20157W        W39011   3.526   6.530   4.322 -0.2594  0.0333  0.1984
20158W        W39012   5.496  10.099   3.563  0.1085 -0.2494  0.0197
20159W        W39013  11.148  12.051  12.869  0.0313 -0.0854 -0.3066
20160W        W39014  17.862   8.852   0.739 -0.0858 -0.0702  0.1832
20161W        W39015   9.344   9.911   3.003  0.1210 -0.0006 -0.0680
20162W        W39016  17.892  17.390   2.644  0.1315 -0.2478 -0.1539
20163W        W39017   9.862   4.490   4.873 -0.1615 -0.2249  0.3905
20164W        W39018  18.470  10.187   4.644 -0.0936 -0.1482  0.2705
20165W        W39019  18.279   4.309   4.158 -0.1824 -0.2260 -0.1335
20166W        W39020  15.888   2.564   2.593  0.0932  0.2110  0.0001
20167W        W39021  17.789   5.786   1.197  0.0337  0.1178 -0.0604
20168W        W39022   8.436  12.617   1.301 -0.1512  0.0401  0.0010
20169W        W39023   5.142   7.826   1.427  0.2258 -0.1450 -0.5194
20170W        W39024   0.333  14.583   2.420  0.0519  0.2460 -0.0567
20171W        W39025  10.146  12.935   3.445  0.0625  0.1376  0.1047
20172W        W39026  13.642  10.280  12.996 -0.1331 -0.0418  0.2092
20173W        W39027   6.453   5.758   1.934  0.1125 -0.0103  0.1015
20174W        W39028   2.745  12.256   1.545 -0.2729 -0.0859  0.2529
20175W        W39029  10.752  14.079  12.864 -0.1355 -0.0346  0.1121
20176W        W39030   9.981  13.505   3.697  0.1518  0.1711  0.0767
20177W        W39031  15.247  10.916   1.329 -0.0062  0.0233 -0.0985
20178W        W39032   5.480  18.446  10.794  0.0830  0.3002 -0.0952
20179W        W39033   6.493  11.548   3.915 -0.0411 -0.0092  0.0153
20180W        W39034   6.483  11.431   4.394  0.2171  0.0801 -0.1211
20181W        W39035  15.097  10.100   0.270  0.0413 -0.2164  0.2108
20182W        W39036  17.082   2.620   2.151  0.0485  0.0896 -0.0496
20183W        W39037  10.907   0.486  12.369  0.7426  0.1127  0.0323
20184W        W39038  14.919   7.668   0.076  0.1388  0.1062 -0.1031
20185W        W39039  17.571  12.441   1.270 -0.1712  0.0621 -0.2562
20186W        W39040   1.305  17.974  15.085  0.2299 -0.0806 -0.3006
20187W        W39041  14.716   3.700  14.793 -0.1333  0.1975  0.0172
20188W        W39042   7.146  13.750   1.894  0.0458  0.0928 -0.1440
20189W        W39043   2.158  16.393  13.738 -0.1813 -0.3140 -0.0005
20190W        W39044   7.281  16.500   4.700  0.0170 -0.1271  0.1200
20191W        W39045  15.250  13.933  13.213  0.0555 -0.1723 -0.1195
20192W        W39046   0.460   7.914  13.660  0.2998  0.1986 -0.1365
20193W        W39047   7.860  16.760   0.318  0.0782 -0.0858  0.0154
20194W        W39048   0.991  13.200   0.177  0.2085  0.0663 -0.0326
20195W        W39049   6.713  10.374  11.653  0.0152 -0.2390  0.1247
20196W        W39050  15.224   8.486  11.315 -0.2684  0.0969  0.4040
20197W        W39051  10.490   2.850   1.963  0.0576  0.1302  0.1141
20198W        W39052   7.558  16.786  15.398  0.3031  0.2061 -0.2254
20199W        W39053   2.239  14.498  10.639  0.0265 -0.1197 -0.1642
20200W        W39054  16.675   3.758  13.025 -0.3676  0.1442 -0.3746
20201W        W39055  11.390  15.872  13.948 -0.1535  0.0990  0.1272
20202W        W39056   1.988   3.340  13.504  0.1072  0.1125 -0.3419
20203W        W39057   8.645  17.832   3.128 -0.1573 -0.1952 -0.0869
20204W        W39058  15.296   3.110  12.099  0.1916  0.0187  0.1334
20205W        W39059  13.483   4.532   0.710 -0.2198 -0.2492  0.0584
20206W        W39060  14.133   2.098   3.699  0.3484 -0.0417  0.0137
20207W        W39061   6.818  16.313   2.197 -0.1607  0.2934  0.0277
20208W        W39062  14.248  13.464  10.512 -0.2784 -0.0301  0.2424
20209W        W39063   7.217   1.632  15.014 -0.2715 -0.0212  0.0175
20210W        W39064  18.306  14.155   1.232 -0.0761 -0.1671 -0.1801
20211W        W39065  18.239   7.260   4.363 -0.1670  0.1842 -0.5082
20212W        W39066   7.390   2.300  11.497  0.0854  0.1936 -0.0746
20213W        W39067   8.415  11.499  14.156 -0.0947  0.3253  0.1427
20214W        W39068   1.331   8.492  14.718 -0.0594  0.1278 -0.1477
20215W        W39069  18.320  11.257   4.608  0.2121  0.0202 -0.1559
20216W        W39070  12.868  13.928   2.128 -0.1179  0.1237  0.2075
20217W        W39071  16.100  15.911   2.334 -0.1848  0.0445  0.1553
20218W        W39072   2.348  14.603   4.074 -0.0917 -0.0044  0.3504
20219W        W39073   8.369  10.240   0.151  0.0295 -0.1924  0.1059
20220W        W39074  10.671  16.430   4.805 -0.0955 -0.0488  0.2080
20221W        W39075   9.215   8.090  12.318  0.0211 -0.2690 -0.1110
20222W        W39076   8.112   5.909  14.119 -0.0122  0.0804 -0.1083
20223W        W39077  16.638  10.778   2.387  0.0654 -0.0694  0.0276
20224W        W39078   7.106  13.111  11.700 -0.0050  0.0989  0.1209
20225W        W39079   7.438  11.905  11.055 -0.1042  0.0120  0.4202
20226W        W39080  14.366   0.414  11.935 -0.2387 -0.2270  0.0676
20227W        W39081   6.488   0.001  12.367  0.3078  0.0008 -0.3122
20228W        W39082  11.245   7.697  11.425 -0.0612 -0.2237 -0.2585
20229W        W39083  16.637  18.291  14.730 -0.0310  0.1541 -0.1499
20230W        W39084  12.501   2.287   4.500 -0.0937  0.2612  0.1537
20231W        W39085   3.671   1.711  15.387 -0.0416 -0.0681  0.0284
20232W        W39086   7.354   1.755  11.625 -0.0711 -0.2158  0.0815
20233W        W39087   6.365  18.298  13.933 -0.0044 -0.2446  0.2269
20234W        W39088   2.337  12.926  11.479  0.1263  0.1864  0.2010
20235W        W39089   0.645   3.704   2.542  0.0298 -0.2710 -0.2561
20236W        W39090   8.063  13.618  15.005 -0.1562 -0.0210  0.0071
20237W        W39091  10.876  13.005   3.196  0.0879 -0.1128  0.1298
20238W        W39092  11.368   9.579   0.781 -0.3234 -0.1081  0.0844
20239W        W39093   6.011   0.399  12.587  0.0884  0.2787 -0.0820
20240W        W39094   4.988  11.279  14.035  0.1021  0.2249 -0.0415
20241W        W39095  11.925  11.002   0.615 -0.1469  0.0493  0.0228
20242W        W39096  12.705   9.599  11.996  0.0338  0.1181  0.0931
20243W        W39097   2.046   2.041   2.426 -0.1508 -0.1851 -0.1624
20244W        W39098  17.233  11.649  11.768 -0.0990 -0.0759  0.0194
20245W        W39099  13.102  13.437   3.505  0.1822 -0.0394 -0.0900
20246W        W39100   7.238   6.708   3.159  0.2637  0.0483  0.0214
20247W        W39101  17.556   2.162  13.740 -0.0139  0.1325 -0.2478
20248W        W39102   3.351   0.337  13.131 -0.2496 -0.2125 -0.0838
20249W        W39103  14.982   3.652   3.252 -0.1253  0.1657  0.2260
20250W        W39104   6.726  15.121  11.377  0.2456  0.1088 -0.1206
20251W        W39105  15.383  13.753   0.400 -0.1234  0.2615  0.1781
20252W        W39106   5.970   8.082   2.863 -0.0680 -0.1631 -0.2246
20253W        W39107  11.211   4.900   3.888 -0.3631  0.0658  0.3458
20254W        W39108  11.068   0.971  12.464  0.0600 -0.1064 -0.0963
20255W        W39109   2.376  14.732   1.030  0.0561  0.2408 -0.2489
20256W        W39110  11.981   4.961   3.560  0.0074  0.1318  0.1077
20257W        W39111   4.844  14.059   3.783 -0.1970  0.1925 -0.0361
20258W        W39112   1.884  10.007  13.045 -0.2046 -0.0782  0.2421
20259W        W39113   1.428  16.767   1.084  0.1727  0.0004 -0.1459
20260W        W39114   5.463   2.596   4.519  0.1959 -0.2044  0.3987
20261W        W39115  10.602  13.100   2.235 -0.1739  0.1079 -0.0648
20262W        W39116  14.664   4.014   5.245  0.2417  0.1189 -0.2287
20263W        W39117  11.531   2.863   2.237 -0.2692  0.0726 -0.2749
20264W        W39118   7.254   4.687  14.903  0.0758  0.0441  0.3551
20265W        W39119   1.376  16.436   2.731  0.2585 -0.1234 -0.0222
20266W        W39120  12.838  12.613  13.992 -0.0446 -0.2535 -0.1115
20267W        W39121  13.528   0.168   5.764 -0.0892  0.1638 -0.2361
20268W        W39122   6.006   1.368  15.377 -0.2020  0.0025  0.2212
20269W        W39123  18.550  11.359   3.374  0.5138 -0.1193  0.3655
20270W        W39124  10.962  17.745   4.315 -0.0262 -0.1022  0.1344
20271W        W39125   5.555   1.422  14.545 -0.0344 -0.1507  0.1557
20272W        W39126  11.468  12.773   2.446 -0.0247  0.0464  0.0874
20273W        W39127   0.630  15.287  13.856  0.0193  0.0997 -0.0642
20274W        W39128   0.976   3.049   2.045 -0.2294  0.0297 -0.2063
20275W        W39129   5.035   3.958  13.645 -0.0555  0.1662  0.0007
20276W        W39130   9.754   1.472  12.978  0.0296  0.0721  0.0646
20277W        W39131   0.905  12.530  10.721  0.0570 -0.0517 -0.1575
20278W        W39132   4.487   5.083  12.325  0.3111 -0.1443 -0.0151
20279W        W39133  17.394  14.162   4.329  0.4649  0.0569  0.2602
20280W        W39134  16.700   4.599  13.122 -0.4048 -0.1213  0.0497
20281W        W39135   0.189   1.781  11.154 -0.1726  0.1785 -0.1267
20282W        W39136  11.954   3.229  12.292 -0.0559 -0.0714 -0.1481
20283W        W39137   5.345   1.403   1.637  0.0785 -0.3115  0.1081
20284W        W39138   5.071   2.669   4.175 -0.1492 -0.0454  0.0976
20285W        W39139   0.068   4.770   0.658  0.2533  0.2393  0.1878
20286W        W39140   2.694   1.902   0.348  0.0106 -0.0701  0.0389
20287W        W39141  12.361  16.095   4.757  0.2299 -0.1068 -0.1929
20288W        W39142   1.040   1.553  13.524  0.2047  0.1075  0.0261
20289W        W39143   0.438  12.784   4.986  0.0392 -0.2251  0.4324
20290W        W39144  16.939   2.205   4.559  0.2229 -0.1366 -0.0559
20291W        W39145  17.851  12.998  15.158  0.0297 -0.0055 -0.0836
20292W        W39146   6.036  14.440  15.156 -0.1132 -0.0122  0.0217
20293W        W39147  10.477  15.481   3.567 -0.1467 -0.1249 -0.0676
20294W        W39148  13.310   6.848   0.846 -0.1053  0.0733  0.0601
20295W        W39149  10.487  13.347   3.522 -0.0398  0.2480  0.1754
20296W        W39150  12.920   1.433  13.834 -0.4610  0.1339  0.1507
20297W        W39151   5.771  14.835  12.017 -0.0557 -0.0030  0.2888
20298W        W39152  14.124  11.178  14.011  0.2056  0.1260  0.0415
20299W        W39153   6.085   6.471  13.679  0.2264  0.1093 -0.0552
20300W        W39154   7.344   8.939   2.287  0.1415  0.3488 -0.3891
20301W        W39155   4.463  11.050   2.911  0.1535  0.1024  0.1258
20302W        W39156   6.452   5.264   4.418 -0.1301 -0.1357  0.1117
20303W        W39157   1.156  16.505   3.639 -0.1551  0.1579  0.1616
20304W        W39158  14.538  12.877  14.571  0.0105  0.0555  0.3429
20305W        W39159   4.407  13.882   0.050 -0.2803  0.0703 -0.1277
20306W        W39160   7.928   8.782   5.092 -0.2694 -0.2373  0.2122
20307W        W39161   6.580  16.339  14.740  0.0719 -0.1004  0.2536
20308W        W39162   8.290  11.468   2.487 -0.0726  0.1741 -0.0757
20309W        W39163  17.155   8.761  11.430  0.2820 -0.2679  0.2971
20310W        W39164  14.507  10.370  11.822  0.0289 -0.0263 -0.0333
20311W        W39165  15.480  17.820   0.686 -0.1232 -0.1531 -0.1218
20312W        W39166   6.623   3.830   1.929 -0.1542 -0.4524 -0.0482
20313W        W39167   6.943  15.437   4.109  0.0473 -0.1846 -0.0067
20314W        W39168   4.138  13.899   1.340 -0.0418 -0.2491  0.0536
20315W        W39169   8.448   8.701   3.499  0.1884 -0.1286 -0.1659
20316W        W39170   4.663   6.732  11.850 -0.1174 -0.2792 -0.0715
20317W        W39171   4.874   8.712  13.514  0.0338 -0.1255 -0.1434
20318W        W39172  11.330   0.793   1.208 -0.0729  0.1417 -0.1603
20319W        W39173   7.826   3.795   1.183  0.0972 -0.0650 -0.1938
20320W        W39174   4.722  18.275  13.465  0.1145  0.0662 -0.2590
20321W        W39175  11.520   3.229  13.924  0.0137 -0.1797 -0.2575
20322W        W39176  14.167   9.018   5.509  0.2754  0.0202  0.0619
20323W        W39177   6.118  14.269  11.254  0.2367 -0.1482  0.1406
20324W        W39178   0.106   9.821  10.602 -0.0148 -0.1488  0.0152
20325W        W39179  11.774   4.986  12.979  0.0446 -0.1495  0.1865
20326W        W39180   0.238   8.310   0.357 -0.2981 -0.0835 -0.0440
20327W        W39181   6.576   4.716   1.249 -0.0401  0.3251 -0.2378
20328W        W39182   8.203  10.533  13.561  0.2309  0.0931  0.1008
20329W        W39183   6.228   0.253   0.572  0.1301 -0.1559 -0.2664
20330W        W39184  11.125  13.918   4.612  0.0899 -0.0761  0.3030
20331W        W39185  17.513   7.842  13.627 -0.0910 -0.1739  0.0245
20332W        W39186   6.329  16.148   3.544  0.1114  0.1314 -0.0683
20333W        W39187  13.932   0.890   2.301  0.1866 -0.2866  0.1552
20334W        W39188  12.314  10.799   0.891  0.0555 -0.0122  0.0682
20335W        W39189  10.278  12.947  12.181  0.0612 -0.2272  0.0036
20336W        W39190  14.482   9.506  14.829  0.1577  0.0040  0.2025
20337W        W39191   9.607   9.641   5.445 -0.2290  0.2978  0.2039
20338W        W39192   5.876  13.862   1.225  0.1487 -0.0608  0.0781
20339W        W39193   2.112  11.610  13.749 -0.0683 -0.1924 -0.3300
20340W        W39194   0.980   6.936   1.983  0.0777 -0.0966  0.0651
20341W        W39195   5.430   5.519  13.716  0.0894  0.0691 -0.2289
20342W        W39196  14.176  16.891  11.428 -0.2501 -0.0425 -0.0705
20343W        W39197   8.464   3.633  11.416  0.2437 -0.0308 -0.0403
20344W        W39198   3.359   8.355  10.840  0.1513 -0.1967 -0.3567
20345W        W39199   2.001   5.819  12.102 -0.1090  0.4864  0.1216
20346W        W39200   3.148  14.664   1.192  0.3873 -0.0567  0.0220
20347W        W39201   4.454   2.845   3.665  0.1834  0.0111  0.0606
20348W        W39202  18.042   1.781  12.460  0.0577 -0.2433  0.0228
20349W        W39203   6.800  13.891  12.155  0.1622 -0.3467 -0.2533
20350W        W39204  12.112   7.708   0.794  0.0715 -0.2828  0.1566
20351W        W39205  17.476  14.742   4.301  0.1064  0.2126 -0.0049
20352W        W39206   3.321   5.367  12.587 -0.0127 -0.0782 -0.0741
20353W        W39207  15.870  16.044  14.207  0.0556  0.1445 -0.1212
20354W        W39208  17.513  13.725   2.218  0.0611 -0.1479 -0.0584
20355W        W39209   7.030  10.453   0.595  0.1717 -0.2371  0.1006
20356W        W39210  14.592   0.786  12.340  0.0541 -0.0050  0.1550
20357W        W39211   2.001  15.494  11.827  0.0813  0.1209  0.1413
20358W        W39212   9.722   3.576  11.470  0.4586  0.0028  0.0617
20359W        W39213  11.888   2.931   2.585 -0.1641 -0.0954  0.2290
20360W        W39214  11.830  17.129  14.876 -0.5186 -0.1780 -0.0374
20361W        W39215  17.206   1.105   1.973  0.1659 -0.1074 -0.0391
20362W        W39216   9.439  14.926   2.774 -0.0326 -0.0243  0.1839
20363W        W39217   3.441   8.632  14.692  0.0821 -0.2521  0.2534
20364W        W39218  10.240  14.566  14.562  0.1656 -0.0383 -0.0723
20365W        W39219  14.230  13.337   3.687 -0.0150  0.0735 -0.0816
20366W        W39220   5.500   7.240  15.343  0.2946 -0.1068  0.0582
20367W        W39221   4.771   2.795  14.133  0.0428  0.3350 -0.0630
20368W        W39222   1.020  13.156   3.243  0.0945  0.3093  0.2562
20369W        W39223  17.586   7.735  12.164 -0.3862  0.1104  0.1815
20370W        W39224   6.973  13.682   2.334  0.2735  0.2805  0.3638
20371W        W39225   3.369   6.278  14.841 -0.4653 -0.0301 -0.1865
20372W        W39226   8.002  17.595  12.349  0.1449 -0.0034 -0.0277
20373W        W39227  12.396   8.833   0.243  0.2131 -0.2133  0.0524
20374W        W39228  18.355  16.749  11.232  0.0091 -0.0699 -0.1974
20375W        W39229  17.122   1.512  14.498  0.3163 -0.2253 -0.5332
20376W        W39230   7.382  10.757  14.762  0.2752 -0.0761  0.3075
20377W        W39231   0.003   4.578   1.946  0.0754  0.1832 -0.1572
20378W        W39232   1.952  12.317   0.089  0.0026 -0.3436 -0.5653
20379W        W39233   9.345  18.027   1.677 -0.0464 -0.1963 -0.0368
20380W        W39234   9.537  15.175  12.091  0.0636  0.2118 -0.0880
20381W        W39235   1.941  10.699   3.046 -0.1715 -0.0157  0.0289
20382W        W39236  14.585  17.994   2.019 -0.1003 -0.2401 -0.2100
20383W        W39237  14.424   6.642   1.091 -0.0393 -0.1700  0.0918
20384W        W39238  13.844   2.303  13.278 -0.1707 -0.0526 -0.1681
20385W        W39239  10.526  18.182   1.993  0.0948  0.1497 -0.0795
20386W        W39240  18.115   8.394  11.323 -0.1001 -0.1036  0.0069
20387W        W39241  17.694  16.595  12.533 -0.0865 -0.1220  0.1332
20388W        W39242  14.890   6.310  14.046 -0.2623 -0.0345  0.0765
20389W        W39243  10.586   5.375  15.173  0.0583 -0.0668 -0.0705
20390W        W39244  12.372   6.405   2.287  0.0959 -0.1236 -0.0504
20391W        W39245   3.522   2.968  13.413 -0.1700 -0.2347 -0.0390
20392W        W39246   6.305   8.724  10.903  0.1822  0.0049  0.1681
20393W        W39247   1.842   6.781   3.730 -0.1556  0.2317  0.2433
20394W        W39248  13.132  13.032  13.212  0.1360  0.0104 -0.3204
20395W        W39249  14.324  18.161  12.760  0.1347  0.1845 -0.0451
20396W        W39250  10.157  13.285   1.963  0.0341  0.0607 -0.1464
20397W        W39251  14.787   6.920  14.059 -0.0601 -0.2444  0.0022
20398W        W39252  14.546   7.528   2.656  0.0705 -0.0814 -0.3796
20399W        W39253   5.888   5.521   4.195 -0.1520 -0.1182 -0.2167
20400W        W39254  17.669  11.895   0.422 -0.0166  0.0170 -0.1771
20401W        W39255   8.335   9.297   2.872 -0.0153  0.0099  0.0867
20402W        W39256  15.586   1.041   4.759 -0.0646 -0.0697  0.0575
20403W        W39257  17.477  12.844   1.556  0.2922  0.0112 -0.0890
20404W        W39258   9.594  17.333   2.708  0.5127  0.2119  0.0350
20405W        W39259   0.537   1.685  12.021 -0.0252  0.2800  0.2155
20406W        W39260  10.466   5.887  15.441 -0.0701  0.1651 -0.0883
20407W        W39261   3.358   9.515  10.863 -0.3237 -0.1721 -0.1517
20408W        W39262   5.801  14.678  11.458  0.3679 -0.1349  0.2611
20409W        W39263   2.790  10.820   0.203  0.0470  0.0780  0.2814
20410W        W39264   0.101  11.667  12.023 -0.1249  0.1744 -0.0854
20411W        W39265   7.424   0.594  14.939  0.1027 -0.1276  0.1430
20412W        W39266  11.799   8.095  12.487  0.1239  0.1954  0.1072
20413W        W39267   3.265   4.495  11.337 -0.0438  0.0185 -0.1040
20414W        W39268   0.411  15.616   4.248 -0.2227 -0.0200 -0.1227
20415W        W39269   3.440  18.393  13.089  0.0790 -0.2526 -0.4701
20416W        W39270   5.979  16.759  11.923 -0.1905 -0.0623 -0.1116
20417W        W39271  10.383  10.520   4.108 -0.0982 -0.1779 -0.0020
20418W        W39272   4.639   3.832   4.096  0.3350  0.0825 -0.1991
20419W        W39273  12.899   9.259  12.380  0.1898 -0.0682  0.2326
20420W        W39274   6.202   2.248  12.149  0.1291  0.0262  0.2260
20421W        W39275  10.853   8.620   3.035 -0.0983 -0.2803  0.4897
20422W        W39276   1.866  17.427   3.804 -0.0318  0.1670 -0.1910
20423W        W39277  14.299   8.216   1.855  0.0566  0.1579  0.0865
20424W        W39278   7.875   5.682  14.503  0.1351  0.2030  0.1212
20425W        W39279   5.071  11.692  11.243  0.1548 -0.1542 -0.2528
20426W        W39280   2.702  17.923  11.908  0.2116  0.2487  0.0192
20427W        W39281   3.677   4.679   2.169  0.0067 -0.2164 -0.0160
20428W        W39282   4.556   4.113   1.067  0.1612 -0.0413 -0.1334
20429W        W39283   3.466   4.469   1.112  0.0682 -0.0605 -0.2220
20430W        W39284   0.747  11.981  10.822  0.4017 -0.0706 -0.1174
20431W        W39285   1.582  13.977  12.175  0.1009 -0.1605 -0.0933
20432W        W39286  11.656  13.903   1.775 -0.1401 -0.0867  0.1236
20433W        W39287   3.979   7.323   5.260  0.1803 -0.1552  0.0550
20434W        W39288  12.743  16.333   4.557 -0.0270  0.0254 -0.1762
20435W        W39289   2.979  13.877   3.136 -0.2265 -0.1001  0.2185
20436W        W39290   8.666  12.715  10.990  0.0147  0.1126  0.0072
20437W        W39291  14.988  14.755  12.954 -0.1852  0.1068 -0.0157
20438W        W39292  17.638   5.337  12.399 -0.3232 -0.0473  0.2227
20439W        W39293   0.008   9.522  12.700 -0.1721  0.0134 -0.2045
20440W        W39294   2.983   4.905  14.881 -0.1870 -0.2314 -0.1634
20441W        W39295  12.709   7.362  10.883 -0.2847 -0.0736  0.0567
20442W        W39296   2.263  14.213   0.359 -0.2757 -0.3750  0.1174
20443W        W39297  18.300   4.684   3.377  0.0429  0.2646  0.0484
20444W        W39298   2.126   3.767  12.657 -0.0929 -0.1247  0.3155
20445W        W39299  15.842  16.190   4.979  0.2429 -0.3584 -0.0042
20446W        W39300  13.142   4.024   3.651 -0.1164 -0.2305 -0.2884
20447W        W39301   3.861   8.316   3.172 -0.2245  0.2869  0.1506
20448W        W39302   5.731   2.237   0.382 -0.0786 -0.1602  0.1377
20449W        W39303  13.757  14.741   1.614  0.0040 -0.1334 -0.0803
20450W        W39304  14.804   8.931   3.541  0.2057 -0.3807 -0.0622
20451W        W39305  15.825   0.849  14.757 -0.2189 -0.2305  0.0928
20452W        W39306  10.936  17.158  12.571 -0.1348 -0.0214 -0.1270
20453W        W39307  10.125  10.632   0.584 -0.0919 -0.0988  0.1004
20454W        W39308  18.467  17.947   0.110 -0.0453 -0.0339  0.0805
20455W        W39309   9.659   0.660   0.280  0.1647 -0.0576 -0.3072
20456W        W39310  14.414  13.571   1.503  0.4608 -0.1280 -0.2092
20457W        W39311   1.976   9.938  14.941  0.1205  0.0739  0.1616
20458W        W39312   8.441  18.256   3.247  0.0491 -0.1277  0.1353
20459W        W39313   5.467  10.986   2.509  0.0963  0.0706 -0.1732
20460W        W39314   6.108  17.910   0.612 -0.3142  0.1426  0.0203
20461W        W39315  11.163   4.493   3.637  0.1366 -0.0628 -0.1274
20462W        W39316  12.952   8.828  11.496  0.1386  0.0982  0.0433
20463W        W39317   0.354   7.250   2.105  0.1868 -0.5084  0.0165
20464W        W39318   1.197   8.235   2.101  0.0130 -0.1246  0.2846
20465W        W39319   9.086  11.249   4.625  0.3152 -0.1975 -0.0161
20466W        W39320   1.011   5.563  10.691  0.0352  0.4809 -0.1570
20467W        W39321  16.196   2.741   0.062 -0.0908 -0.0830 -0.0731
20468W        W39322   9.251   8.365   1.492  0.3158  0.0052  0.2591
20469W        W39323  17.760  16.265   3.264 -0.0291 -0.2297  0.1651
20470W        W39324   7.759   6.911   3.896 -0.3153 -0.2819  0.4737
20471W        W39325   1.700  17.439  11.190 -0.3198  0.2450 -0.3053
20472W        W39326   6.410   2.240  11.640 -0.0561 -0.0715 -0.1464
20473W        W39327  12.974  12.495   4.597  0.3684 -0.0971 -0.3095
20474W        W39328   5.486   8.168   4.690 -0.0313  0.0302 -0.1368
20475W        W39329   6.524   7.821   1.153  0.1316 -0.3186 -0.0989
20476W        W39330   7.591   3.120  11.511 -0.1644 -0.0363  0.2181
20477W        W39331   1.255   5.368   5.194  0.0563  0.1782 -0.0943
20478W        W39332  15.372   1.777  12.769  0.2485  0.3352  0.0654
20479W        W39333   3.874   5.985  12.134 -0.1581 -0.1855  0.2689
20480W        W39334  16.614   4.478  13.596 -0.1268 -0.1568 -0.2393
20481W        W39335   7.983   7.957  11.165  0.0144 -0.3440 -0.2951
20482W        W39336  13.966  17.431  12.284 -0.0651 -0.1837  0.0169
20483W        W39337   9.648   1.040   4.609  0.0146  0.1512  0.0236
20484W        W39338   8.559  17.482   3.512 -0.4825  0.1590 -0.0481
20485W        W39339  12.629  17.350  13.471 -0.3287  0.1797 -0.2372
20486W        W39340  14.547  10.451   2.213  0.0191 -0.4872  0.0369
20487W        W39341   8.345  12.906  14.565 -0.0172 -0.0754  0.0508
20488W        W39342  12.152  11.577   4.164  0.3887 -0.3103 -0.4123
20489W        W39343   7.713  17.130   1.732 -0.2485  0.2911  0.0232
20490W        W39344  14.019  14.449   0.386 -0.3534  0.1155  0.0963
20491W        W39345   9.249  18.177  15.260  0.0289 -0.0745  0.1251
20492W        W39346  16.836   9.832   0.124 -0.1454  0.0058 -0.0255
20493W        W39347  11.259  14.389  11.486  0.0588  0.0317 -0.4208
20494W        W39348  17.099   5.961  12.930 -0.0622  0.2530 -0.0867
20495W        W39349  17.602   6.683  11.962 -0.3586 -0.0921 -0.1341
20496W        W39350  17.983  11.558  14.615 -0.0690 -0.0371  0.0117
20497W        W39351   6.835   3.733  14.741  0.0592  0.3470  0.0158
20498W        W39352   0.761  17.305  12.094  0.1145 -0.0085  0.0603
20499W        W39353  15.098  16.896  12.537  0.3581 -0.0075 -0.0032
20500W        W39354   0.409  15.484   5.286  0.3836  0.3725 -0.0040
20501W        W39355  12.821  14.448  12.719 -0.1275  0.1310 -0.0704
20502W        W39356  13.348   9.130   3.844  0.1109 -0.2543 -0.0726
20503W        W39357   0.584  17.055  11.634 -0.0772 -0.0788 -0.0900
20504W        W39358  13.641   8.276   4.663  0.2127  0.0355  0.0953
20505W        W39359   6.778  17.962   2.452 -0.0094  0.0267  0.1926
20506W        W39360   2.199  10.760   4.439 -0.1685  0.1631 -0.1334
20507W        W39361   0.755   1.271   3.432  0.3198  0.1356 -0.2008
20508W        W39362   5.035  17.732   2.685 -0.3008 -0.1550 -0.2125
20509W        W39363   4.212   0.122  14.482 -0.0219 -0.0369  0.0683
20510W        W39364  12.749  10.248  11.304  0.2026  0.2422 -0.0180
20511W        W39365   1.425  16.816   0.222  0.2160  0.1552  0.0897
20512W        W39366   0.074   6.261  12.878 -0.2399 -0.0420  0.0027
20513W        W39367  14.865   1.478  12.683 -0.0295 -0.0346 -0.0805
20514W        W39368  14.743   4.902   3.491 -0.1305 -0.1072 -0.3169
20515W        W39369  16.922   2.581   1.357  0.3690 -0.1977 -0.0883
20516W        W39370  14.691  17.751   3.247 -0.1995  0.1224 -0.0239
20517W        W39371  10.820   7.841   3.334  0.0799  0.3230 -0.0877
20518W        W39372   9.127  13.183   1.355  0.2204 -0.0889  0.2390
20519W        W39373   9.433  10.717  12.402  0.1844  0.0017  0.2414
20520W        W39374   5.631   3.097  13.963  0.1765 -0.0396 -0.0472
20521W        W39375   9.743  14.980  11.413  0.1277  0.0412  0.0136
20522W        W39376  15.988   9.120   1.290  0.0648 -0.0077 -0.1534
20523W        W39377   6.901  16.629   3.478  0.0761 -0.0590 -0.0704
20524W        W39378   4.645   2.558  13.639  0.0856 -0.0978 -0.1888
20525W        W39379   6.010  12.043   0.542 -0.1140  0.2520  0.0304
20526W        W39380   3.275   8.808  14.223 -0.3934  0.1965 -0.2155
20527W        W39381   9.690  15.942  12.967  0.2774  0.0741 -0.2271
20528W        W39382   1.167   8.516   3.842 -0.1363 -0.1413 -0.0153
20529W        W39383   5.464  11.498   0.614  0.1761 -0.1424 -0.2008
20530W        W39384  12.092   2.170  15.182 -0.0583 -0.1117  0.2436
20531W        W39385   4.563  15.029   4.227  0.2114  0.1745 -0.2079
20532W        W39386  17.578   8.623   4.934  0.2319 -0.0249  0.0671
20533W        W39387  16.133   7.033   2.610  0.1334 -0.2686 -0.1578
20534W        W39388   3.599   6.373  12.877 -0.0891  0.2290  0.2790
20535W        W39389   7.508  16.788   4.308 -0.2132 -0.4018  0.0344
20536W        W39390   7.397   1.953   0.004 -0.0518 -0.0433 -0.1592
20537W        W39391  16.122   9.091   3.181 -0.1533  0.0405  0.2164
20538W        W39392  16.389   5.446   4.444  0.0432  0.1387  0.0085
20539W        W39393  13.137   1.820   0.243  0.0472  0.2814  0.2358
20540W        W39394   4.917  14.509   3.627  0.0567  0.2185  0.0237
20541W        W39395  10.257  16.432  14.652  0.1997  0.1450 -0.3222
20542W        W39396   6.273   4.967  12.673  0.0462  0.0476 -0.0062
20543W        W39397  18.153   9.911  14.381  0.1241 -0.2833 -0.0622
20544W        W39398   5.363   1.729  11.733 -0.1089  0.3697  0.1040
20545W        W39399  10.208  10.503  13.295  0.1109  0.0168  0.2083
20546W        W39400   7.161  13.896  10.692  0.3302 -0.0432 -0.2404
20547W        W39401  14.414  10.253  13.812  0.2711 -0.0918 -0.1975
20548W        W39402  16.202  12.177  13.196  0.3209  0.0089  0.0085
20549W        W39403   1.281   1.066  13.578 -0.1776 -0.1073 -0.2622
20550W        W39404   3.782  12.205   0.171 -0.0038 -0.2691  0.1378
20551W        W39405   4.577   1.509  12.807 -0.3179  0.0492 -0.1120
20552W        W39406  17.902   5.021  13.047  0.2574 -0.2873  0.1214
20553W        W39407  18.119  12.418   0.930 -0.2852 -0.0422 -0.0111
20554W        W39408   2.004  11.439  11.869  0.2349 -0.1052 -0.1671
20555W        W39409  10.904   1.991   2.499 -0.0099  0.0180  0.0390
20556W        W39410   7.754  17.084   5.122  0.3108 -0.0027 -0.1499
20557W        W39411   2.755  13.867  12.483  0.4012  0.0633  0.0900
20558W        W39412  13.729  17.717   3.248  0.1854  0.1175  0.0403
20559W        W39413   2.527   8.313  11.911 -0.0276 -0.1496  0.1458
20560W        W39414   5.526  12.832  13.259  0.3091  0.1439 -0.2791
20561W        W39415   2.200  14.183   2.588 -0.0159  0.1786 -0.0766
20562W        W39416  11.840   2.998  11.477  0.4362 -0.1187 -0.1046
20563W        W39417  12.172   6.278  13.641  0.1924  0.2017 -0.4438
20564W        W39418  14.398  12.081  13.138  0.2138  0.1386  0.1075
20565W        W39419   1.144  14.516   5.323  0.1854  0.1528  0.2651
20566W        W39420  13.215  10.529  11.383  0.2223 -0.0481  0.0039
20567W        W39421   1.557  13.280  10.927  0.1485 -0.1643 -0.0145
20568W        W39422   4.387  16.609  11.780  0.0315 -0.1315  0.0941
20569W        W39423   1.399   0.327   2.788  0.0355  0.1030  0.0994
20570W        W39424   8.365   0.807  12.481 -0.1158  0.0286 -0.0951
20571W        W39425   4.420  15.598   1.746  0.1294  0.0286  0.2135
20572W        W39426   6.081  14.120   2.286  0.2823 -0.0351  0.2695
20573W        W39427  17.585  10.112   4.262  0.1007  0.2595 -0.0836
20574W        W39428   1.056  12.353   2.428  0.1185 -0.1451  0.3257
20575W        W39429   1.691  16.436  11.331 -0.0712 -0.4952  0.1142
20576W        W39430  18.150   3.961   9.684 -0.1281  0.0349 -0.1625
20577W        W39431   6.628   6.288  11.726  0.3410 -0.0712  0.1115
20578W        W39432  14.926  11.864   0.745 -0.1268  0.2915  0.2235
20579W        W39433  10.152   5.413   1.336  0.0924 -0.1739 -0.0959
20580W        W39434  17.969   2.033  11.034 -0.0547  0.0362 -0.1050
20581W        W39435   9.262   8.681  11.240 -0.0144 -0.2051 -0.1762
20582W        W39436   2.614   4.137  15.192 -0.0389 -0.0137  0.1277
20583W        W39437   9.917  14.549  13.357  0.1565  0.2361  0.1323
20584W        W39438   4.841   1.949   4.025  0.1815  0.0964  0.2287
20585W        W39439   6.112   8.214   2.395  0.0183  0.0391  0.2008
20586W        W39440  10.552   3.620  11.572  0.1212  0.0267 -0.0498
20587W        W39441   2.692   7.302  11.508 -0.0280 -0.1416 -0.1706
20588W        W39442   0.539  15.799  12.227  0.0750 -0.2699  0.0121
20589W        W39443  10.059   4.499  10.360  0.2814  0.1004  0.0318
20590W        W39444  13.614   9.742   3.614 -0.2276 -0.0137  0.0131
20591W        W39445  11.644   6.646  14.863 -0.2048 -0.0534  0.1632
20592W        W39446   9.355   1.074   2.422  0.0296  0.0735 -0.1261
20593W        W39447   1.659  18.384  12.063  0.1123 -0.5161 -0.1378
20594W        W39448  11.500   4.201   2.523  0.0383  0.0196  0.1610
20595W        W39449  11.294  11.284  11.872  0.0562  0.0153  0.2577
20596W        W39450   0.929   9.554  12.769 -0.0212  0.0367 -0.4006
20597W        W39451  17.841   7.130  14.801 -0.0914  0.2451 -0.2226
20598W        W39452   7.632  10.010  14.255 -0.0807  0.3193  0.1877
20599W        W39453  14.546  11.493  11.793  0.1662  0.3616 -0.4094
20600W        W39454   2.736   2.223  14.923 -0.0505 -0.3110  0.0581
20601W        W39455   2.793  15.461   4.079 -0.2824  0.1852 -0.0564
20602W        W39456  12.642   3.599   2.754  0.0372 -0.0579 -0.1322
20603W        W39457   9.450  18.428  14.341 -0.3181 -0.0631 -0.1999
20604W        W39458  17.817  15.542  15.337 -0.1893 -0.0509  0.0090
20605W        W39459   4.210  14.669   4.375  0.2421  0.2944 -0.2975
20606W        W39460   3.352   4.212  11.860 -0.2353 -0.3770  0.0306
20607W        W39461  18.304   6.363   1.843 -0.2045 -0.2714 -0.0277
20608W        W39462   9.964   8.333   2.662 -0.1745  0.0721  0.4148
20609W        W39463  13.627   1.801  13.464  0.2706  0.1489  0.5513
20610W        W39464   4.649   7.825   0.979  0.2481 -0.2773 -0.0434
20611W        W39465   8.528   9.979   2.108  0.1570  0.2923 -0.0849
20612W        W39466   7.652  14.603   2.738  0.0584 -0.0326  0.2864
20613W        W39467  17.226  18.110   2.084  0.1153 -0.0076  0.3801
20614W        W39468  16.002  10.118   4.602  0.1286 -0.0178  0.1440
20615W        W39469   5.651  14.395   4.207 -0.2764  0.0345  0.5059
20616W        W39470  18.210   3.529   1.180  0.3116  0.0576  0.2324
20617W        W39471  12.899  11.675  14.296  0.1387 -0.1018 -0.0232
20618W        W39472   0.914   8.081   1.088  0.0717  0.1643  0.3414
20619W        W39473   9.289  12.850   2.332 -0.3857 -0.2004  0.0122
20620W        W39474   5.587   5.675   3.650  0.0730 -0.1645 -0.1162
20621W        W39475   7.151  18.203   2.673 -0.2373 -0.0643  0.1429
20622W        W39476   7.860  16.114  13.433 -0.2613 -0.0604 -0.1128
20623W        W39477  17.097  15.366   5.539 -0.2142  0.1609 -0.0505
20624W        W39478   2.489   2.365   0.525  0.0705  0.0497 -0.1488
20625W        W39479  15.605   0.669  14.316 -0.0133  0.0350 -0.2435
20626W        W39480   7.658   5.600   0.075  0.2126  0.0580  0.0719
20627W        W39481   6.725   9.747  13.955 -0.1792 -0.0327  0.2270
20628W        W39482  17.170   6.449  15.150 -0.0269  0.2717 -0.1000
20629W        W39483   9.763  16.491  14.753 -0.3047  0.4650 -0.1937
20630W        W39484  11.097   4.527   1.056  0.0645  0.0157 -0.2304
20631W        W39485  15.109   2.760  12.432 -0.4388  0.0719  0.2111
20632W        W39486   1.080   1.196  13.156  0.0389 -0.2689  0.0784
20633W        W39487  13.158  15.416   1.784  0.3292 -0.2116 -0.2707
20634W        W39488  17.659  12.935  12.749 -0.2316  0.2125 -0.3804
20635W        W39489  14.474  12.995   0.628 -0.2366  0.2264 -0.1515
20636W        W39490  18.068   8.191   4.272 -0.0996  0.0079 -0.2155
20637W        W39491   3.168   4.394  12.617  0.0302 -0.1442  0.0473
20638W        W39492  10.239  14.104   0.310  0.1219 -0.2830  0.3943
20639W        W39493   2.518   2.723   4.006 -0.0284 -0.1084 -0.2903
20640W        W39494   5.304  12.544  13.726 -0.1026  0.0603 -0.1653
20641W        W39495  10.012   1.466   4.585  0.0661  0.1898  0.1149
20642W        W39496  10.463   6.442   0.582 -0.0749 -0.3377 -0.1627
20643W        W39497   3.176   0.418  14.987 -0.0659 -0.0430  0.0803
20644W        W39498  17.522   2.378   3.078  0.1300  0.1331  0.1207
20645W        W39499   8.089   9.955  13.418 -0.0121  0.0786  0.0043
20646W        W39500  13.392  10.574   0.124 -0.3369 -0.0192 -0.0368
20647W        W39501   8.150   8.897   3.039  0.1264  0.3822  0.0722
20648W        W39502   2.847  11.987  13.838 -0.1873 -0.0279  0.0077
20649W        W39503   7.968  11.342  14.081  0.0581  0.2901 -0.0449
20650W        W39504   6.249   0.454   1.050  0.1029 -0.0096  0.2168
20651W        W39505   0.588   4.982  10.258  0.0345 -0.0825  0.1590
20652W        W39506   0.316   7.643   4.002  0.0934  0.2679 -0.0847
20653W        W39507  16.321  11.442   3.101 -0.1924 -0.0273  0.0024
20654W        W39508  16.779  11.498   3.841  0.0940 -0.2404 -0.1011
20655W        W39509  10.720   0.064   4.926  0.1553 -0.3395  0.0728
20656W        W39510   9.354   8.319  15.135  0.0184 -0.1152  0.0018
20657W        W39511  16.258  12.288  11.364 -0.1734  0.4667 -0.0009
20658W        W39512   1.897   6.557  13.414 -0.0528  0.0282  0.0109
20659W        W39513   1.058   0.467   2.415 -0.1585 -0.1582  0.1938
20660W        W39514  16.331  15.095  14.992  0.1698  0.0036  0.0175
20661W        W39515   0.462   7.510  11.353 -0.1885 -0.0593 -0.4218
20662W        W39516  15.806   7.082  13.104 -0.1266 -0.0062 -0.0480
20663W        W39517   6.419   5.537   4.023  0.1937  0.0510 -0.1124
20664W        W39518  10.823   7.159  14.854 -0.1230 -0.2244 -0.1331
20665W        W39519  16.627  17.685   1.166  0.0263  0.0486  0.0653
20666W        W39520  16.069  14.973  10.486 -0.2717 -0.2799 -0.2327
20667W        W39521   2.903  15.457  13.370 -0.1558 -0.1205 -0.2855
20668W        W39522   1.327  16.161  11.912  0.0496  0.0379 -0.2254
20669W        W39523  12.016  13.960  12.061  0.0257 -0.0237 -0.0552
20670W        W39524   5.081   8.893   0.116 -0.0632  0.1502 -0.2990
20671W        W39525   7.276   9.920   3.743  0.0163  0.0185  0.2722
20672W        W39526  14.215   1.045  11.668 -0.3743  0.1539 -0.3111
20673W        W39527   6.066  15.504   0.403 -0.0851 -0.0319 -0.1515
20674W        W39528  16.111   4.470  13.508 -0.0810 -0.0067  0.1330
20675W        W39529  13.138  11.040   0.517 -0.0484  0.0380 -0.0572
20676W        W39530  10.868  16.770   4.479 -0.1033 -0.0732  0.0245
20677W        W39531   2.233   5.166  11.116  0.0088  0.0940  0.0431
20678W        W39532   3.824   1.334   3.058 -0.2389  0.0668 -0.0960
20679W        W39533   8.472   0.305  11.553 -0.4886 -0.1031 -0.0318
20680W        W39534   8.042   6.903  12.737 -0.2969  0.2785 -0.0402
20681W        W39535   8.684   7.497  10.873 -0.0641 -0.1307 -0.0476
20682W        W39536   1.234  18.414  14.626 -0.0429  0.1105  0.0948
20683W        W39537  16.093   0.570   3.604 -0.3425 -0.0782 -0.1356
20684W        W39538   9.233   1.171  12.674 -0.0212  0.0564  0.1222
20685W        W39539   3.418  12.352   3.558 -0.0037  0.1117 -0.1038
20686W        W39540   3.146   3.910  12.742 -0.0597  0.0775  0.0893
20687W        W39541   6.425   5.803   0.753  0.0738 -0.1364  0.1109
20688W        W39542   9.870   7.781  14.072 -0.0911  0.0187  0.1888
20689W        W39543   8.421  10.166   3.479 -0.2622 -0.0534 -0.0977
20690W        W39544   5.598  12.659   1.829  0.1346 -0.1390 -0.1239
20691W        W39545  10.306  13.171  14.993 -0.4055 -0.1992 -0.3724
20692W        W39546   6.679   5.091   4.944 -0.0497 -0.1260  0.0742
20693W        W39547   8.460  17.910   0.630  0.0133  0.0461 -0.0150
20694W        W39548   6.476   0.548  14.349  0.1842 -0.1366 -0.1608
20695W        W39549  10.269  10.488  12.662  0.2119  0.0139 -0.0323
20696W        W39550  13.430  18.246   5.861 -0.0449  0.0277 -0.1119
20697W        W39551   7.034   4.152   1.605  0.0697  0.0412  0.1321
20698W        W39552   2.783  17.777   0.648  0.3112  0.0105 -0.1580
20699W        W39553   1.930   2.611   0.263 -0.2520 -0.0463  0.0326
20700W        W39554   6.150   2.352  12.612 -0.3406  0.0006  0.1133
20701W        W39555   8.563  14.751  13.493  0.0462 -0.0509 -0.0381
20702W        W39556  14.195   8.300   0.545 -0.2529 -0.1440 -0.1724
20703W        W39557  16.484  10.020  13.490 -0.3263 -0.0157  0.0547
20704W        W39558  14.172  10.315  14.278 -0.2451 -0.2335  0.3729
20705W        W39559   3.501  17.730  11.786  0.2961 -0.1214 -0.2217
20706W        W39560   9.548  11.622   3.751 -0.3566  0.0736 -0.1446
20707W        W39561   6.598   3.984  15.181 -0.1150 -0.2646 -0.0533
20708W        W39562  15.287   2.174   0.304  0.2296 -0.0663  0.0689
20709W        W39563  17.754  10.394  12.474  0.0190 -0.3356 -0.1009
20710W        W39564   6.780   9.278  10.360 -0.1670  0.1255  0.1382
20711W        W39565  10.595   9.353   4.503 -0.1191 -0.2303  0.2494
20712W        W39566   3.462  14.557   1.992  0.1109  0.2875  0.1606
20713W        W39567   7.994   0.591  13.468  0.1213 -0.0948  0.1694
20714W        W39568  14.187  12.788  14.922 -0.2117 -0.1497 -0.2716
20715W        W39569  14.953   2.152   1.656  0.2259 -0.0481  0.0591
20716W        W39570  15.510   2.769  15.089 -0.1051  0.3682 -0.0072
20717W        W39571   0.706  14.851   2.247  0.0343 -0.1453 -0.0378
20718W        W39572  12.881  10.805  12.901  0.2437 -0.0205  0.0137
20719W        W39573  17.064   0.593   2.054  0.0033  0.1945  0.0311
20720W        W39574  13.361   1.100  13.786 -0.1450 -0.2914 -0.0303
20721W        W39575   6.011  11.559   1.288  0.2109 -0.5047 -0.0786
20722W        W39576  18.447   1.494  15.080  0.3600 -0.0472 -0.0238
20723W        W39577  15.289  16.082  13.196  0.4640 -0.0116  0.2124
20724W        W39578  18.371  17.002  13.421  0.0618 -0.1518 -0.1031
20725W        W39579   1.890  12.348   2.893  0.0235  0.0139 -0.2690
20726W        W39580   9.319  13.045  14.509 -0.2241  0.1113 -0.1100
20727W        W39581   0.465  14.006  13.650  0.0165  0.1228 -0.0860
20728W        W39582  16.794   2.243  12.612 -0.0586  0.4584  0.1515
20729W        W39583  17.501  17.059  12.502 -0.1473  0.0918 -0.0351
20730W        W39584   7.220   0.594   3.000 -0.0350  0.0998 -0.1369
20731W        W39585   1.625  16.470   0.489 -0.0343  0.1095 -0.1792
20732W        W39586   0.228   0.738  11.720  0.0133 -0.1781 -0.1383
20733W        W39587   1.376  12.348   3.708  0.2337  0.0306 -0.1443
20734W        W39588  17.092   4.523   5.389  0.1756  0.1479  0.0292
20735W        W39589   9.179  14.782  14.575  0.2054 -0.1455 -0.1860
20736W        W39590  17.636   0.824   3.859  0.1329 -0.1913 -0.0623
20737W        W39591   4.597  14.946  14.112  0.0422 -0.0239  0.1248
20738W        W39592   1.662   3.955  14.661 -0.4848  0.0708 -0.1093
20739W        W39593  15.951   1.794  12.556 -0.1608  0.4006  0.1150
20740W        W39594   4.740  16.038   0.105 -0.1140  0.0837 -0.0144
20741W        W39595  18.249   8.885  11.428  0.1088 -0.1434  0.0520
20742W        W39596   1.462   2.823  13.879 -0.0976 -0.0735 -0.1513
20743W        W39597   7.592   3.740   1.646  0.1236 -0.1003  0.0420
20744W        W39598   6.603   1.482  14.145  0.1673  0.1013  0.1889
20745W        W39599   6.265   7.766   3.593  0.3334 -0.3220  0.1744
20746W        W39600   2.432  18.078   2.475  0.0570 -0.0171 -0.1755
20747W        W39601  14.674   5.288  14.884  0.0468 -0.1471 -0.0203
20748W        W39602  17.737   8.006  12.620 -0.0475 -0.3985  0.2029
20749W        W39603  14.333  15.073  13.033  0.1758 -0.0484  0.2873
20750W        W39604   6.200  14.004  13.413 -0.0084 -0.0018  0.2949
20751W        W39605   2.020   0.713  13.446  0.0624 -0.0719 -0.0277
20752W        W39606  14.218  11.161  15.316  0.0765  0.0579  0.1658
20753W        W39607  13.503   1.039  14.838  0.0388 -0.1348  0.2947
20754W        W39608  18.068   2.617  12.959  0.0703 -0.0084  0.0421
20755W        W39609  17.382   4.687  13.835 -0.1885 -0.2822  0.2898
20756W        W39610  16.741   6.285  10.914 -0.2923  0.0684 -0.1071
20757W        W39611  17.002  12.248   3.907 -0.3931  0.2075 -0.0720
20758W        W39612   5.821   2.666  12.892  0.3672 -0.0843 -0.1997
20759W        W39613   9.458  16.621  12.203 -0.2064  0.1162 -0.2030
20760W        W39614  15.264   1.928   5.121  0.1568 -0.1309 -0.0372
20761W        W39615  17.574   4.752  13.314  0.4070  0.0107  0.3511
20762W        W39616   0.229   4.457   2.747 -0.3467  0.2419 -0.0754
20763W        W39617   9.855   4.101  12.862  0.0678  0.3186 -0.0606
20764W        W39618  12.838  10.080   0.787  0.1835  0.1755 -0.2459
20765W        W39619   2.800  14.411  14.214 -0.1796 -0.1855  0.1766
20766W        W39620   0.701   8.004  11.950 -0.3325 -0.0585  0.1139
20767W        W39621  13.481  14.902  12.609 -0.0638  0.0072  0.2736
20768W        W39622   1.824  12.107   3.953 -0.1801  0.0401  0.2963
20769W        W39623  17.174   8.209  11.592 -0.0652 -0.0427 -0.0751
20770W        W39624  17.788  14.345   1.532 -0.0901 -0.1395  0.0133
20771W        W39625  17.901   1.607   2.732 -0.1674  0.2132  0.3630
20772W        W39626  13.394   8.754   4.347  0.2250  0.0055  0.1014
20773W        W39627   1.559  10.181   0.219  0.2724 -0.0588 -0.0494
20774W        W39628   1.909  15.982  12.051 -0.0037  0.1835 -0.2384
20775W        W39629  13.656   5.958   1.315 -0.1752  0.0633 -0.0982
20776W        W39630   7.476  17.894  12.073 -0.1483 -0.1934 -0.0480
20777W        W39631  14.498  11.516   4.899  0.1649  0.1764 -0.0517
20778W        W39632   9.987   4.981  11.280 -0.0563  0.0974 -0.1338
20779W        W39633   4.272   8.567   4.199 -0.0998 -0.1845  0.0463
20780W        W39634  17.244   6.427   0.325 -0.0873  0.1604  0.1261
20781W        W39635   2.751   1.080   1.432  0.1727  0.1088 -0.0590
20782W        W39636   0.539   5.625   2.721 -0.2510 -0.0676 -0.0837
20783W        W39637  17.930  14.993  14.056 -0.1082  0.1105 -0.0048
20784W        W39638   4.739   4.587  13.056  0.1629 -0.0172 -0.1541
20785W        W39639   3.675  14.480  13.841 -0.0695 -0.2943  0.1481
20786W        W39640   0.977  10.877   1.116  0.0191 -0.2596  0.0109
20787W        W39641   2.683   3.155   0.140 -0.0846  0.1358  0.0829
20788W        W39642   8.034  16.060  12.020 -0.0010  0.1918 -0.2740
20789W        W39643  13.980   8.289   3.920  0.1940  0.1775  0.0704
20790W        W39644   4.646  16.166  11.602 -0.0059 -0.2147 -0.1402
20791W        W39645   5.631   6.574  11.884  0.2417  0.1101 -0.4885
20792W        W39646   7.721  17.304  12.667  0.3672  0.1558  0.0411
20793W        W39647  14.808   2.336   3.283 -0.1362 -0.1821 -0.2790
20794W        W39648  10.959   1.141  13.278  0.0321 -0.2558 -0.1143
20795W        W39649   1.238  12.103  10.713  0.3275  0.1365 -0.0169
20796W        W39650   6.692   9.373   3.249 -0.1281  0.2698  0.0811
20797W        W39651   8.638  13.301   2.731  0.1214 -0.0872  0.0442
20798W        W39652   1.684   5.469   3.158  0.1644  0.0439 -0.1974
20799W        W39653  14.665  10.402   3.093  0.0853 -0.0593  0.1578
20800W        W39654   2.332   4.677  14.696 -0.3458  0.1325 -0.3976
20801W        W39655  13.213   8.828  12.499  0.1629 -0.1982 -0.0082
20802W        W39656  16.048  18.480   1.021 -0.2031  0.1238  0.2808
20803W        W39657   7.977  11.837   4.527  0.1609  0.1827  0.0285
20804W        W39658   1.721   0.222  15.084  0.1474  0.0812 -0.0748
20805W        W39659  15.525   7.032   4.085  0.2404 -0.0922  0.2643
20806W        W39660  15.338  13.158  12.467 -0.3230  0.5579  0.0156
20807W        W39661   3.314  14.661  13.594 -0.1752 -0.1599  0.2432
20808W        W39662  16.719  12.272  12.374 -0.3554 -0.1002 -0.2585
20809W        W39663   2.310  12.390   3.819 -0.0083  0.3436  0.1862
20810W        W39664  17.429  18.346   2.973  0.1657 -0.1506 -0.1722
20811W        W39665  14.190   0.093  11.535  0.1915  0.0760 -0.2527
20812W        W39666   4.713  10.103  15.429 -0.0235  0.3458 -0.2896
20813W        W39667   3.153  12.508   4.040  0.2027  0.5178 -0.2625
20814W        W39668   3.577   0.152  12.094 -0.3888  0.1583  0.2428
20815W        W39669   1.017   4.085   3.284 -0.0210 -0.0675 -0.0677
20816W        W39670   6.881   8.130   3.001 -0.0119  0.0702 -0.2316
20817W        W39671   9.718   1.886  11.266 -0.0157  0.0126  0.0122
20818W        W39672  13.611   0.304  13.730 -0.1020 -0.0169 -0.2486
20819W        W39673   4.753  18.418   4.899 -0.0204  0.0102  0.1326
20820W        W39674   6.543   2.961   3.905 -0.1235  0.2008  0.0503
20821W        W39675   4.275  17.050   1.870 -0.0381  0.1885  0.0066
20822W        W39676   4.355   7.166   4.055  0.3244 -0.0682  0.0686
20823W        W39677   6.634   8.494  15.139  0.0567 -0.0379  0.0459
20824W        W39678  14.610  18.282   4.025 -0.2172  0.0492  0.2078
20825W        W39679  12.886   4.416  13.244  0.2178  0.0840 -0.0203
20826W        W39680   6.341   7.239   0.925 -0.1341 -0.2220  0.0606
20827W        W39681   4.351   4.421  11.206  0.0723 -0.0613  0.0443
20828W        W39682  12.084   9.531   0.732 -0.0817 -0.1570  0.0494
20829W        W39683   1.781   5.778   1.197  0.1981 -0.0415 -0.2078
20830W        W39684   8.467  17.732  13.154 -0.2397  0.1707 -0.0122
20831W        W39685   6.933  10.285   1.454 -0.0217  0.1445  0.2347
20832W        W39686  10.533  12.825  14.058  0.0774 -0.1869  0.2746
20833W        W39687  13.030   1.961  13.774  0.1765  0.0722 -0.0015
20834W        W39688   1.301  13.215  12.375  0.0956 -0.0308 -0.2521
20835W        W39689  15.012  12.213   0.291  0.1664  0.1742 -0.3481
20836W        W39690  13.932  12.842   0.428 -0.1019 -0.1932 -0.3106
20837W        W39691  15.196  11.446   0.639  0.1703  0.0230  0.1173
20838W        W39692   2.216  11.059   3.322 -0.1237 -0.1717 -0.1671
20839W        W39693  18.039  16.733  13.137  0.2908 -0.1236  0.1517
20840W        W39694   7.100  16.483  11.307 -0.0319 -0.0458 -0.1045
20841W        W39695   9.604  14.198   1.882 -0.0686 -0.0245  0.0262
20842W        W39696  10.373   2.459  12.307  0.0317  0.0881  0.0391
20843W        W39697   1.516  13.787   1.365  0.2317  0.1307  0.0701
20844W        W39698   6.896  15.352  13.715 -0.2239 -0.0054  0.0028
20845W        W39699   5.431  15.800   0.914 -0.0241  0.0125 -0.0477
20846W        W39700  15.046   8.144   2.218 -0.4142  0.0545 -0.1136
20847W        W39701   0.922  17.305  13.186  0.0774 -0.0701  0.2481
20848W        W39702  18.410   7.577  12.889  0.0694  0.0881 -0.0066
20849W        W39703   7.304  18.491   1.204 -0.0919 -0.0124 -0.1196
20850W        W39704   7.501   4.908  13.146  0.1434 -0.0451  0.0504
20851W        W39705   8.824  16.541   2.287 -0.1581  0.1812  0.1090
20852W        W39706   3.617   2.945  11.405 -0.1050  0.0237  0.2593
20853W        W39707   3.686  16.525   2.619  0.2422  0.3269 -0.0648
20854W        W39708  15.795  18.477  13.105  0.0832 -0.0195  0.0204
20855W        W39709  10.513  11.672  14.015  0.2911 -0.2207 -0.1013
20856W        W39710   2.394  13.420   1.748 -0.0216  0.1482  0.0833
20857W        W39711   9.809   7.105  12.911 -0.1380 -0.1816 -0.0936
20858W        W39712   6.463   5.969  12.623  0.1681  0.2007 -0.1800
20859W        W39713   1.480  15.910   2.832 -0.1664 -0.0900  0.0230
20860W        W39714   0.966  18.010   0.865 -0.0149 -0.2334 -0.2886
20861W        W39715  16.126  14.489  11.593  0.1007 -0.1649 -0.1010
20862W        W39716  15.166  11.931  13.507  0.0132 -0.2069 -0.1904
20863W        W39717  16.549  13.688  13.738 -0.0216 -0.0861 -0.1428
20864W        W39718   1.229  11.415   0.942  0.2098 -0.1391 -0.2337
20865W        W39719   6.992  17.057   1.107 -0.1069  0.0255 -0.3602
20866W        W39720   6.512  12.089  10.588  0.2933 -0.0974  0.1481
20867W        W39721   6.761  10.762   3.188  0.0549 -0.1375 -0.0743
20868W        W39722  16.612   9.036   2.928 -0.1392 -0.2417 -0.2223
20869W        W39723  12.950   1.168  10.165 -0.0050 -0.0717  0.1332
20870W        W39724   2.417  13.548  12.126  0.2219  0.2554 -0.4568
20871W        W39725   7.887  12.036  11.553 -0.0212 -0.1218 -0.1330
20872W        W39726   9.322   6.196  12.054 -0.0377  0.3675 -0.1226
20873W        W39727  14.415   1.369  13.992  0.1607  0.1351 -0.1164
20874W        W39728   3.258   1.822  12.690 -0.1277  0.0815 -0.1522
20875W        W39729   4.831  12.096  13.183  0.2468  0.3350  0.3592
20876W        W39730  12.764   1.327   4.541  0.0604  0.0206  0.1496
20877W        W39731  16.658  15.508  11.623 -0.2021 -0.2459  0.0662
20878W        W39732   5.504   7.846  12.627 -0.0986  0.2078 -0.1913
20879W        W39733  11.984  11.682  15.000 -0.0578  0.1979 -0.2224
20880W        W39734   2.739   4.592   2.674 -0.0418 -0.1029 -0.1285
20881W        W39735  13.575   4.249  10.799 -0.2682  0.3213  0.0655
20882W        W39736   4.241   0.259  12.695 -0.1066 -0.0944  0.0314
20883W        W39737   6.063   1.393  14.177 -0.0264 -0.1749  0.3488
20884W        W39738  11.223  14.444  15.399  0.0549  0.1268  0.1563
20885W        W39739   8.174  10.347  10.676 -0.1619 -0.5913  0.1510
20886W        W39740   1.475   8.845   4.150  0.2999 -0.0204  0.1860
20887W        W39741  10.235  16.574  13.176 -0.2454  0.1604  0.2097
20888W        W39742   6.857  13.209  12.758  0.0621  0.4655 -0.1494
20889W        W39743  14.002   9.137   1.826 -0.0438  0.0587  0.2078
20890W        W39744   4.609  13.675  13.049 -0.1799  0.0930 -0.0362
20891W        W39745   5.347  11.466   0.109  0.0092 -0.0144 -0.0032
20892W        W39746  18.394   5.071   0.983 -0.2030  0.0119 -0.1749
20893W        W39747  11.491  16.696  11.965 -0.0325  0.0645 -0.1571
20894W        W39748   3.894   3.664  12.392  0.1213  0.2089  0.1149
20895W        W39749  10.252   9.699  15.071  0.2769  0.1846  0.2716
20896W        W39750  14.930  10.447   1.020 -0.0731  0.2046  0.0429
20897W        W39751  13.851   5.098  13.873  0.2435  0.1942  0.1853
20898W        W39752   8.235  15.818  14.441 -0.1060 -0.0666  0.0847
20899W        W39753   9.022  16.936   1.575  0.1014  0.0237  0.4408
20900W        W39754  12.592  15.345   2.525  0.0782  0.3888 -0.0088
20901W        W39755   7.815   6.298   2.266 -0.3641 -0.0896 -0.4216
20902W        W39756   9.800   9.517   1.764 -0.1749  0.2747  0.1032
20903W        W39757  17.597   4.286  14.168  0.0233  0.0442  0.1541
20904W        W39758   3.121   5.013  11.419  0.0508 -0.1353  0.1743
20905W        W39759  16.118  16.715   2.729 -0.1160 -0.1280 -0.1476
20906W        W39760  12.747  12.056  14.742 -0.1628 -0.1089  0.1975
20907W        W39761   1.987   2.172  12.729 -0.0913  0.1093 -0.3956
20908W        W39762   8.394  12.640  13.662 -0.1979 -0.2427  0.0489
20909W        W39763   5.413  11.028   0.475 -0.0969 -0.0576  0.3593
20910W        W39764   1.782  12.164   3.372  0.1271 -0.0117 -0.1603
20911W        W39765   4.557  17.006   2.310 -0.0195 -0.0081  0.0683
20912W        W39766   1.743  17.429  14.771  0.0460  0.0894  0.3327
20913W        W39767   8.164  18.498  12.318 -0.1499 -0.0458  0.2136
20914W        W39768  10.242   2.122  14.754  0.0745 -0.2413 -0.2278
20915W        W39769  11.536  17.417   5.474  0.1587  0.2118 -0.0522
20916W        W39770  17.086   1.077  11.381 -0.3014  0.0538  0.1743
20917W        W39771   2.444  18.530  13.176 -0.0858 -0.3072 -0.0057
20918W        W39772   4.989   3.386   3.019  0.0379  0.1405  0.0891
20919W        W39773  12.531   9.613   1.007  0.2232  0.0577  0.0532
20920W        W39774   0.902   5.028   3.377 -0.2545 -0.1124  0.0771
20921W        W39775   9.162   9.218   1.229  0.0886  0.1574 -0.1433
20922W        W39776  17.511  17.521   2.204  0.0416 -0.0923 -0.0718
20923W        W39777  17.800   4.763  14.297  0.0115  0.0791  0.0609
20924W        W39778  14.647   5.834  12.426  0.0503  0.0766 -0.2189
20925W        W39779  11.391  18.094   4.325  0.2636  0.2005 -0.0563
20926W        W39780   4.025   8.526  11.514 -0.1042  0.0878  0.0301
20927W        W39781  15.340   5.278   1.821  0.1963  0.0861 -0.1133
20928W        W39782  17.994   8.594   4.064 -0.1405  0.0797 -0.6621
20929W        W39783  12.010   7.377  12.127  0.0529  0.0295  0.3187
20930W        W39784   1.506  17.159   4.140 -0.0685  0.2959  0.1650
20931W        W39785  16.240   5.243  14.337  0.1213  0.2945 -0.2096
20932W        W39786   6.176   8.531  15.007  0.2019  0.4342 -0.1790
20933W        W39787  14.040  15.987   2.780  0.1591  0.2260  0.0017
20934W        W39788   6.763  14.666  14.432 -0.2468 -0.0908  0.1899
20935W        W39789  14.715   3.518   3.756  0.0724  0.0187  0.2694
20936W        W39790   9.393  10.281   0.008  0.0512 -0.1252  0.0753
20937W        W39791  13.160  14.844   0.720  0.1608 -0.0260  0.4052
20938W        W39792   9.224   8.022  13.347  0.0218 -0.0374  0.2215
20939W        W39793   5.839   1.438   2.426  0.0333  0.1508  0.0503
20940W        W39794   9.369   8.416   3.580 -0.0281 -0.0412 -0.3602
20941W        W39795   0.305  14.380   0.481 -0.1053  0.0728 -0.3101
20942W        W39796   7.794   4.616   0.100  0.2192 -0.0678  0.1343
20943W        W39797   7.769  11.433  14.587 -0.2261  0.2073 -0.2528
20944W        W39798  17.315  16.200   2.549 -0.1183 -0.1684  0.1828
20945W        W39799   5.519   4.183   0.714 -0.2497 -0.3290  0.0945
20946W        W39800   0.795  13.177  11.523 -0.2269  0.1652 -0.2591
20947W        W39801  12.453  15.979  15.339 -0.2028 -0.2982  0.0851
20948W        W39802   6.352  16.431   1.367  0.0941 -0.0994 -0.0452
20949W        W39803  12.294   9.639  13.520 -0.1485 -0.4062  0.1052
20950W        W39804  13.512   6.888  11.438  0.2251  0.1011  0.2169
20951W        W39805  14.984  18.527   0.076 -0.1585 -0.1320  0.3116
20952W        W39806   1.118  14.594  13.661  0.1984 -0.1305  0.2554
20953W        W39807   8.775   3.981  11.468 -0.4326  0.1579  0.0106
20954W        W39808   9.030  14.298   0.594 -0.0924 -0.0547 -0.1812
20955W        W39809  16.619   2.756  11.978 -0.0313  0.1872 -0.0332
20956W        W39810  16.942  11.054   1.452  0.1126 -0.3244 -0.0025
20957W        W39811   2.239  14.988   3.139  0.3078 -0.0189  0.1734
20958W        W39812  12.435   6.200   0.346  0.0443  0.2888  0.1849
20959W        W39813  12.375  17.557   5.662 -0.0741 -0.0615 -0.2075
20960W        W39814  16.086   8.874   2.727 -0.0030 -0.1009 -0.1701
20961W        W39815  10.175   0.983  11.327  0.1913 -0.1034 -0.0609
20962W        W39816   6.274  10.989  10.048 -0.1423  0.0474  0.0330
20963W        W39817   7.530  15.605  12.657 -0.0665  0.1028 -0.3162
20964W        W39818  16.202  15.967  13.831 -0.0740  0.3544  0.0280
20965W        W39819  18.470  10.463   1.708 -0.0890  0.0356  0.2222
20966W        W39820  13.091  16.429  14.503 -0.0304 -0.0214  0.1260
20967W        W39821  10.486   6.652   1.054 -0.0229 -0.0281  0.2276
20968W        W39822   8.699   6.674  14.425  0.0729  0.0370 -0.2265
20969W        W39823   0.305   6.649   0.365  0.0544  0.2775  0.1999
20970W        W39824  11.899  11.021   3.979 -0.3190 -0.1454  0.1758
20971W        W39825   3.854  11.407   0.663  0.0619 -0.0837  0.2874
20972W        W39826   8.139  11.747  11.929  0.0747  0.1261 -0.0194
20973W        W39827   4.962   5.070  12.124 -0.1615  0.4088  0.0905
20974W        W39828  17.947   8.608   5.253  0.2699  0.3173 -0.1255
20975W        W39829  18.206  12.987  13.420 -0.0340  0.1165  0.0887
20976W        W39830  18.120  10.397  13.084  0.0920 -0.0317 -0.3870
20977W        W39831  17.565   3.677   4.017  0.0908 -0.0919  0.1616
20978W        W39832  10.780   2.272  14.411 -0.2291  0.3071 -0.0260
20979W        W39833  14.356   7.890   3.175  0.0768  0.0795 -0.1748
20980W        W39834   1.293  10.604  12.553  0.1625  0.2377 -0.0518
20981W        W39835   5.640  12.087  13.796  0.2668  0.2449 -0.0152
20982W        W39836  16.958  12.649  12.708  0.0474  0.1379  0.1034
20983W        W39837  13.222   4.451   3.391  0.1661 -0.3284  0.1908
20984W        W39838  11.825  16.263  13.316  0.2153 -0.1179 -0.0784
20985W        W39839   9.415   0.066  11.303  0.0704 -0.3100 -0.3125
20986W        W39840   6.553   2.975   2.710  0.0155 -0.0305 -0.2598
20987W        W39841   5.204  14.022   1.850  0.1226  0.2623  0.0567
20988W        W39842   7.099   8.173   0.611  0.2683 -0.4139  0.0073
20989W        W39843   8.891  17.773   5.057  0.1439  0.2169  0.0178
20990W        W39844   8.151   5.022   2.009  0.1769 -0.0941 -0.1730
20991W        W39845   5.800   5.418   3.287 -0.1713 -0.1106  0.0804
20992W        W39846   6.233   6.871  13.919 -0.3997 -0.1590 -0.0713
20993W        W39847   7.145   3.320  15.369 -0.1697 -0.1463 -0.0915
20994W        W39848  10.461  17.216  15.003  0.2911 -0.2388 -0.2063
20995W        W39849   9.681   6.655  12.014  0.1177  0.1198  0.0589
20996W        W39850  11.069   5.763   3.897  0.0516 -0.1406 -0.0571
20997W        W39851  14.820  18.001   2.715 -0.0917  0.2554  0.1281
20998W        W39852   5.051   0.135   2.976 -0.0498 -0.0694 -0.1246
20999W        W39853   1.788   5.581   0.257 -0.0074 -0.3695 -0.0141
21000W        W39854   1.944  15.812   3.068  0.1854  0.2387  0.0001
21001W        W39855  12.413   4.763   2.817  0.0480 -0.1952 -0.0612
21002W        W39856   2.935   4.854  10.930 -0.3730  0.2661 -0.1136
21003W        W39857   2.557  16.578  11.927  0.1344  0.0856 -0.1866
21004W        W39858   9.670  13.396  12.727  0.0140 -0.1801  0.2114
21005W        W39859  12.649   0.912   2.914  0.6878  0.3589  0.2198
21006W        W39860  14.116  10.996   1.489 -0.0996 -0.2728  0.2441
21007W        W39861   2.598   8.312  14.760 -0.0369  0.0360  0.1806
21008W        W39862   0.542  15.901   3.054 -0.2831 -0.1304 -0.0295
21009W        W39863  18.461   3.196  13.091 -0.1182  0.0463 -0.1932
21010W        W39864   2.421   4.681   3.059 -0.0103  0.0010  0.1020
21011W        W39865   7.695  16.897   0.748 -0.0745  0.0962  0.3134
21012W        W39866  11.671  15.438  15.397  0.1370 -0.1100 -0.1622
21013W        W39867  15.901   7.883  13.644 -0.0275  0.1782 -0.1750
21014W        W39868  13.911   6.600  12.550  0.1732  0.1913 -0.0848
21015W        W39869   5.663   6.434   3.802  0.0416 -0.0583 -0.0965
21016W        W39870  13.328   2.132  13.146  0.1286  0.2085  0.0291
21017W        W39871   0.535  17.135   3.197  0.1174  0.1872  0.1462
21018W        W39872  10.367  14.444   1.657  0.0277 -0.3402 -0.0502
21019W        W39873   4.007   8.927  15.462  0.0875  0.4171  0.3655
21020W        W39874   2.335   1.789  12.832  0.0470  0.1904 -0.0623
21021W        W39875  11.932   2.260   3.422 -0.1935  0.1456 -0.0645
21022W        W39876  16.252  17.184  12.558 -0.0665  0.1094 -0.0852
21023W        W39877   4.693  14.808  12.361  0.0382  0.1899 -0.0002
21024W        W39878  16.402   8.954  11.833 -0.0987 -0.0024  0.0206
21025W        W39879  10.006  10.380  13.775  0.1182  0.0886 -0.1319
21026W        W39880  13.682  12.458  14.294 -0.0949  0.1158  0.2487
21027W        W39881  12.247   3.780   4.203 -0.3153  0.1676 -0.1577
21028W        W39882  17.680   5.833   3.447  0.1698  0.1731  0.0525
21029W        W39883  18.187  10.115  12.697 -0.0107  0.0698  0.1607
21030W        W39884  18.021   5.929   3.840  0.0340  0.3566  0.0401
21031W        W39885   9.866   7.465   2.243 -0.0904 -0.1200  0.1102
21032W        W39886  11.426   4.508   4.136 -0.0506  0.0999  0.1811
21033W        W39887   1.618   9.780  13.938  0.0533  0.0003 -0.1904
21034W        W39888   9.423  11.767  11.321 -0.1652 -0.1019  0.2088
21035W        W39889   9.615   7.101  15.235 -0.1888 -0.0338  0.0118
21036W        W39890   2.294   2.902   1.803 -0.1429 -0.1246 -0.2925
21037W        W39891   4.531  14.953   3.237 -0.2394 -0.0313 -0.0044
21038W        W39892   8.338   8.732  14.798  0.4205 -0.0786 -0.0232
21039W        W39893   4.633  17.555  12.047  0.4053 -0.0515  0.0396
21040W        W39894  17.549   6.863   0.137  0.1190 -0.2658 -0.2457
21041W        W39895   3.881   4.276  11.995 -0.1643  0.2047 -0.1114
21042W        W39896  12.147   0.648   5.516 -0.2113 -0.0359 -0.0831
21043W        W39897  11.720   4.036   1.081 -0.0315  0.1003  0.0374
21044W        W39898   3.892  13.659  13.537  0.4323  0.0184 -0.0700
21045W        W39899  14.842   1.681   4.038  0.4148 -0.1374 -0.0861
21046W        W39900   4.810   0.432   1.763  0.1152  0.3608  0.0527
21047W        W39901   6.535   5.359  14.744 -0.1314 -0.1068 -0.0513
21048W        W39902   3.200   7.580   0.120  0.1751 -0.0650  0.1023
21049W        W39903   1.340   1.905   0.114 -0.0853  0.2089  0.2385
21050W        W39904   4.581  12.905   0.353  0.0220  0.0988  0.3744
21051W        W39905  15.882  12.560  11.744 -0.1238  0.1443 -0.0609
21052W        W39906   5.664  11.987   4.024 -0.2318  0.2437 -0.0533
21053W        W39907   0.465   8.016   0.949  0.0906  0.1126  0.0335
21054W        W39908   7.588   8.756  13.103  0.2042 -0.2892  0.0746
21055W        W39909  12.864   1.841  13.342 -0.0283  0.2018 -0.1108
21056W        W39910  17.349   8.970  14.919  0.0771 -0.0073 -0.1390
21057W        W39911  17.473   4.120   3.230  0.2221 -0.0879  0.3153
21058W        W39912  13.077   5.130   4.202 -0.4343  0.2919  0.1512
21059W        W39913   7.433   4.361   0.968 -0.3204  0.3063  0.1280
21060W        W39914  10.849  13.455  11.799  0.3724  0.1395 -0.1064
21061W        W39915  13.779  15.758   4.327  0.0021 -0.1592 -0.0652
21062W        W39916  14.790   5.250  10.888  0.0511 -0.1673 -0.1527
21063W        W39917  18.479   6.022   2.167  0.3921  0.0008  0.1281
21064W        W39918   1.169   5.296   3.733 -0.0908  0.1720 -0.0669
21065W        W39919  11.039  12.962   0.445 -0.1934 -0.1907 -0.0787
21066W        W39920   4.221  15.897  11.614 -0.0708  0.1847  0.4254
21067W        W39921  17.386  15.011  12.410 -0.0380  0.1772 -0.0055
21068W        W39922   0.964  10.742  11.080  0.0899  0.2260  0.1739
21069W        W39923  10.624   2.966   2.972  0.0436  0.1000  0.2007
21070W        W39924  16.436   5.124  14.827  0.2202  0.0880  0.0068
21071W        W39925   8.327   4.929   2.578 -0.2113  0.0221  0.1616
21072W        W39926  12.190   0.493   4.567  0.0882 -0.1703 -0.3108
21073W        W39927   7.663  16.835  12.055 -0.0466 -0.1148  0.0350
21074W        W39928   3.002  14.268  12.723  0.0690  0.0833 -0.3014
21075W        W39929   4.176  13.651  12.794  0.2629  0.0056 -0.0159
21076W        W39930  16.751  17.131  13.302 -0.1528  0.1903 -0.0323
21077W        W39931  10.589  14.794   5.753 -0.2432 -0.1237 -0.2571
21078W        W39932  15.981   1.646   0.343 -0.2348 -0.1718 -0.1901
21079W        W39933  16.384  10.489   3.586 -0.1527  0.0903  0.2371
21080W        W39934  18.023   2.434  13.385 -0.1055  0.0580  0.1111
21081W        W39935   5.801   6.192  13.940  0.3137 -0.2187  0.3895
21082W        W39936   7.121  17.084  13.198  0.1440  0.1925 -0.1087
21083W        W39937   3.984  14.584   2.004 -0.1751 -0.2312  0.1365
21084W        W39938   7.739   7.362   4.767 -0.0120  0.0774 -0.1873
21085W        W39939  16.673   8.708  12.212  0.2251 -0.2034  0.0941
21086W        W39940  10.792   2.692  12.532 -0.1274  0.2393 -0.0679
21087W        W39941  15.768  16.751   1.311 -0.3001 -0.1617  0.2310
21088W        W39942  18.167  17.994   0.551 -0.0330  0.0236  0.1543
21089W        W39943  14.285   2.086   5.279  0.1652  0.1360  0.0905
21090W        W39944  17.344  17.353  15.265 -0.0032  0.0883  0.1475
21091W        W39945  11.035   6.919   2.447  0.2327 -0.7245  0.0592
21092W        W39946  18.007  11.059  11.322  0.1602 -0.0234  0.1122
21093W        W39947  14.645  16.420  12.413 -0.1789  0.1358  0.0699
21094W        W39948  14.979   3.075   4.566  0.0390 -0.0951  0.4040
21095W        W39949  11.783   2.728   4.349  0.1092  0.0849  0.0292
21096W        W39950  10.724  18.548  12.550 -0.0447 -0.2372  0.0294
21097W        W39951  18.242  14.648   0.762 -0.4878 -0.4715 -0.1487
21098W        W39952   7.947   0.651  13.975  0.1777  0.1816  0.1147
21099W        W39953   6.368   8.908  11.366  0.0897  0.0411  0.0125
21100W        W39954  12.553   6.060  12.826  0.2004  0.0394  0.0481
21101W        W39955  14.052   1.692   0.289  0.0725  0.1956  0.1755
21102W        W39956   5.594  11.062  15.453  0.0912  0.1640  0.0947
21103W        W39957   9.629   7.770   0.795 -0.1122 -0.1186  0.0608
21104W        W39958  12.070   2.458   0.192 -0.1212  0.0720  0.3766
21105W        W39959  11.179  16.743  11.595  0.3643 -0.0810 -0.0562
21106W        W39960  13.208  12.007   4.474  0.0007 -0.0228  0.0492
21107W        W39961   3.357  16.564  15.077 -0.1807 -0.2561  0.2969
21108W        W39962  10.367  18.418   1.553  0.2089 -0.1883 -0.1053
21109W        W39963   2.836   6.261   1.869  0.1212  0.3407  0.3250
21110W        W39964   7.166   7.238   2.570 -0.1404  0.2852 -0.0551
21111W        W39965   6.064  10.068  13.056  0.0635 -0.0969  0.1067
21112W        W39966   7.173  10.655  13.718 -0.3599 -0.0450  0.2632
21113W        W39967   1.825  16.546   2.505 -0.1430  0.1879 -0.0093
21114W        W39968   6.479  10.054   0.676  0.1582  0.2081 -0.3624
21115W        W39969  10.275  15.733  13.081 -0.0089 -0.1563 -0.2233
21116W        W39970  12.698  11.199   4.219  0.0838 -0.1227 -0.0514
21117W        W39971  16.925  14.439  14.373  0.0385 -0.2479 -0.0241
21118W        W39972  15.198   0.296   3.388  0.2431 -0.0504  0.0174
21119W        W39973   8.150   2.764  12.646  0.4539 -0.0023  0.0747
21120W        W39974   6.280  14.982  13.179 -0.2916  0.0037 -0.2605
21121W        W39975  13.587  10.881   2.450  0.1173 -0.3961  0.0589
21122W        W39976   8.466  10.489   2.079  0.1253  0.2296 -0.0381
21123W        W39977   9.237   7.760   0.530  0.1115  0.2021 -0.2622
21124W        W39978   5.250  12.279   2.617  0.0464 -0.0244  0.1676
21125W        W39979   9.850   8.680   5.214 -0.0756 -0.2970 -0.0188
21126W        W39980  16.998   7.063  12.596  0.2546  0.0546 -0.0646
21127W        W39981  16.739  14.192  10.118  0.0269  0.0953 -0.1649
21128W        W39982  14.767  14.201   1.967  0.1837 -0.1997 -0.1795
21129W        W39983   3.448   8.237  11.442  0.0511  0.1492  0.1992
21130W        W39984  12.975  18.538  12.691 -0.0616 -0.3707 -0.1667
21131W        W39985  11.247  17.625  12.204 -0.1919  0.0751 -0.1389
21132W        W39986  15.704   1.701   2.178  0.2484  0.0221  0.2272
21133W        W39987  13.073  14.417   2.913 -0.1890 -0.1772 -0.0650
21134W        W39988  15.060  13.182  11.118 -0.0169 -0.0073 -0.1657
21135W        W39989   1.982  14.280   1.728 -0.1438 -0.5422 -0.0063
21136W        W39990  11.484   3.046   3.157 -0.0528 -0.0357 -0.0275
21137W        W39991  10.044   1.844  14.317 -0.4370  0.1584  0.0014
21138W        W39992   8.981  11.136  13.815 -0.1193  0.0480  0.0147
21139W        W39993   6.876   5.470   2.964 -0.1434  0.0869  0.2755
21140W        W39994   0.012   4.804  12.648 -0.0475  0.0867  0.1150
21141W        W39995  11.715   4.967   4.011 -0.4626  0.2401 -0.0726
21142W        W39996  11.060  12.838  13.900  0.3282 -0.4369 -0.0308
21143W        W39997   1.071  17.681  13.464 -0.1646 -0.2431  0.1062
21144W        W39998  13.318  13.138   3.062 -0.0629  0.1773  0.1866
21145W        W39999   4.599   6.577   2.499  0.0857 -0.0360 -0.0861
21146W        W40000   9.663   4.545   4.217  0.1452 -0.1804  0.0732
21147W        W40001   9.156   6.619  14.635  0.4712 -0.1753 -0.1432
21148W        W40002   8.703  15.284   4.157 -0.2395  0.0565  0.1067
21149W        W40003  18.160  13.765   3.221  0.1627 -0.2508  0.2465
21150W        W40004  15.634   8.729  14.105  0.1311 -0.1897  0.1021
21151W        W40005  15.775  10.548  12.105 -0.0971  0.2592 -0.2240
21152W        W40006  15.286  16.258   4.954  0.0227 -0.1904  0.1459
21153W        W40007  14.726   3.963  14.154 -0.1509 -0.3356  0.0903
21154W        W40008   1.582   1.914   2.588  0.2976  0.2564 -0.2513
21155W        W40009  12.067   0.249   1.221  0.0076  0.1137  0.0578
21156W        W40010  11.178   3.674  11.554 -0.1555  0.0581  0.3070
21157W        W40011  10.921  11.945   3.587 -0.1874 -0.2668  0.4081
21158W        W40012  13.260  12.142   1.321  0.2704  0.3188  0.5132
21159W        W40013  14.342  10.155  13.354  0.1657 -0.0258 -0.0453
21160W        W40014   6.108  15.117   2.195  0.1941 -0.1599 -0.1420
21161W        W40015  12.143   4.684   4.636 -0.2593 -0.0179 -0.2688
21162W        W40016  16.329  16.711  13.401  0.0743 -0.2404 -0.0130
21163W        W40017   1.171  18.135  14.094 -0.0722 -0.0029  0.1416
21164W        W40018   4.955   2.461  14.465  0.0426 -0.0808  0.0020
21165W        W40019   8.922  15.161   1.517 -0.0295  0.1319  0.0312
21166W        W40020  16.931   3.441   0.628 -0.2115  0.2438 -0.2719
21167W        W40021  11.607  17.654   5.022  0.3721 -0.3601 -0.1839
21168W        W40022  13.885  11.748  14.884 -0.0371  0.1677  0.0064
21169W        W40023  11.532  16.355  13.792 -0.2779 -0.1337  0.1245
21170W        W40024  17.690  11.537  10.950 -0.0303  0.1503  0.0354
21171W        W40025  17.229  12.751   0.980  0.1666  0.0861  0.1347
21172W        W40026  13.110   8.713   2.309 -0.1698 -0.0965 -0.0156
21173W        W40027   8.625   3.177   2.988 -0.0772  0.0761 -0.3340
21174W        W40028  17.505   2.417  11.663  0.1491 -0.3311 -0.1005
21175W        W40029   6.715   8.869   4.195  0.0805  0.2168  0.0166
21176W        W40030   5.468   9.295   1.973  0.1570  0.1575  0.2294
21177W        W40031   6.091   3.472  14.701 -0.1248 -0.4790 -0.1303
21178W        W40032   6.964  14.274  14.774  0.1315  0.1804  0.1455
21179W        W40033   8.963   5.711   0.743  0.3283  0.1532  0.2085
21180W        W40034   7.781   8.036   2.592 -0.0615  0.0427 -0.1056
21181W        W40035  14.488  18.347   0.223 -0.0806  0.1672  0.2000
21182W        W40036   2.650   7.927   3.065 -0.1082 -0.2352  0.4579
21183W        W40037   3.322   3.012   3.171 -0.0062 -0.1395 -0.0300
21184W        W40038   8.239  14.185   1.215  0.0054  0.2136  0.2018
21185W        W40039   7.743  17.810  14.365 -0.1064  0.2750  0.1259
21186W        W40040  12.454  16.941   5.150  0.1127  0.1145  0.1601
21187W        W40041  15.620   0.286   3.177  0.0728 -0.0948 -0.2903
21188W        W40042   7.261   8.896  12.212 -0.2876  0.0478 -0.1852
21189W        W40043   6.263   0.591  13.008  0.1673  0.1032 -0.0861
21190W        W40044  12.137   3.870  14.355 -0.1357  0.4750  0.2697
21191W        W40045   9.909   0.371  15.162  0.1418 -0.3246 -0.2015
21192W        W40046   0.977  10.190   2.401 -0.3322 -0.0664  0.1377
21193W        W40047  11.298   7.218  12.196 -0.0631  0.0397  0.0777
21194W        W40048   8.164  11.292  10.942 -0.0004  0.0261 -0.1298
21195W        W40049   2.144  15.793  10.888  0.1386  0.0230 -0.0494
21196W        W40050   3.155  16.700   3.423 -0.0893  0.0985 -0.0736
21197W        W40051  13.800   5.470  14.804  0.2862 -0.0273  0.2129
21198W        W40052   3.555  18.254   1.559 -0.1207 -0.0365  0.2220
21199W        W40053  18.043  16.106  13.942  0.0405  0.0312 -0.2794
21200W        W40054  17.296  14.963   3.036  0.1036  0.0666  0.2928
21201W        W40055  14.585  16.492   4.515 -0.1402  0.0388  0.1357
21202W        W40056   4.858  16.344  11.158 -0.1840 -0.1061 -0.2579
21203W        W40057   9.737   5.186  11.789  0.0597  0.1370 -0.4615
21204W        W40058  17.091  11.072   3.057  0.3314  0.1736  0.3616
21205W        W40059  13.478  15.067  11.169 -0.2429 -0.2539 -0.2002
21206W        W40060   3.277  16.399   4.044  0.0132  0.0107  0.2422
21207W        W40061   0.533   6.987   1.733 -0.1245  0.1044 -0.0277
21208W        W40062   7.992   6.150  12.116 -0.3106  0.1293 -0.0320
21209W        W40063   0.003  15.425  10.519  0.2321  0.0022  0.0247
21210W        W40064   6.944  15.707   4.523  0.1347 -0.1155 -0.0330
21211W        W40065  13.592  11.008   1.237 -0.0476 -0.1836 -0.0274
21212W        W40066  11.867  14.141  14.747 -0.0612  0.1528  0.1603
21213W        W40067  11.216   4.771  14.097 -0.2882  0.0138  0.0763
21214W        W40068  12.660   5.475   4.268 -0.0600 -0.1952 -0.2841
21215W        W40069   5.455  13.098   2.248  0.0327  0.1232 -0.1728
21216W        W40070   1.852   4.015  14.209 -0.0254  0.0153 -0.2504
21217W        W40071   3.727   7.981   1.132 -0.0216  0.0536 -0.1011
21218W        W40072  17.537   9.161  11.819 -0.4283  0.1411  0.2848
21219W        W40073   4.743   6.744   3.966 -0.0162 -0.4038  0.0188
21220W        W40074  10.521   5.210   1.092 -0.1851  0.1982 -0.3603
21221W        W40075  14.318  16.414   0.332  0.0907  0.1603  0.1042
21222W        W40076  13.670   6.408   2.253 -0.1740  0.4884  0.3241
21223W        W40077   3.911  12.911   1.992 -0.0121  0.1156 -0.2729
21224W        W40078   3.868  15.058  11.779  0.4150  0.0227 -0.0814
21225W        W40079   1.247  15.257   1.583 -0.1503 -0.0858  0.0333
21226W        W40080   8.839  16.092   1.993 -0.0553 -0.2473  0.3390
21227W        W40081   2.256  10.579   2.165 -0.1026 -0.1139  0.0379
21228W        W40082   7.251   3.839   2.087  0.0120 -0.1707 -0.2813
21229W        W40083  10.230   5.889   3.945 -0.1760 -0.1514 -0.2810
21230W        W40084  18.487  12.190  12.944 -0.1162 -0.0127 -0.1866
21231W        W40085  11.010   4.173   4.170  0.1669  0.1695 -0.1949
21232W        W40086  13.424   7.004  15.299 -0.0067  0.1028 -0.0962
21233W        W40087  14.188   6.621   2.368 -0.3448  0.0574 -0.1005
21234W        W40088   5.623   2.915  15.369 -0.1142  0.2009 -0.1454
21235W        W40089   6.371   2.993   3.280 -0.0476  0.0480  0.0075
21236W        W40090   7.565   1.017   1.695 -0.0985  0.1246  0.1195
21237W        W40091  17.306   4.990   3.135 -0.2896  0.1884  0.2850
21238W        W40092  14.279   7.594   0.569 -0.0317  0.1508 -0.0246
21239W        W40093   4.178  10.083  13.170  0.1111 -0.2376  0.2256
21240W        W40094  14.165  15.542  12.086  0.0619 -0.0343 -0.0798
21241W        W40095   8.815   9.350  15.457 -0.1997  0.0916  0.3276
21242W        W40096  11.419  14.549   1.256  0.0715 -0.0754  0.1477
21243W        W40097  13.643  11.193  11.860  0.3515 -0.0484 -0.1379
21244W        W40098   5.548   9.312   0.563  0.3754  0.1252 -0.0253
21245W        W40099  15.199  11.653   4.109 -0.2189  0.1257 -0.0117
21246W        W40100   3.842   7.348  15.200  0.0273 -0.1527 -0.0878
21247W        W40101  16.366   3.634   3.214  0.2612  0.0477  0.0140
21248W        W40102  12.791   6.981   1.468  0.0575  0.1332 -0.1806
21249W        W40103  16.545  10.852   0.227 -0.1491  0.1821  0.0689
21250W        W40104  17.955   0.377  13.025  0.2680  0.2141  0.0188
21251W        W40105   5.432   4.825  11.271 -0.2113 -0.1448  0.2592
21252W        W40106   1.226   6.989  12.895  0.1993 -0.2718 -0.2778
21253W        W40107   7.560  12.586   0.821  0.1525 -0.0654 -0.0109
21254W        W40108   2.553   1.543   0.654 -0.0642 -0.1320  0.1294
21255W        W40109  14.422  10.448   3.972  0.0923 -0.0036  0.2552
21256W        W40110  12.970  15.424  12.880 -0.2059 -0.0621  0.3466
21257W        W40111   7.920  13.131  12.445 -0.1177 -0.0079  0.1911
21258W        W40112  14.878   1.694   1.953  0.1512 -0.0325 -0.1882
21259W        W40113   8.605  11.585  12.254  0.3066  0.1872 -0.0341
21260W        W40114   7.633  14.984   2.344 -0.1069 -0.0072  0.1152
21261W        W40115  13.036  16.773   4.365  0.2817  0.0434  0.1607
21262W        W40116   8.312  10.840   3.451  0.1319 -0.3269  0.1210
21263W        W40117   2.673   8.685  11.544  0.0077  0.5499 -0.0492
21264W        W40118   5.180   6.565  12.090 -0.1255 -0.3879 -0.2221
21265W        W40119  15.033  17.870   1.883 -0.0523 -0.0661 -0.0732
21266W        W40120   8.075   9.019   0.882  0.0693 -0.0447  0.2317
21267W        W40121   2.554  17.756   1.585  0.0936  0.4412 -0.2339
21268W        W40122   2.229  17.395  12.543  0.1607  0.1127  0.2050
21269W        W40123  12.649  14.370   0.435 -0.1931  0.1890 -0.4036
21270W        W40124   6.611  11.493  14.579 -0.1835  0.3130  0.0005
21271W        W40125  16.432   3.129  14.797  0.0725  0.2363  0.2096
21272W        W40126  18.294  11.975   0.656 -0.1153 -0.0290 -0.1917
21273W        W40127   2.952   1.129  15.369  0.4409  0.0612 -0.2580
21274W        W40128  17.638   0.818   1.843  0.0503  0.1253 -0.1959
21275W        W40129   8.302   3.636   4.572 -0.2235 -0.3127 -0.1572
21276W        W40130   2.524   0.024   3.217  0.0930 -0.0908 -0.2474
21277W        W40131   5.792  10.764  12.546 -0.0534  0.0427  0.0572
21278W        W40132   2.642   2.618  13.125  0.1548  0.0062  0.0830
21279W        W40133   7.054  10.739  11.706  0.1601 -0.1155 -0.0450
21280W        W40134  15.667   6.044   0.916  0.3070  0.0304 -0.0381
21281W        W40135  13.464  16.807  14.399  0.1152 -0.1773 -0.1836
21282W        W40136  11.696  16.676   1.109 -0.0403 -0.0292  0.0729
21283W        W40137   9.657  11.201  12.519  0.1260  0.3175 -0.1070
21284W        W40138   5.663  16.788   4.065  0.2368  0.0046 -0.0196
21285W        W40139   1.712  16.507  13.537 -0.0406  0.1830 -0.0563
21286W        W40140   8.419   9.467   1.164  0.1874  0.0872 -0.1619
21287W        W40141   4.752   4.576   1.197 -0.1493  0.3036  0.2384
21288W        W40142   2.755  15.767   3.642 -0.1510  0.0077  0.0617
21289W        W40143   4.073  15.092  15.113  0.0877 -0.3366  0.0865
21290W        W40144  17.286   5.548  13.988 -0.1862  0.1052  0.0492
21291W        W40145   3.012  10.564  14.250  0.4670 -0.0069 -0.1253
21292W        W40146  18.258   6.437   3.288  0.1048  0.1935  0.2645
21293W        W40147   5.111  17.156   9.938  0.1428  0.2490  0.0483
21294W        W40148   8.847  13.144   2.034 -0.3416  0.1537 -0.0599
21295W        W40149  16.544   8.132   3.994 -0.2584 -0.0190  0.1026
21296W        W40150  11.886   3.056  14.635  0.1808 -0.0683  0.3239
21297W        W40151   5.815   7.286   4.838 -0.0455  0.0028 -0.2754
21298W        W40152   2.054   3.629  11.203 -0.1416  0.0275  0.0612
21299W        W40153  17.168  14.130  12.482 -0.0156  0.1260  0.1838
21300W        W40154   9.653   9.049  15.427  0.3696  0.0442 -0.0125
21301W        W40155  10.754   6.404  13.470  0.0111  0.0402  0.1408
21302W        W40156  16.719   6.666  11.426  0.0986 -0.2039  0.2156
21303W        W40157  15.958   2.113   4.592 -0.0988 -0.0898  0.3142
21304W        W40158   2.194  15.934   2.018  0.1725  0.2388  0.2665
21305W        W40159  11.506   5.264   3.540 -0.0366 -0.1793 -0.1558
21306W        W40160   6.747  14.018   2.754 -0.2218  0.0261 -0.0260
21307W        W40161   0.468   1.155  11.602  0.1624 -0.1004  0.1421
21308W        W40162   8.318   3.016   2.526 -0.0322  0.1568 -0.1472
21309W        W40163  18.183  14.288  14.861 -0.1927  0.0512  0.0347
21310W        W40164   4.648   3.781   0.663  0.2322  0.4108 -0.0819
21311W        W40165   1.884  14.052   1.141 -0.0618 -0.3531  0.1591
21312W        W40166  12.865   0.994   1.863  0.2299 -0.1301  0.2060
21313W        W40167   0.934  18.295   3.266  0.0053 -0.1042 -0.2121
21314W        W40168  11.089  14.506   0.446 -0.0869 -0.0847  0.1355
21315W        W40169   8.091   5.689  13.649  0.1219  0.0398  0.1640
21316W        W40170   3.362  16.798   1.655  0.0869 -0.0534 -0.0646
21317W        W40171   3.332  12.184   1.740  0.2024 -0.1784  0.1121
21318W        W40172   9.870   7.532  15.385 -0.0787 -0.4197  0.1331
21319W        W40173  16.998  11.223   0.742  0.2649  0.1633 -0.2362
21320W        W40174   1.971   1.893  15.038 -0.1841 -0.4555 -0.0391
21321W        W40175  12.233  12.463   3.709  0.0728  0.0160 -0.0343
21322W        W40176   3.521  14.136  15.147  0.0934  0.0146  0.2467
21323W        W40177   4.310   3.169  15.302 -0.0906 -0.0295  0.1345
21324W        W40178   2.586  13.046  12.488 -0.1072 -0.0534 -0.3647
21325W        W40179   3.873   4.377  13.862 -0.2648  0.2244  0.3217
21326W        W40180  12.390   2.848  14.564  0.1484  0.0545  0.2039
21327W        W40181  15.242   0.154   0.631 -0.0017  0.0927  0.1301
21328W        W40182   8.973  11.183   1.310  0.0589  0.2066 -0.4321
21329W        W40183   5.883   7.401  14.896 -0.0100  0.1643 -0.0566
21330W        W40184   2.479  14.858  14.943  0.4315 -0.1366  0.1781
21331W        W40185  14.953   1.405   0.176 -0.2734 -0.0206  0.1377
21332W        W40186   7.156  16.227   2.584 -0.0081 -0.1471  0.1297
21333W        W40187  17.335   7.870  14.170  0.0891 -0.2847 -0.2412
21334W        W40188  16.589   7.147   1.636 -0.1172  0.0897  0.0882
21335W        W40189   7.023  16.714   2.412 -0.1544  0.0955 -0.1595
21336W        W40190   6.057   4.433  11.840 -0.4740  0.2985 -0.1317
21337W        W40191   2.515   7.119  11.973  0.2869  0.0619  0.1222
21338W        W40192  13.107   8.118   2.030 -0.0632 -0.1834 -0.4586
21339W        W40193   6.607   8.820   4.745  0.1971 -0.1515  0.2687
21340W        W40194   6.598   5.076   3.959  0.4500  0.4155  0.2024
21341W        W40195   0.082  11.747  14.145 -0.1134 -0.0942 -0.1493
21342W        W40196   2.608  16.977   3.993 -0.1470 -0.0987  0.3223
21343W        W40197  12.514  13.947   4.284  0.1868 -0.0401 -0.3230
21344W        W40198   8.139   8.446   0.675  0.1338  0.1524 -0.0459
21345W        W40199   6.803  14.366  10.345  0.0111 -0.1106 -0.2789
21346W        W40200   3.533   3.781  12.096  0.0614 -0.1400  0.0135
21347W        W40201   5.192   7.604  15.172 -0.0483 -0.2173  0.2803
21348W        W40202   6.941   1.071  11.359 -0.0401  0.1627 -0.0717
21349W        W40203   4.715  13.481  10.078 -0.1881  0.0744 -0.0260
21350W        W40204   6.721   3.963   3.076 -0.4733  0.4189  0.1073
21351W        W40205  16.853   1.094   1.290  0.0095  0.2727  0.0006
21352W        W40206  10.941   2.936   1.119  0.2766  0.1710 -0.1547
21353W        W40207   4.528   8.350  13.783 -0.2004 -0.2785 -0.1162
21354W        W40208   6.358   2.831   0.285 -0.2400  0.0515  0.1316
21355W        W40209   7.344   3.031   2.313 -0.1071  0.0871  0.0662
21356W        W40210  11.922   0.980  13.850  0.1019  0.2657 -0.2732
21357W        W40211  17.059   8.391   4.238  0.0401 -0.2824 -0.3486
21358W        W40212  16.983  14.950  10.996 -0.2774  0.2871  0.3517
21359W        W40213  11.871   4.078   1.611 -0.0328  0.2679  0.0895
21360W        W40214  14.220  11.905  12.229 -0.1938  0.1240 -0.0980
21361W        W40215   5.425   5.408   0.864 -0.0115  0.0956  0.1910
21362W        W40216   2.187   1.229   0.606  0.1560 -0.2167  0.1688
21363W        W40217  14.397  12.529   3.431  0.2598  0.5334  0.0523
21364W        W40218   6.652  17.569   4.129  0.0674  0.0515  0.2666
21365W        W40219   7.331   1.051  11.651 -0.1692  0.0475 -0.0694
21366W        W40220   2.467  18.274  12.188 -0.1674 -0.1692 -0.0658
21367W        W40221   8.324   2.021   3.330 -0.0019 -0.2254  0.0121
21368W        W40222  18.324   1.888   1.440  0.0864 -0.1094 -0.1617
21369W        W40223   4.863   9.220  13.782  0.2495  0.0584 -0.0908
21370W        W40224  17.960   7.529  15.079  0.1902 -0.0357 -0.2879
21371W        W40225   0.980  16.345   2.402 -0.1301  0.0016  0.1684
21372W        W40226   1.113   8.244  11.831  0.1694  0.1395 -0.1109
21373W        W40227  14.395   7.366  13.223  0.0059  0.1084  0.0562
21374W        W40228   9.224  14.623  15.089 -0.0295 -0.0469  0.0139
21375W        W40229  16.930   1.579  14.959  0.1279 -0.1144  0.1275
21376W        W40230  17.293  14.727   3.510 -0.1581 -0.1080 -0.1697
21377W        W40231  11.179   3.460   3.523  0.0828  0.1967  0.2883
21378W        W40232   6.596   6.325   0.656 -0.0230 -0.0843 -0.1814
21379W        W40233   9.833  15.641   0.879 -0.1266 -0.1848 -0.0047
21380W        W40234   3.977   7.693  14.844 -0.1520 -0.2034  0.0047
21381W        W40235   2.814  11.440  12.669  0.1589  0.3323  0.1695
21382W        W40236   1.299  13.459  12.904 -0.0336 -0.0206 -0.1853
21383W        W40237   1.406   2.447   4.637  0.1110 -0.1107 -0.1159
21384W        W40238   9.447  10.884   3.238  0.2302  0.1651 -0.2508
21385W        W40239   1.653  17.009  15.279 -0.3551  0.1246 -0.1944
21386W        W40240  12.045  12.618   4.340  0.0448  0.1058 -0.1189
21387W        W40241   2.380  16.133  11.955 -0.1265  0.2571 -0.0704
21388W        W40242  15.518   9.441  11.864 -0.3162  0.0410 -0.2215
21389W        W40243   2.216  11.014  11.059  0.0262 -0.3143  0.0263
21390W        W40244  11.349   4.597   5.145 -0.1253 -0.0106 -0.2236
21391W        W40245  16.870  15.334   4.737 -0.2191 -0.2907 -0.0488
21392W        W40246   5.413  13.378  11.841  0.0414  0.2979 -0.0107
21393W        W40247   6.023   5.660  11.343  0.0498 -0.0548  0.1324
21394W        W40248  14.253  12.840   3.945  0.1736  0.0895  0.0447
21395W        W40249   9.880  18.189  14.164  0.0534  0.3388  0.2711
21396W        W40250   8.582  12.937  11.804  0.0377  0.2936 -0.2802
21397W        W40251   6.252   6.996   2.291  0.1903 -0.0616  0.0460
21398W        W40252   5.679   3.458   3.030  0.1713  0.1225 -0.3565
21399W        W40253  14.612   3.143   0.934 -0.0030 -0.0588  0.1969
21400W        W40254  10.173  13.460  12.561 -0.1646 -0.2003 -0.0049
21401W        W40255  18.260   4.466   2.383  0.1443 -0.1531 -0.0021
21402W        W40256   8.612  16.694   4.689 -0.2042  0.2592  0.1244
21403W        W40257   2.797   1.592  10.793 -0.0896  0.0717  0.0159
21404W        W40258  11.267   4.802   1.520  0.0303  0.1163  0.1373
21405W        W40259   4.749   7.270   2.468 -0.0716  0.0803 -0.0530
21406W        W40260  16.255  10.494   4.896 -0.0068  0.1660  0.0486
21407W        W40261   9.323   9.826  12.509  0.1769  0.0185  0.1683
21408W        W40262   4.542  10.324  11.280 -0.2497 -0.0014 -0.0818
21409W        W40263  11.209  10.129  11.683  0.1052 -0.4189  0.3274
21410W        W40264   0.689   4.198   2.503 -0.0142  0.2106  0.0513
21411W        W40265   4.905  12.387  12.420  0.2720  0.0050  0.2055
21412W        W40266  12.376  15.888  11.648 -0.0228 -0.1667 -0.1650
21413W        W40267  12.979  15.195  11.052  0.1146  0.1773  0.0687
21414W        W40268  14.318  13.045   3.295 -0.2338  0.2277  0.4720
21415W        W40269   1.065  16.698  14.823  0.0313  0.0096  0.0266
21416W        W40270   7.783   4.692   3.199  0.2218 -0.2741 -0.0734
21417W        W40271   9.635   3.729   4.528  0.0203  0.1177  0.0456
21418W        W40272   4.554   9.066  13.450  0.1941 -0.0179 -0.1122
21419W        W40273   4.811   8.062  15.103  0.0744 -0.0376 -0.2119
21420W        W40274   3.299  10.301   1.159  0.3327 -0.0662 -0.1233
21421W        W40275  13.382   7.529   1.047  0.2314  0.1802  0.2645
21422W        W40276  15.265  18.083   0.307 -0.0319  0.2794 -0.1367
21423W        W40277   6.080  13.094  12.435 -0.1253  0.1099 -0.1345
21424W        W40278  11.968  11.662  14.382  0.2637  0.2220 -0.1961
21425W        W40279  11.892  10.113  12.933 -0.1047  0.6330  0.1112
21426W        W40280   7.684   6.098  10.350 -0.1905 -0.1768 -0.2957
21427W        W40281   6.623  10.652   1.461  0.1282  0.0819  0.0287
21428W        W40282   7.541   0.469  13.735  0.1782  0.1673 -0.0641
21429W        W40283   0.327   6.529  11.573  0.4193  0.1286 -0.0258
21430W        W40284   5.429   6.601  14.221  0.0060  0.0694 -0.1256
21431W        W40285  11.336  15.707   3.046  0.0327  0.3319  0.1285
21432W        W40286  16.752  11.848   2.983 -0.1928 -0.0181 -0.2563
21433W        W40287   3.043  16.354  12.289 -0.0944 -0.1206  0.0667
21434W        W40288  17.166  17.149  13.568 -0.0899 -0.3252 -0.0627
21435W        W40289  16.218  10.168   0.796  0.0626 -0.3679 -0.0834
21436W        W40290  17.166  15.902   1.700  0.0149  0.0776  0.3187
21437W        W40291   0.213  11.444  14.826 -0.0115  0.3605 -0.0084
21438W        W40292  10.647   9.329   1.410  0.0333  0.3399  0.0344
21439W        W40293  12.784   7.555  13.593 -0.2417  0.0101  0.1964
21440W        W40294   1.672   6.028  13.333 -0.0871  0.1008  0.1372
21441W        W40295   8.952  13.897   3.888 -0.1492  0.1948  0.3223
21442W        W40296  10.273   5.247  11.711 -0.1625  0.3102 -0.0070
21443W        W40297  14.753  15.898   1.910  0.2559  0.1041 -0.2744
21444W        W40298  18.074  14.851  11.932  0.1455 -0.2072 -0.1683
21445W        W40299   2.241   4.170   3.897 -0.1763  0.0025 -0.0052
21446W        W40300   8.602  17.384  11.473 -0.2512  0.1635 -0.0002
21447W        W40301   0.334   1.894   3.996  0.0209  0.0310  0.3111
21448W        W40302   0.509  10.257   2.157  0.1520  0.0272  0.1168
21449W        W40303  15.717   2.239  11.411  0.0340 -0.0332 -0.3391
21450W        W40304  15.262  10.739   0.865 -0.1903  0.1091 -0.1798
21451W        W40305  14.223  10.145   2.904  0.1857 -0.0594  0.0241
21452W        W40306   2.795  11.506   2.329  0.2105  0.0697 -0.2060
21453W        W40307   4.613   8.168   3.404  0.1861 -0.0337  0.1579
21454W        W40308  12.405  11.713  10.356 -0.1507 -0.0514 -0.0923
21455W        W40309  15.478   5.172   0.443 -0.2822  0.2803 -0.2381
21456W        W40310   4.150  12.418   4.078 -0.2947  0.0622  0.2749
21457W        W40311   7.621  12.537   4.000 -0.0548  0.1222 -0.1281
21458W        W40312   4.869   2.975   5.137 -0.1469  0.0356  0.1574
21459W        W40313   5.699   0.233  11.458  0.2369  0.0934 -0.4946
21460W        W40314  15.890   2.223  14.367  0.2105  0.3255 -0.1292
21461W        W40315   6.778  11.834  14.921  0.0334 -0.4698  0.2196
21462W        W40316  15.388  10.416   1.213 -0.1722  0.2851 -0.1631
21463W        W40317   5.640   8.106   3.775 -0.0370  0.1771  0.1480
21464W        W40318   0.509   1.853   2.590  0.1228 -0.0976  0.1512
21465W        W40319  11.407   5.801  10.101  0.1203  0.0108 -0.1924
21466W        W40320  17.829  16.840  12.079 -0.0498 -0.0581  0.0167
21467W        W40321  16.853  16.650  10.974  0.2217  0.2920  0.0319
21468W        W40322  15.549  13.457   2.023 -0.0837  0.0683  0.0312
21469W        W40323  16.639   2.689  12.859 -0.1625 -0.1029 -0.1901
21470W        W40324  16.982  11.454  14.740  0.1342 -0.1316  0.2239
21471W        W40325  14.250   1.677  13.657  0.0741 -0.2127  0.4044
21472W        W40326  15.469   1.550  11.036 -0.2112  0.2780 -0.1063
21473W        W40327  12.786  15.853   0.269 -0.2099 -0.3009 -0.1213
21474W        W40328  17.157  12.523   2.685 -0.1613 -0.0848 -0.0302
21475W        W40329   8.056   4.546  11.239 -0.0035 -0.0695 -0.1784
21476W        W40330  12.322   3.457   5.659 -0.0416  0.0234  0.1760
21477W        W40331   0.284   8.342   2.259 -0.0761  0.1741 -0.0146
21478W        W40332  17.866  15.982  11.280  0.1998 -0.0525 -0.0988
21479W        W40333  17.911  16.499   0.928  0.0259  0.1065 -0.1637
21480W        W40334  16.802  16.989   0.604 -0.0067 -0.1437 -0.0383
21481W        W40335  12.859   4.260  12.358 -0.0148 -0.0337 -0.1240
21482W        W40336  13.791  14.981  14.529 -0.1740 -0.0538 -0.1207
21483W        W40337  12.623   8.457   3.159 -0.0641  0.1518 -0.1590
21484W        W40338  15.400  14.911   2.897  0.1268 -0.2409 -0.2485
21485W        W40339  18.107   4.409  14.039 -0.2354 -0.4666 -0.2120
21486W        W40340   8.210  11.741   1.368 -0.2255 -0.1946 -0.0867
21487W        W40341  10.987  16.031   4.878  0.1458 -0.1864  0.2544
21488W        W40342   3.830   7.950  12.242 -0.3071 -0.1581 -0.2061
21489W        W40343   9.215  11.595  15.372  0.0043  0.1317  0.1999
21490W        W40344   9.067   1.456   2.249  0.1728 -0.1407 -0.3349
21491W        W40345  12.705   3.969   4.494 -0.2165  0.3189 -0.2050
21492W        W40346  18.328  13.471   1.332  0.2523 -0.1645 -0.1750
21493W        W40347   7.125  13.694  13.975 -0.1254  0.1623 -0.2222
21494W        W40348  17.408  12.359   4.936 -0.1992 -0.0438 -0.1335
21495W        W40349   8.318   6.979  13.147 -0.1272  0.0877  0.0060
21496W        W40350  15.757   9.402  13.424  0.3045  0.2601  0.0204
21497W        W40351   4.441   3.148  13.114 -0.0650  0.1324  0.3075
21498W        W40352  10.214   9.883  11.975 -0.2313 -0.1510 -0.1582
21499W        W40353   7.344  16.966   2.049 -0.2557  0.1852 -0.4317
21500W        W40354  10.846  13.056   2.680 -0.0446 -0.0497  0.1437
21501W        W40355  16.406   7.899   1.270  0.1517  0.0636 -0.1875
21502W        W40356   9.636   3.863  14.422 -0.1920 -0.4410 -0.1663
21503W        W40357   1.520   6.220  12.323 -0.2767 -0.1446  0.2678
21504W        W40358  15.526  18.438   4.222  0.1672 -0.1687 -0.3065
21505W        W40359   3.143  10.698  11.495  0.2461 -0.0086  0.2563
21506W        W40360  13.968  11.642  12.575 -0.2630  0.0312 -0.0935
21507W        W40361  11.611   0.298   1.419 -0.1607 -0.2543 -0.0647
21508W        W40362   8.227  17.096   1.813 -0.1651  0.0752 -0.0431
21509W        W40363  14.855  11.167   3.727 -0.0557  0.3467  0.0521
21510W        W40364   4.038  14.655  14.727  0.2410 -0.0371 -0.2247
21511W        W40365   6.905  15.737   3.699  0.0131 -0.1079  0.0695
21512W        W40366  16.748   8.203  13.808 -0.2153 -0.0271 -0.1679
21513W        W40367   4.356   4.175  13.078 -0.0741  0.0641  0.2520
21514W        W40368   5.372   7.065  11.952 -0.0445  0.1046  0.0383
21515W        W40369  14.495   6.907   2.595 -0.2701  0.1762 -0.1137
21516W        W40370  12.561  14.913   4.655  0.0185  0.1339 -0.1124
21517W        W40371   7.999   3.540   1.827 -0.0117  0.0097 -0.2705
21518W        W40372  14.064  17.389  15.419  0.1908  0.0465 -0.1752
21519W        W40373  14.220   6.357   4.934  0.0862 -0.0775 -0.3442
21520W        W40374   7.314  17.686   0.583  0.1705  0.1711 -0.1305
21521W        W40375   5.649   6.684   1.593 -0.0355  0.1045  0.3685
21522W        W40376   4.864   1.962  10.926 -0.0269  0.2003 -0.2007
21523W        W40377  17.828  10.896  13.898 -0.0782 -0.1849 -0.1396
21524W        W40378  13.817  18.312  11.160 -0.0505  0.0799 -0.1588
21525W        W40379  14.677   7.256  15.267 -0.1488  0.0532 -0.4847
21526W        W40380   9.163  14.579  12.585 -0.0727  0.0333 -0.0258
21527W        W40381   9.898   3.592  12.671  0.0191  0.0524 -0.2233
21528W        W40382   6.909   9.624  11.179  0.0357  0.2677 -0.2414
21529W        W40383  16.182   8.606   3.960  0.2052  0.2657  0.2986
21530W        W40384   4.253  16.135  12.016 -0.2367 -0.0288  0.1810
21531W        W40385   1.540  10.677   3.782 -0.0527  0.0749 -0.2490
21532W        W40386   2.010   7.364  11.637 -0.1036 -0.0015 -0.0084
21533W        W40387  15.620   7.940   0.665 -0.1960  0.2237  0.1356
21534W        W40388   0.979   8.170  12.330 -0.1961 -0.1666  0.0300
21535W        W40389  17.431   4.569   3.456  0.2524 -0.0302 -0.2086
21536W        W40390   6.474   7.802   2.131  0.1163  0.0680  0.0613
21537W        W40391  18.095   5.580  12.688  0.1378  0.2692 -0.1114
21538W        W40392   4.142   2.517   0.274  0.0258 -0.2940 -0.0616
21539W        W40393   3.868  16.724   3.362 -0.0446 -0.1549 -0.1092
21540W        W40394   0.655   9.902   2.719 -0.0935 -0.1071  0.0813
21541W        W40395  11.468   4.703   2.256  0.3236 -0.1103 -0.4262
21542W        W40396   9.795  10.879   1.488  0.1562 -0.1430  0.3298
21543W        W40397  18.479   2.713  11.717 -0.0590 -0.0461 -0.1494
21544W        W40398   9.622   2.444   4.824  0.1325  0.2677  0.1163
21545W        W40399  17.347  11.843  12.207 -0.2347  0.2449 -0.0188
21546W        W40400  14.146   4.817   3.603 -0.0878  0.2200  0.3652
21547W        W40401   3.260  18.425  14.363 -0.0698  0.3334  0.1431
21548W        W40402  18.089  10.675  11.696  0.0140 -0.0497  0.1176
21549W        W40403   1.941   5.221   2.406  0.0543 -0.0885  0.1829
21550W        W40404   5.003   8.030   4.786  0.1167 -0.1450  0.1570
21551W        W40405   0.187  14.244   4.345  0.0985 -0.0596 -0.0255
21552W        W40406   2.301   7.338   2.226  0.0102  0.0559  0.1620
21553W        W40407  17.953  16.447  11.111  0.1002  0.4177  0.1975
21554W        W40408  13.156  13.985   5.072  0.0966 -0.0905 -0.0899
21555W        W40409   1.100  15.103  15.067  0.1288  0.2531 -0.1441
21556W        W40410   8.606   0.734   2.686  0.0417  0.3165 -0.4068
21557W        W40411  16.200   4.998  11.955  0.0697  0.0099  0.0112
21558W        W40412   8.222   5.698   3.800 -0.2675  0.0059  0.0157
21559W        W40413  17.142   1.892  12.858 -0.1756 -0.0523  0.0350
21560W        W40414   5.031   7.437   1.092 -0.0056  0.5395 -0.1474
21561W        W40415   2.843  11.032  14.205 -0.1039 -0.0020 -0.2271
21562W        W40416  11.617   1.534  15.452  0.1676  0.2446 -0.4063
21563W        W40417  12.717   5.201  13.322  0.1301 -0.0920 -0.1301
21564W        W40418  17.224  11.017  13.951  0.0952  0.0736  0.1568
21565W        W40419   1.179  14.607  11.352  0.2176  0.0652  0.1270
21566W        W40420  17.104  11.520   2.280  0.0064  0.3661 -0.2437
21567W        W40421  17.092  10.003  10.041 -0.0052  0.0873 -0.0897
21568W        W40422  10.164   6.487  10.348  0.0471 -0.0596  0.3812
21569W        W40423   5.153  14.079   2.480  0.1091 -0.0257 -0.0695
21570W        W40424   6.142   3.261  11.008  0.0480  0.0022  0.0501
21571W        W40425   6.948   0.505  15.029 -0.0473  0.3855  0.0838
21572W        W40426  12.074  10.035  13.718  0.3685 -0.1312 -0.2756
21573W        W40427   1.110  11.214   5.396  0.0656  0.1159  0.1598
21574W        W40428   7.918   8.645   1.128 -0.0246 -0.1557  0.2007
21575W        W40429   9.980  15.832  11.118 -0.1105  0.1620  0.3760
21576W        W40430  11.923  12.045   0.720 -0.0048  0.0412  0.1981
21577W        W40431   4.208  12.801   4.576 -0.3852  0.0729  0.1548
21578W        W40432   2.768   1.409  15.008  0.1814  0.1644  0.1205
21579W        W40433  17.479   8.219  12.035  0.0832 -0.0902  0.0786
21580W        W40434  14.288   8.925   2.795  0.0097  0.2380 -0.0559
21581W        W40435   7.772  16.347   0.014 -0.0967  0.0990  0.0778
21582W        W40436  13.353   6.923  12.290  0.1293  0.1011  0.1910
21583W        W40437   3.817   6.884   2.200  0.2257 -0.0973  0.0341
21584W        W40438   9.574  13.023   2.728  0.3672 -0.4170  0.0408
21585W        W40439  15.640   1.906  13.807 -0.0133  0.0241  0.1092
21586W        W40440  13.150  12.726  15.203 -0.0107 -0.2534  0.1242
21587W        W40441   3.554   9.017   2.171 -0.0038 -0.2115 -0.1049
21588W        W40442   0.257  14.079  12.567 -0.1822  0.1256  0.0216
21589W        W40443   8.420  10.749   0.145 -0.0801 -0.0724 -0.0879
21590W        W40444  17.252  11.362  10.786  0.3653 -0.1325  0.4446
21591W        W40445   8.887   1.748  12.665 -0.0289  0.1571 -0.0169
21592W        W40446  12.263  18.447   3.930  0.1388  0.0746  0.3018
21593W        W40447   0.022   3.452   4.312 -0.0837  0.2960  0.2831
21594W        W40448   8.122  17.860  13.935  0.0196  0.1449 -0.0481
21595W        W40449   0.707   5.486  15.112 -0.1512  0.1058 -0.2296
21596W        W40450  15.473  13.940  14.649  0.1679 -0.3909 -0.0380
21597W        W40451   6.927   2.670   1.476 -0.4447 -0.0810 -0.0124
21598W        W40452   8.777   7.852   0.646  0.0494  0.1701 -0.2145
21599W        W40453   7.100   3.249  14.707 -0.0237 -0.1855 -0.0374
21600W        W40454   9.179   6.885  11.784  0.2331 -0.0453  0.2058
21601W        W40455  15.343   2.987  14.666 -0.3198  0.1772  0.1072
21602W        W40456   7.575   4.864  12.133 -0.1221  0.3509 -0.1895
21603W        W40457   0.992  13.803   3.282 -0.0815 -0.2330  0.0405
21604W        W40458   8.406  14.741   5.257 -0.0764 -0.3028  0.0848
21605W        W40459   7.726  11.274   4.557  0.0511 -0.3232 -0.1219
21606W        W40460   1.560  14.503   2.686 -0.0632 -0.2493  0.2320
21607W        W40461   6.683   1.640   4.142  0.0113  0.0445  0.0550
21608W        W40462  14.934   2.766  12.872 -0.0859  0.2037 -0.1702
21609W        W40463  18.505  11.665  15.127  0.1377 -0.1530 -0.0006
21610W        W40464   5.251  10.613   0.630 -0.0486  0.0519  0.2962
21611W        W40465   6.255   8.277   1.371 -0.1475  0.0906  0.0978
21612W        W40466  14.644   4.168  13.644 -0.0323 -0.0760 -0.0602
21613W        W40467  12.087   7.023  11.765  0.0323  0.0626 -0.1194
21614W        W40468   8.572   3.028  11.976  0.3289  0.0988  0.0999
21615W        W40469   0.805   0.344  10.906 -0.1463 -0.1528 -0.1154
21616W        W40470  12.374   6.236  11.429 -0.0422  0.2462 -0.0096
21617W        W40471   2.353   6.028  12.771 -0.0195 -0.3024 -0.0046
21618W        W40472  16.775  11.973  15.045  0.1137 -0.1689  0.1131
21619W        W40473   6.015   9.423  11.904  0.0700  0.3598  0.1968
21620W        W40474   0.748   5.448   4.212  0.1066  0.0933 -0.0699
21621W        W40475   5.380   7.539   3.998 -0.1159  0.0748  0.1459
21622W        W40476  14.983   1.693  11.731 -0.1453  0.1551  0.0840
21623W        W40477   1.898   9.794   0.359 -0.3478  0.1233  0.0748
21624W        W40478  12.264   1.336  14.732  0.3646  0.1644  0.0331
21625W        W40479  11.937   7.315   3.421 -0.0303 -0.1228  0.1159
21626W        W40480  15.103   6.444  13.084 -0.2895  0.0706 -0.1422
21627W        W40481  17.816   2.492  10.861 -0.1374 -0.2639  0.2202
21628W        W40482  13.337   3.972  12.541  0.1032 -0.0325 -0.1912
21629W        W40483   8.221   4.028  13.409  0.1466  0.0515  0.1011
21630W        W40484  18.418  16.904  14.055 -0.1889 -0.1126 -0.3332
21631W        W40485  17.242   5.688  14.915  0.0552 -0.0363 -0.0812
21632W        W40486   9.117   3.574   0.857 -0.0298 -0.0372 -0.0229
21633W        W40487  10.944   5.000  15.077  0.0735  0.0354 -0.0420
21634W        W40488  17.478   4.479   1.609 -0.0729 -0.0012  0.0071
21635W        W40489  11.569  17.833   3.879  0.0347  0.3432 -0.3196
21636W        W40490   9.676  10.644  13.384  0.3388  0.2874 -0.1959
21637W        W40491  16.536   8.568   2.755  0.1283 -0.1694  0.1916
21638W        W40492  11.093   2.901   4.462 -0.0478 -0.1174  0.1291
21639W        W40493  14.171   1.776  14.266  0.0475  0.1896  0.0464
21640W        W40494   7.093   0.209  13.621  0.0827 -0.2594  0.0136
21641W        W40495  15.686   3.007   3.416  0.0211 -0.1460  0.1164
21642W        W40496  13.091  14.833   3.272  0.0392  0.1069 -0.5010
21643W        W40497  11.097  10.323   2.002 -0.0780  0.2057  0.1199
21644W        W40498  17.214  10.639  11.356  0.0675 -0.2864  0.2751
21645W        W40499   7.180  15.130   2.166  0.3740  0.2250 -0.1435
21646W        W40500  16.985   8.888  11.001 -0.1029 -0.3325 -0.0712
21647W        W40501  12.638   4.958   2.447 -0.5883 -0.2130  0.0038
21648W        W40502  10.135  15.769  14.857  0.1268 -0.0750  0.0596
21649W        W40503  17.124   4.319  10.515  0.0368  0.0274 -0.2072
21650W        W40504   3.555   3.219   0.265  0.0664 -0.2971  0.0195
21651W        W40505  17.886   4.310   3.553 -0.0232  0.0786  0.0926
21652W        W40506   1.022  15.937   3.657 -0.3781  0.3415  0.3293
21653W        W40507   8.540  15.981  13.609  0.1811  0.1188 -0.0297
21654W        W40508   1.144  11.837   0.690  0.0044 -0.0892 -0.1275
21655W        W40509  12.474  10.377   0.561 -0.1590  0.3329  0.2354
21656W        W40510   8.041   1.265   1.729 -0.1019  0.1357 -0.1932
21657W        W40511  17.974   7.965  15.440 -0.1349  0.0450 -0.0821
21658W        W40512  15.370  12.278  15.336 -0.0630  0.0399 -0.0001
21659W        W40513   7.242  15.338   3.701  0.2647  0.1367  0.3390
21660W        W40514   9.334   4.847  11.673  0.0769  0.0209 -0.0597
21661W        W40515   9.791   1.802  13.896 -0.0596  0.0313  0.0891
21662W        W40516   5.461  12.559   4.770  0.0370 -0.0391 -0.0052
21663W        W40517   7.291   2.505  14.236 -0.0709  0.3152 -0.3965
21664W        W40518  11.945  16.174  12.538 -0.0009 -0.0581 -0.1174
21665W        W40519  12.358   2.369  14.664 -0.1297 -0.0297 -0.1485
21666W        W40520   5.956  15.145  11.076 -0.0066 -0.1451 -0.0140
21667W        W40521   0.955   0.461   0.230  0.0029  0.1351  0.2034
21668W        W40522   7.491  16.165  13.768 -0.0720 -0.1208 -0.0918
21669W        W40523   8.897   7.451   1.978 -0.1154 -0.2399 -0.1377
21670W        W40524  15.404  17.959  12.633  0.0837  0.2970  0.2549
21671W        W40525   5.254   9.494  12.462 -0.0259 -0.1617 -0.4234
21672W        W40526   7.652   0.087   3.732 -0.1739 -0.1491  0.1083
21673W        W40527  11.837   3.913  15.366 -0.2300  0.0597  0.1189
21674W        W40528   7.309  16.809   0.406 -0.0128  0.2727 -0.2511
21675W        W40529   8.201   0.659  11.827  0.1782  0.2254  0.0562
21676W        W40530  11.211  13.126  11.611  0.2852 -0.2620  0.0052
21677W        W40531   3.082   5.409  15.338 -0.1068 -0.2137 -0.1578
21678W        W40532  15.000   4.944  12.903 -0.0268 -0.0795 -0.1428
21679W        W40533   7.373  10.098  12.912 -0.1360 -0.3222  0.3010
21680W        W40534   5.057  12.768   0.164 -0.1415  0.1495  0.1353
21681W        W40535   9.483   7.365   1.097 -0.2311 -0.1394 -0.1011
21682W        W40536   6.912  15.270  14.864 -0.0163  0.1181  0.0235
21683W        W40537   5.497   9.776  14.405  0.2387 -0.0403 -0.0339
21684W        W40538  12.512  12.528   4.161 -0.0218  0.0725 -0.0903
21685W        W40539  15.227   5.740  14.587  0.2005 -0.0476 -0.3166
21686W        W40540  11.386  18.253   3.673  0.0303 -0.2369 -0.0677
21687W        W40541   4.484  18.051   3.506  0.2313  0.1301 -0.3306
21688W        W40542   9.131   4.701  15.191 -0.3082 -0.0651  0.0581
21689W        W40543   6.776  12.941   2.661  0.0903 -0.3559 -0.1028
21690W        W40544   8.139  16.520  12.209 -0.1315  0.3217  0.0466
21691W        W40545  15.151  16.242   2.012  0.0934  0.2739  0.0988
21692W        W40546  12.313   0.467  14.033  0.0890 -0.1687  0.0501
21693W        W40547  10.446  10.526   5.490 -0.2749  0.0159  0.1785
21694W        W40548   7.117   4.259  11.932 -0.0521  0.0625 -0.0508
21695W        W40549   6.710   2.789  12.049  0.3320  0.0038  0.1417
21696W        W40550   0.508   5.430  12.071 -0.2247  0.0089  0.0315
21697W        W40551   4.622   6.694  11.303  0.0571 -0.1431  0.0445
21698W        W40552   9.304   7.133   3.364 -0.0399 -0.2949 -0.1484
21699W        W40553   9.709  17.363  13.608 -0.0970  0.0347  0.0624
21700W        W40554  17.378  17.677  14.868  0.1684  0.1052 -0.1281
21701W        W40555   8.088   3.843   2.707 -0.0949 -0.0098  0.0935
21702W        W40556   5.384   1.208   2.244  0.2456  0.1708  0.1498
21703W        W40557  10.310  14.175  13.014 -0.2165 -0.2704  0.0784
21704W        W40558   6.045  15.961   0.499  0.2990  0.2177  0.0893
21705W        W40559   7.452  14.271   1.800  0.0454  0.1542  0.0005
21706W        W40560  14.884   3.531   5.359 -0.0688  0.0203  0.0382
21707W        W40561  13.834  16.743  12.130  0.1108  0.2762 -0.0820
21708W        W40562   0.416  11.604   1.701  0.1433 -0.3629 -0.0470
21709W        W40563   7.492  14.792  12.935  0.0899  0.1666 -0.2996
21710W        W40564   4.286   3.191  14.794  0.1371  0.1279  0.0198
21711W        W40565   4.135  10.845   0.239 -0.0243  0.0686  0.0130
21712W        W40566  16.150   1.507   2.176 -0.0644  0.0046 -0.2377
21713W        W40567   7.233   1.899   3.141  0.0406  0.2413 -0.0529
21714W        W40568  13.407   7.461   0.058 -0.0073 -0.2064 -0.1679
21715W        W40569   0.016   7.078   3.436  0.0325  0.1933  0.0589
21716W        W40570   1.481   6.687  13.795  0.0258 -0.1920 -0.1879
21717W        W40571   2.689  10.464  12.252 -0.0638 -0.3222  0.0197
21718W        W40572  13.757  17.212   3.224 -0.1216  0.1211 -0.0772
21719W        W40573   0.205   1.230  13.118  0.0309  0.0796 -0.0094
21720W        W40574  12.729   2.728  14.945  0.1860  0.0707  0.1797
21721W        W40575   7.893  10.103   0.813 -0.0359  0.0487  0.0585
21722W        W40576   0.572   2.156   4.379  0.1622  0.0344 -0.1568
21723W        W40577   1.362  12.069  14.646 -0.0500 -0.1589 -0.2541
21724W        W40578   0.831   9.184  14.968 -0.1563  0.1336  0.2326
21725W        W40579   4.257  16.159  12.615 -0.3895  0.3020 -0.1468
21726W        W40580   2.213   7.549   1.709 -0.2041  0.0613  0.1869
21727W        W40581   4.344   5.421  12.705 -0.0434  0.3285  0.0506
21728W        W40582  14.433  17.687   0.939 -0.2438 -0.0861 -0.0966
21729W        W40583  17.689   5.076   2.743  0.0544 -0.2668  0.1661
21730W        W40584  17.069  16.967   0.144  0.3021 -0.1136  0.0621
21731W        W40585   0.220  13.154   1.956 -0.2540 -0.1250  0.0959
21732W        W40586   7.531   3.786   3.429  0.0619  0.0785  0.0782
21733W        W40587  14.459   0.216   3.960 -0.0618  0.2648  0.0640
21734W        W40588  15.132  16.344  12.178  0.1320 -0.0070 -0.2418
21735W        W40589   3.543  17.231  13.873 -0.1337  0.0601  0.0521
21736W        W40590  16.684   0.361  13.557  0.2367 -0.2904  0.1058
21737W        W40591   0.947   4.221  12.464 -0.1206 -0.1622  0.0153
21738W        W40592  12.005   8.027   4.076 -0.0495  0.3242 -0.1886
21739W        W40593  11.776  12.780   4.773  0.0189 -0.4482 -0.1744
21740W        W40594   2.396  15.465   2.871 -0.2174  0.2205  0.1471
21741W        W40595  15.023   6.177  14.666  0.2714  0.0461 -0.1906
21742W        W40596   9.054   2.305  11.843 -0.4751  0.1002 -0.1630
21743W        W40597   3.680  10.655  12.206  0.1658  0.0716  0.1217
21744W        W40598  17.354  14.120  11.231 -0.1354  0.0477  0.0955
21745W        W40599   1.816   2.618   1.907 -0.1810 -0.1354  0.1220
21746W        W40600  17.172  10.047   2.965  0.3090 -0.1379  0.0216
21747W        W40601   5.528  16.730  13.317 -0.2844  0.0095 -0.0044
21748W        W40602  11.263  11.481   5.272 -0.0403 -0.1683  0.0955
21749W        W40603   9.338   5.122   3.277  0.2430  0.0541  0.1503
21750W        W40604   9.885  14.219  11.154 -0.1388 -0.1039 -0.1430
21751W        W40605   2.786   0.627  15.304 -0.0092 -0.0756  0.2489
21752W        W40606   4.290   0.228  10.607 -0.0327 -0.1195 -0.0343
21753W        W40607  15.957  17.292   1.745  0.2139 -0.1371 -0.1295
21754W        W40608  17.953   3.661   2.561 -0.2724 -0.2687  0.0913
21755W        W40609   5.774   7.544  14.457  0.0175 -0.1550 -0.1902
21756W        W40610   7.632  13.435   3.882  0.1359  0.0264  0.2375
21757W        W40611  18.255   2.540   4.705  0.0076  0.0366 -0.0187
21758W        W40612   0.029   3.450   0.051 -0.3908  0.0251 -0.1363
21759W        W40613  10.664  10.791   4.461 -0.0907 -0.2807  0.1296
21760W        W40614  12.730   1.249  11.028 -0.0804 -0.0386 -0.2242
21761W        W40615   3.257   4.960  13.494 -0.0124 -0.0884  0.1441
21762W        W40616  13.609   5.367   0.721  0.0502  0.0332 -0.1043
21763W        W40617  15.949  13.852  12.343  0.0026  0.0098  0.0831
21764W        W40618   5.451  10.087   3.074 -0.0131  0.1023  0.0703
21765W        W40619   1.215   6.574   1.734 -0.0018  0.1235  0.0468
21766W        W40620   5.284  17.442   0.557  0.1474  0.1366  0.0279
21767W        W40621   1.951  10.249   1.908 -0.1383  0.2672  0.2081
21768W        W40622  12.566   2.842   0.848  0.2992 -0.2564 -0.3174
21769W        W40623   2.015  11.336  14.270 -0.0719 -0.1627  0.0319
21770W        W40624  16.976  10.583   2.962  0.0580 -0.0298  0.3123
21771W        W40625  17.406   3.291  12.746  0.0210  0.0453  0.0230
21772W        W40626  12.795   2.847   5.030  0.0812 -0.1312  0.0125
21773W        W40627   8.085   3.309  12.650 -0.2849 -0.2024  0.0999
21774W        W40628   6.543   7.247  11.449  0.1047 -0.1189  0.1876
21775W        W40629  17.064  11.623  12.870  0.0472  0.2710  0.0368
21776W        W40630   0.061   4.064   1.265  0.1916 -0.1013 -0.2509
21777W        W40631   7.061  12.061   4.450 -0.2264  0.1819  0.0797
21778W        W40632  13.361   6.745   3.429  0.1344 -0.0980 -0.1991
21779W        W40633   5.165  11.150  11.383 -0.0739 -0.1018  0.0024
21780W        W40634  10.053   8.954  15.193  0.2250 -0.0588  0.0752
21781W        W40635   4.399  14.529  12.624 -0.2075  0.1521 -0.2783
21782W        W40636  13.748   0.490  11.947  0.1633  0.1315 -0.1844
21783W        W40637  17.172  13.534  14.810  0.0390  0.0164 -0.0769
21784W        W40638  16.091  15.285  12.273  0.1327  0.0199  0.0512
21785W        W40639   7.981   6.106  12.637 -0.0734  0.0460  0.2351
21786W        W40640   6.086   3.475  12.898  0.0189  0.5512  0.3035
21787W        W40641   6.827   0.640  11.102  0.1717  0.0051  0.0430
21788W        W40642  14.065   3.534  14.224  0.2308  0.3665 -0.1331
21789W        W40643   3.766   7.769   3.133 -0.0650  0.0396  0.0498
21790W        W40644  13.099  16.408  13.493  0.0873 -0.1117 -0.0883
21791W        W40645  11.555  10.478  13.027 -0.0472 -0.2608  0.0573
21792W        W40646  11.425   2.066  13.064 -0.2069 -0.0364  0.0702
21793W        W40647  14.536  15.483   2.175 -0.0072 -0.0347  0.2827
21794W        W40648   4.232  12.423   1.969  0.2192  0.4461 -0.2537
21795W        W40649  10.183  12.894   0.655 -0.1781 -0.0499 -0.4099
21796W        W40650   4.829  15.407   1.931 -0.3641  0.2580  0.1622
21797W        W40651  13.363   4.857  13.963 -0.0102  0.1620 -0.1414
21798W        W40652   1.133  15.421  11.589 -0.0356  0.0542 -0.1188
21799W        W40653   3.779   0.610  11.838  0.3239  0.2244 -0.3093
21800W        W40654   5.911  10.935   1.315  0.3451  0.3430 -0.0170
21801W        W40655  12.886   4.548   0.730 -0.3799  0.3830 -0.2583
21802W        W40656   9.532  11.724   1.128  0.4051 -0.0932  0.1233
21803W        W40657  12.267   3.627  13.910 -0.1122  0.3130 -0.2168
21804W        W40658  12.446   6.754  12.699 -0.2148 -0.1496  0.2716
21805W        W40659   6.251  10.711  13.909 -0.5378 -0.0333  0.2947
21806W        W40660  15.700  16.369  10.023 -0.1126 -0.1422 -0.3133
21807W        W40661  10.263   1.187   3.631 -0.2237 -0.1674 -0.1507
21808W        W40662   7.881   9.529  14.412  0.0358 -0.2544  0.0050
21809W        W40663   5.516   8.029   1.707 -0.2302  0.0565  0.1900
21810W        W40664  14.486  10.955   0.189 -0.0762  0.0250  0.0847
21811W        W40665   2.819  15.891  12.210 -0.1835  0.0953  0.0123
21812W        W40666   3.881  13.922   2.914  0.0991  0.0380  0.3083
21813W        W40667   9.046  14.659   2.970  0.0876  0.1873  0.0172
21814W        W40668   1.496  12.175  12.179 -0.0014  0.0406 -0.0639
21815W        W40669   2.636   9.335   2.350 -0.1944 -0.1043  0.4603
21816W        W40670  15.006   2.603   1.972 -0.2149  0.0540 -0.0441
21817W        W40671   7.098  11.237  13.586 -0.0246  0.1955 -0.1855
21818W        W40672  11.106   6.777  14.921  0.0187 -0.1364 -0.2000
21819W        W40673  15.790   6.634   0.208 -0.0568 -0.1917 -0.4350
21820W        W40674   7.611  12.536   2.086  0.2041  0.0154  0.2634
21821W        W40675   3.119   1.362  14.160  0.0299  0.2337 -0.0476
21822W        W40676  16.884   5.829  12.021 -0.0927 -0.4993 -0.2421
21823W        W40677   3.228   3.813  13.606 -0.2908 -0.0246 -0.0609
21824W        W40678  14.075   1.242  10.918 -0.0360 -0.0029  0.0315
21825W        W40679  13.681   9.688   4.535  0.2209 -0.1320  0.2350
21826W        W40680  16.275  11.440   3.644  0.0721 -0.0362  0.1135
21827W        W40681  17.235   5.394  15.386 -0.1574  0.0154  0.1389
21828W        W40682   3.196  11.804   0.784 -0.0739 -0.3806 -0.3228
21829W        W40683   3.995   9.137   2.465  0.0070  0.2351  0.0263
21830W        W40684  13.276   3.913  11.135 -0.0164 -0.1070  0.1155
21831W        W40685   1.153   5.971  14.104  0.0335 -0.1633 -0.0568
21832W        W40686  11.942  13.671  13.880  0.0234 -0.1802 -0.0315
21833W        W40687  18.360  14.196  11.568 -0.1257  0.2415 -0.2564
21834W        W40688  16.550  16.661  12.461 -0.1098 -0.0681 -0.0325
21835W        W40689  15.986   7.659   1.193 -0.0909  0.1807 -0.1876
21836W        W40690   9.669  13.187   2.218  0.6136  0.0006  0.1265
21837W        W40691   8.975  12.765  11.403  0.1854  0.3454 -0.0530
21838W        W40692  15.054   5.951  11.913  0.0937  0.0945 -0.1716
21839W        W40693  10.309   9.081  14.766  0.2356 -0.0053  0.0808
21840W        W40694   5.056  11.881   0.290  0.4994  0.3337  0.1880
21841W        W40695  12.566  11.646   5.644  0.3218 -0.0298  0.0162
21842W        W40696   5.755   0.685  11.762 -0.1692 -0.1071 -0.2104
21843W        W40697  16.622   3.144   2.804 -0.0872  0.1021  0.2276
21844W        W40698   3.422  13.618  14.297  0.2325 -0.1934  0.0723
21845W        W40699  16.394  11.668  11.323 -0.4519  0.0728 -0.2645
21846W        W40700   9.982  16.412  12.314 -0.2042  0.0680  0.0373
21847W        W40701   3.283   8.606   2.419 -0.0869 -0.1593 -0.2062
21848W        W40702  16.283   6.657   1.767 -0.0579  0.1153  0.1381
21849W        W40703   4.612   3.646  13.630 -0.2534  0.0894  0.0133
21850W        W40704  11.897   3.757   1.989 -0.3513 -0.1517 -0.0308
21851W        W40705  18.323  11.529   5.062  0.1490  0.1500 -0.1968
21852W        W40706  13.489  15.027   2.051  0.0323  0.3438 -0.1125
21853W        W40707   4.643   0.077   0.274  0.0800 -0.2589  0.0553
21854W        W40708   7.488   8.073  13.824  0.3688 -0.0612 -0.2063
21855W        W40709   9.552  13.999  11.907  0.1048  0.0390  0.1821
21856W        W40710  10.289   8.274   2.289 -0.2051 -0.0054  0.0791
21857W        W40711   3.862   6.886  10.942  0.0154  0.1191  0.0356
21858W        W40712   7.670  15.712  11.409  0.0027  0.0875  0.0195
21859W        W40713  13.233   5.675   1.577 -0.1384 -0.2345 -0.0210
21860W        W40714  13.584  14.512  14.393 -0.1825  0.0500 -0.3685
21861W        W40715   8.539  16.614  13.130  0.1708  0.3319 -0.0303
21862W        W40716   6.986   9.619   2.794  0.1669  0.1501  0.0862
21863W        W40717   4.360   5.979  11.009  0.0919 -0.0636 -0.2668
21864W        W40718  14.490   5.272   0.348  0.0375 -0.0338  0.0893
21865W        W40719  10.817  15.102   3.497 -0.2575 -0.0666 -0.0186
21866W        W40720  11.281   0.750  15.048  0.1125 -0.2733  0.0788
21867W        W40721   4.122   0.567  13.323  0.2703 -0.1385 -0.2177
21868W        W40722   7.196  15.915  12.844  0.3049  0.0560 -0.0270
21869W        W40723   7.189  17.536  11.864  0.2061  0.0783  0.0130
21870W        W40724   9.519   3.807   0.004 -0.0780 -0.1261  0.0475
21871W        W40725   1.889   9.797   1.669  0.0252  0.1043 -0.1848
21872W        W40726  10.153  11.417   2.349 -0.2568  0.0737  0.4933
21873W        W40727  13.653   0.451  13.263 -0.2566  0.1212  0.3284
21874W        W40728  10.642   8.075   4.750 -0.1130  0.0296  0.0397
21875W        W40729   9.850   2.341  11.597 -0.1729 -0.0859  0.0785
21876W        W40730  11.937   4.484   3.183 -0.1822  0.0283 -0.1668
21877W        W40731  16.132   0.380  12.942 -0.0503  0.0839 -0.1345
21878W        W40732  18.111  18.536  13.235 -0.2896 -0.4807  0.0959
21879W        W40733   8.075  12.016  10.134 -0.0092  0.0026 -0.3068
21880W        W40734  18.362  13.551  12.620 -0.0457 -0.0585  0.0059
21881W        W40735   6.036  17.076   0.847 -0.0582 -0.0887  0.1480
21882W        W40736   0.517   2.611  11.537  0.1885 -0.0368  0.3674
21883W        W40737   8.027  10.772  14.101  0.3537 -0.1333 -0.0774
21884W        W40738   7.565   5.265   3.104 -0.1533 -0.1721  0.2133
21885W        W40739   0.796  13.723  13.302  0.0131  0.0703  0.1980
21886W        W40740   0.229   8.883  10.297 -0.2522  0.0345  0.0069
21887W        W40741  14.685   2.410   5.346 -0.0836 -0.0851 -0.0043
21888W        W40742  10.094   4.140   2.490  0.2108 -0.0004  0.3333
21889W        W40743  17.462   7.023  12.896  0.1108 -0.0305 -0.0021
21890W        W40744  10.499   3.171   0.593  0.5004  0.0237  0.1177
21891W        W40745   6.672  15.858   2.391 -0.0284 -0.1117 -0.0001
21892W        W40746   0.206   7.935  12.105  0.1306 -0.0096  0.1733
21893W        W40747  15.106  14.646  11.691  0.1732  0.1958  0.1757
21894W        W40748   9.629   4.008  10.508  0.0385  0.2590 -0.0423
21895W        W40749   0.322   8.840  12.040 -0.4675  0.2569 -0.0150
21896W        W40750  14.653   6.592  11.453  0.1138 -0.0026  0.1978
21897W        W40751  12.417   3.602  11.591  0.2887 -0.1085  0.0509
21898W        W40752   1.201  14.116   2.849 -0.0944  0.0369 -0.2075
21899W        W40753  15.426  14.953  13.015 -0.1982 -0.0944  0.1814
21900W        W40754   0.099   2.934   2.656  0.1465  0.0356 -0.1152
21901W        W40755   8.715   4.828  14.876  0.0959 -0.1097  0.0931
21902W        W40756   0.732   8.376   1.940 -0.0648 -0.0557 -0.2141
21903W        W40757  10.510  18.185   3.803  0.3241 -0.0723 -0.2251
21904W        W40758   2.021  12.271  13.695  0.0359 -0.1098 -0.1545
21905W        W40759  11.854  18.208   4.831 -0.2042 -0.0011 -0.3396
21906W        W40760  12.564  13.989  15.177  0.2971  0.3545  0.2930
21907W        W40761   0.789  10.733   0.384  0.0348  0.2230 -0.1724
21908W        W40762  13.637  10.460  14.266 -0.0301  0.2341 -0.1536
21909W        W40763   1.475  10.155  12.293  0.1442 -0.1210  0.3602
21910W        W40764   3.041  13.922   1.770 -0.1524 -0.3196 -0.3145
21911W        W40765   6.513  12.895   3.125  0.1387  0.2039  0.0525
21912W        W40766  12.446  15.745  14.864 -0.0784 -0.1662 -0.2465
21913W        W40767  12.830  13.203   1.934 -0.1825  0.1355  0.1045
21914W        W40768   5.374   0.376   2.687  0.1722  0.2626 -0.0221
21915W        W40769  18.102   4.168  13.538  0.1846 -0.2129 -0.1418
21916W        W40770   7.736   6.659   3.238 -0.0434  0.0749 -0.3814
21917W        W40771   2.085  13.884  12.925 -0.0024  0.3408  0.1198
21918W        W40772   8.739   1.651   3.291  0.0546  0.0546 -0.0883
21919W        W40773   9.125  11.613  13.557 -0.1731 -0.0784 -0.0489
21920W        W40774   2.442  12.503  10.795  0.0080  0.2547 -0.0595
21921W        W40775   4.851   6.000   1.894  0.1830  0.1617 -0.0743
21922W        W40776   7.161  17.566  15.040 -0.0368 -0.1022 -0.1173
21923W        W40777   8.854   3.477   3.381 -0.5683  0.0162  0.1891
21924W        W40778   4.370   2.012   3.228 -0.0066  0.1405 -0.2234
21925W        W40779  11.476   7.186  13.155 -0.0476 -0.2292  0.1579
21926W        W40780   9.993   8.851   4.456 -0.0593  0.1973 -0.0735
21927W        W40781   7.302  17.053  11.798 -0.0772  0.1078  0.0208
21928W        W40782  15.829  11.825  11.122 -0.3647 -0.2735  0.1639
21929W        W40783   0.347   2.964  13.002 -0.1156 -0.2690 -0.0935
21930W        W40784  17.970  13.150  11.087 -0.0431  0.5018 -0.0689
21931W        W40785   6.059   7.444  12.194  0.1410  0.1899  0.2155
21932W        W40786  15.571   6.935  12.273  0.1132 -0.1728 -0.0412
21933W        W40787  18.073   6.163   0.084 -0.1955 -0.2572  0.2139
21934W        W40788   7.582   4.277   3.398  0.0823  0.1448  0.0865
21935W        W40789   9.232  13.880   4.875 -0.0587 -0.1758 -0.1895
21936W        W40790  13.071  13.198  15.282  0.0893 -0.1423  0.2616
21937W        W40791  15.183   0.801  14.912 -0.0458 -0.2169  0.2656
21938W        W40792   0.879   0.844  10.873 -0.1778  0.1714 -0.0818
21939W        W40793  17.637   6.884  11.132  0.1958 -0.0587  0.0781
21940W        W40794   4.898  10.879  15.042 -0.1648 -0.2381  0.3283
21941W        W40795  12.825   0.164   3.405  0.1292  0.1592 -0.0178
21942W        W40796  12.840  17.255   4.261 -0.0139  0.0335 -0.2687
21943W        W40797  14.778  15.624   4.090 -0.0383 -0.0303 -0.0229
21944W        W40798  12.851   2.677  12.034 -0.0238  0.0751  0.0226
21945W        W40799   2.362   6.278  11.999 -0.2204 -0.2400  0.0179
21946W        W40800   5.678   4.704   1.095  0.2145 -0.2847 -0.0888
21947W        W40801  16.284   0.168   3.875 -0.1925  0.1888  0.2201
21948W        W40802  10.377  10.057  13.770 -0.0377 -0.3347 -0.0874
21949W        W40803   2.439  14.240  11.598  0.1270 -0.0809  0.1305
21950W        W40804   0.621   9.853   1.779 -0.1028  0.3256  0.1386
21951W        W40805  17.708   0.532   4.248 -0.0470 -0.1861  0.3027
21952W        W40806  16.620   2.634  15.112 -0.3345 -0.2080  0.1233
21953W        W40807  18.268   0.427   3.313 -0.1382  0.0973 -0.2081
21954W        W40808   1.575  13.994  14.098  0.1490  0.0034 -0.0667
21955W        W40809  15.497  11.181  13.722  0.5776 -0.2067 -0.0653
21956W        W40810  13.481  15.883   1.100 -0.4439 -0.4860  0.0457
21957W        W40811   8.614  16.732  12.130  0.1226  0.0483 -0.1282
21958W        W40812   8.886  15.225   0.719  0.3080 -0.0994  0.3158
21959W        W40813   9.127  13.218  10.244 -0.1194 -0.1754 -0.0492
21960W        W40814   1.749  15.583   2.049 -0.2799 -0.0767  0.0716
21961W        W40815   7.186   6.592  12.858  0.1685 -0.1555  0.0171
21962W        W40816   4.923   7.054   2.064  0.0753  0.2548 -0.1109
21963W        W40817   6.702  13.889  11.441  0.0908  0.0076 -0.4050
21964W        W40818   0.833  12.171  14.406 -0.2120 -0.1513 -0.0676
21965W        W40819  11.970   8.596   3.932  0.1891 -0.2445  0.0905
21966W        W40820   0.344  13.329   3.780  0.1726  0.2868 -0.0393
21967W        W40821   2.124   9.557  15.198 -0.0984  0.0622  0.0152
21968W        W40822  17.459  12.316   0.219  0.2195  0.0413 -0.2246
21969W        W40823   6.364  11.407   0.044  0.0227 -0.1110  0.1682
21970W        W40824  16.388  16.186   3.451  0.0858  0.1707  0.1519
21971W        W40825   7.185  16.947   5.105 -0.0647 -0.2435 -0.1127
21972W        W40826   2.649  10.696  13.938 -0.2787  0.1730 -0.1363
21973W        W40827  14.139   4.685   2.097  0.1304  0.1529 -0.0950
21974W        W40828   6.968  12.019  14.011 -0.1378  0.1408 -0.2764
21975W        W40829  18.114   4.141  10.202  0.3493  0.1192  0.1355
21976W        W40830  11.744  13.686  11.024  0.1050  0.3817 -0.0727
21977W        W40831   8.751  12.388  13.369 -0.0542  0.2018 -0.0264
21978W        W40832  16.782   8.245  11.243 -0.1940 -0.2647  0.1038
21979W        W40833  12.192  10.592   1.709 -0.0118  0.2935  0.0988
21980W        W40834   4.087  14.850   1.563  0.0120  0.0803  0.0106
21981W        W40835   9.186  12.458   0.502 -0.0585  0.0127 -0.1153
21982W        W40836  17.599  13.239  14.552 -0.0257 -0.0152 -0.1243
21983W        W40837  12.555   3.828  14.746 -0.1064  0.2577 -0.2145
21984W        W40838  11.643  11.384   5.568 -0.0679 -0.4176 -0.1076
21985W        W40839  13.947   2.766  15.204  0.2800  0.2318 -0.0137
21986W        W40840  11.959  15.249   2.511  0.4625  0.0165 -0.0579
21987W        W40841   6.175   8.221   0.523  0.0964 -0.1047  0.1613
21988W        W40842  16.118  16.263   1.885 -0.1757 -0.2446 -0.0758
21989W        W40843   0.322  12.087   4.720  0.1291  0.2949 -0.1616
21990W        W40844   7.713   5.391  11.865  0.0024  0.1073  0.0237
21991W        W40845  14.555  14.421   0.510 -0.1329 -0.0323  0.1152
21992W        W40846   7.490  11.828   5.273  0.0502 -0.0249 -0.0935
21993W        W40847   2.526   2.615  12.229 -0.0622 -0.1501 -0.0654
21994W        W40848   8.573  13.690   3.612  0.1685  0.1740  0.1545
21995W        W40849   4.411  12.531  13.235  0.3666 -0.1528  0.4238
21996W        W40850   4.032  15.632   2.185 -0.1780 -0.3202  0.2222
21997W        W40851   5.083   6.714  14.609 -0.0038 -0.1776  0.3715
21998W        W40852  12.681   6.180   1.225  0.0380 -0.1779 -0.2900
21999W        W40853  13.287  14.306   1.032 -0.2030  0.1260  0.1956
22000W        W40854   3.602   6.447   3.834  0.2022 -0.1986  0.0067
22001W        W40855  12.539   7.331  12.113  0.1806 -0.0778  0.3887
22002W        W40856  12.612   3.073   4.371  0.0788 -0.0300  0.2131
22003W        W40857   0.869   2.730   2.914  0.1443  0.0353 -0.0393
22004W        W40858   8.527  12.604   0.652 -0.0483 -0.0033 -0.1815
22005W        W40859  16.158   1.489   3.979  0.0229  0.1641 -0.1815
22006W        W40860  10.002  16.217  15.133 -0.0875  0.1490 -0.4092
22007W        W40861   5.667  10.245   0.561 -0.2965  0.0897 -0.1516
22008W        W40862  10.834   0.740   1.581 -0.0092 -0.0719 -0.1749
22009W        W40863  18.323   8.084  12.660  0.1283  0.0210 -0.0845
22010W        W40864   8.995  18.206  13.646  0.0913 -0.0114  0.0211
22011W        W40865  14.366  13.936  10.656 -0.0355  0.4072  0.1804
22012W        W40866  15.017   6.221   2.211 -0.2156 -0.4129  0.2325
22013W        W40867   0.568   7.360   1.277 -0.1842 -0.0376  0.0751
22014W        W40868  13.299   6.132   1.957 -0.2235  0.1020 -0.1414
22015W        W40869   7.649   7.149  13.955 -0.1146  0.0956  0.1380
22016W        W40870  11.621  15.897   0.144  0.4889  0.2490  0.1141
22017W        W40871  16.405  12.388   2.280  0.2509 -0.4189 -0.2817
22018W        W40872  11.023  16.600  15.189  0.2243  0.1194 -0.0483
22019W        W40873   6.007  17.275   4.205 -0.2359  0.1756 -0.1841
22020W        W40874   7.854  14.807  14.611 -0.1389 -0.1072  0.0605
22021W        W40875   8.531  17.559   4.474  0.0519 -0.2288  0.1911
22022W        W40876  15.380  18.525   2.285 -0.2388 -0.0340 -0.3357
22023W        W40877   2.212   2.919  13.159 -0.1962 -0.1314 -0.1672
22024W        W40878   9.766   0.897  13.027 -0.0453  0.1033  0.0553
22025W        W40879  16.548  13.471   1.327 -0.0019 -0.2411 -0.1203
22026W        W40880  16.968   6.261   4.525 -0.2899  0.3648  0.0759
22027W        W40881   0.595   4.460  11.734 -0.0880 -0.0541 -0.0715
22028W        W40882  11.336  18.053   3.132 -0.0362  0.1104 -0.1059
22029W        W40883   7.818   3.942   0.450 -0.3070 -0.2002  0.1449
22030W        W40884   2.699   8.011  10.538  0.0838  0.0405  0.1537
22031W        W40885   6.744   1.654  12.894 -0.1384 -0.1330  0.2080
22032W        W40886  12.443  14.622  11.533  0.1839  0.2967 -0.1359
22033W        W40887  16.460  14.513   4.581 -0.2669 -0.0030  0.1980
22034W        W40888  11.402   3.943   1.678  0.1446 -0.0443  0.1923
22035W        W40889  17.516  17.652  13.178  0.1347 -0.0735 -0.0433
22036W        W40890   4.341   8.576  15.223 -0.3843  0.1705  0.2589
22037W        W40891   8.281   2.483  15.183 -0.1169  0.0505 -0.3621
22038W        W40892  14.846   0.572   4.181 -0.1609 -0.0703  0.1296
22039W        W40893   8.887   8.501  12.402  0.0344  0.1946 -0.2269
22040W        W40894  17.429  14.757   0.625  0.0402 -0.0008  0.1533
22041W        W40895   8.547   7.650  12.192 -0.1853  0.1694 -0.2083
22042W        W40896  16.947   8.246  12.101 -0.1381  0.1042  0.1619
22043W        W40897  14.119   1.028   4.713  0.1647 -0.1376  0.0246
22044W        W40898   3.512   1.737  13.198 -0.0465  0.1459  0.2336
22045W        W40899  12.779   5.701  13.109 -0.0524  0.3077  0.2178
22046W        W40900   3.817   5.378   1.202  0.2580 -0.1878 -0.0270
22047W        W40901   9.102  16.984   2.049  0.0350 -0.2472 -0.0930
22048W        W40902  14.141  14.456   1.689  0.2384  0.0734  0.2298
22049W        W40903   9.914  12.142   4.472 -0.0025  0.4170 -0.2977
22050W        W40904   6.799   2.717  13.591  0.0128  0.4037 -0.0934
22051W        W40905  10.666   7.487  12.755  0.3607  0.1310 -0.1936
22052W        W40906   0.948   0.568  12.148 -0.2551  0.0360  0.1793
22053W        W40907  15.114  16.989  14.094  0.1282  0.1395  0.4332
22054W        W40908   3.183   5.247   1.622  0.0067 -0.0956 -0.0974
22055W        W40909  13.901   5.746   4.572  0.2158  0.0125  0.0814
22056W        W40910  13.697  14.901   4.491 -0.0553  0.1091  0.1714
22057W        W40911   7.971   0.033   2.924 -0.2113 -0.1730  0.2580
22058W        W40912  12.541   0.058  14.818  0.2028  0.2613 -0.1403
22059W        W40913   9.903  15.462  12.879 -0.1258  0.0858  0.1645
22060W        W40914   9.638  11.188   2.834  0.2519  0.2255  0.0214
22061W        W40915   5.793   0.984  14.268  0.1469 -0.0871 -0.0784
22062W        W40916  14.970  12.535   5.222  0.3390  0.0964  0.4016
22063W        W40917  11.740   7.224   2.083 -0.0307  0.0830  0.3401
22064W        W40918   2.445  17.079   0.068  0.0664  0.3068  0.1412
22065W        W40919  11.076  10.640   4.810  0.0610 -0.2226  0.0834
22066W        W40920  10.900  17.817  11.571 -0.2121  0.0763  0.0792
22067W        W40921  10.446   9.410   2.517  0.0064  0.1982 -0.2274
22068W        W40922   1.701  12.780   2.723 -0.0904  0.0667  0.3275
22069W        W40923   4.100   6.026   3.220 -0.1363 -0.2097 -0.0607
22070W        W40924   4.463  18.043  13.822 -0.0027 -0.2885 -0.2680
22071W        W40925  14.896  12.205  10.126  0.1878 -0.1751  0.0853
22072W        W40926   0.263  14.410  11.794  0.3259  0.0983  0.0191
22073W        W40927   3.680   3.495   1.125 -0.0318  0.0481 -0.1449
22074W        W40928   7.673   9.167  10.600  0.0289  0.0547  0.2184
22075W        W40929   0.802  14.194  15.231  0.2373  0.1792 -0.5953
22076W        W40930  14.991  17.724   0.761  0.0091 -0.4095 -0.3061
22077W        W40931  11.564   0.931  14.593  0.0618  0.3102  0.0942
22078W        W40932  13.918  15.255   3.011 -0.0318  0.1790 -0.1046
22079W        W40933  10.730   0.292  13.647  0.1860  0.0018 -0.1068
22080W        W40934  15.731   7.778  12.500  0.1151  0.2945 -0.3064
22081W        W40935   8.314   9.121  15.057  0.0982 -0.0923 -0.4300
22082W        W40936  10.230  13.448   0.707  0.1294 -0.0853  0.0786
22083W        W40937   9.999   2.008   0.955  0.1030  0.0402  0.0858
22084W        W40938  15.472   7.333   3.691  0.0686  0.1739  0.3538
22085W        W40939  10.070   5.868   2.505 -0.1326 -0.0498  0.1997
22086W        W40940   8.752   8.355  12.953 -0.0964 -0.2018 -0.1454
22087W        W40941   4.187  14.151   9.567  0.0805  0.2859 -0.0807
22088W        W40942   3.672   8.430  12.314 -0.3512 -0.0790  0.2299
22089W        W40943  16.267   6.658  14.750 -0.0642 -0.0106 -0.0410
22090W        W40944  17.978  15.474   2.275 -0.0207  0.2358  0.2052
22091W        W40945  15.596   8.179   1.847  0.0067 -0.1108  0.1133
22092W        W40946  17.941   0.915   2.520  0.0264  0.0587  0.2162
22093W        W40947  12.802   6.639   1.138  0.1505  0.0659  0.0640
22094W        W40948  17.170   3.757  11.090  0.0916  0.1000 -0.3130
22095W        W40949  13.695  13.753  12.555 -0.1735 -0.1878 -0.2199
22096W        W40950   7.761  13.686   2.958  0.0554 -0.2157  0.1113
22097W        W40951  10.853  14.197   1.820  0.1404 -0.1222 -0.0848
22098W        W40952  17.493   5.754   2.161 -0.1644  0.3890 -0.1287
22099W        W40953   1.859   3.688   3.305  0.1463  0.0630 -0.1950
22100W        W40954  14.855   1.867   2.490  0.0265  0.4945  0.1459
22101W        W40955  15.505   2.686  10.922 -0.0499 -0.1137 -0.1548
22102W        W40956  15.771  11.118   1.363  0.1614  0.0359 -0.1145
22103W        W40957   5.591   4.756  13.802 -0.0641 -0.2949 -0.0626
22104W        W40958   9.541   3.257   1.956 -0.1248 -0.1771 -0.0746
22105W        W40959  17.907   0.119   1.074  0.2117 -0.0022  0.2226
22106W        W40960   6.866  13.199   4.206 -0.1903  0.0636  0.0280
22107W        W40961   2.931  10.190   2.923 -0.1694 -0.0868  0.3594
22108W        W40962  17.652  13.315   1.356 -0.0252 -0.2361  0.1079
22109W        W40963   2.723  11.852   2.018 -0.0866 -0.2704 -0.1274
22110W        W40964   9.142  16.522  14.149 -0.0311 -0.3349 -0.1730
22111W        W40965  10.023   3.514  13.608  0.1931  0.1058  0.3292
22112W        W40966  15.452   2.337   4.074 -0.0176  0.0597 -0.0576
22113W        W40967   9.184   9.999  14.385  0.0452 -0.0097  0.1802
22114W        W40968  10.576   4.769  11.764 -0.0745 -0.1997  0.2017
22115W        W40969  13.114  12.885  13.725 -0.1782 -0.2912  0.0197
22116W        W40970   0.110  18.247   2.086  0.1398 -0.0614  0.2140
22117W        W40971  11.322  11.361  11.070 -0.2149 -0.0931 -0.0770
22118W        W40972  10.604   2.877   3.821 -0.3651 -0.1383 -0.2200
22119W        W40973   8.691  16.249   4.336 -0.1264 -0.1064  0.2735
22120W        W40974   1.634   6.996   3.334 -0.1364  0.2318  0.0259
22121W        W40975   1.734   0.855  13.795  0.0650  0.0162  0.0097
22122W        W40976  10.354   9.294  13.276  0.0469 -0.2162 -0.4171
22123W        W40977   0.770   2.266  12.107  0.2398 -0.2750 -0.2021
22124W        W40978   4.594  10.439  13.030  0.1224  0.1062  0.1882
22125W        W40979  13.225   2.606  14.947 -0.0951 -0.2620  0.0732
22126W        W40980  13.031  11.153  12.012  0.0485  0.0358  0.1378
22127W        W40981  11.214  11.066  10.645 -0.2120  0.2452 -0.2073
22128W        W40982   3.622   8.186   2.290  0.1217  0.0666 -0.0903
22129W        W40983   3.816  18.405   0.292 -0.0074 -0.0236  0.0799
22130W        W40984   1.420   5.905   3.048  0.1785  0.0848 -0.3906
22131W        W40985   0.586  17.236   2.072  0.0430 -0.0924  0.2547
22132W        W40986  10.869  10.978  14.705  0.1520 -0.0250 -0.3135
22133W        W40987  15.071  15.956   1.203  0.1969 -0.2233  0.0949
22134W        W40988  11.464   8.623  14.142 -0.2832  0.1241 -0.1932
22135W        W40989  11.575   2.602   2.741  0.1455  0.1868 -0.1112
22136W        W40990   1.695   9.648   0.905  0.1334  0.0409  0.0122
22137W        W40991  14.327  10.442   0.365  0.1087  0.2148 -0.0312
22138W        W40992   6.400   6.891  12.944 -0.0155  0.1042 -0.1392
22139W        W40993   3.860   8.203  11.153  0.0444 -0.1371 -0.0967
22140W        W40994  16.090   0.400  13.612 -0.2279 -0.0579  0.1084
22141W        W40995   8.237   0.801  11.173  0.0706 -0.1757  0.1362
22142W        W40996   1.553   5.522  13.075 -0.0359 -0.2504 -0.0871
22143W        W40997  13.311   4.948  14.582 -0.0993 -0.0164  0.0646
22144W        W40998  13.231   7.543   2.602  0.1252  0.0176 -0.0076
22145W        W40999  12.208   1.349   3.501  0.3424 -0.2402 -0.0084
22146W        W41000  11.468   8.788   3.152 -0.2642 -0.0420 -0.0084
22147W        W41001   2.663  13.663   3.997 -0.3688  0.4209  0.2653
22148W        W41002   3.486   2.544   3.479  0.2189  0.0146 -0.2201
22149W        W41003  13.020  12.938   0.198  0.1793 -0.2557  0.1669
22150W        W41004  14.218   4.063  14.179 -0.3976  0.0621  0.1988
22151W        W41005   7.501  18.024  10.509  0.4021  0.1139  0.1068
22152W        W41006   0.906  13.425  13.738 -0.0374  0.1334  0.4249
22153W        W41007   7.970  14.091   4.013  0.0035 -0.3637  0.1265
22154W        W41008   9.843   0.111   2.814  0.0459 -0.0220  0.1825
22155W        W41009  10.189  15.310  15.424 -0.0617 -0.2894 -0.2060
22156W        W41010  16.675   3.125   4.266 -0.0335 -0.1820 -0.2642
22157W        W41011   5.916   8.086  13.094 -0.2575 -0.0753  0.0788
22158W        W41012   6.055  11.747   2.492  0.1955  0.1117  0.3075
22159W        W41013  10.213   9.894   1.782  0.0563  0.2766  0.2160
22160W        W41014   1.420  13.676  10.266  0.2037 -0.1848  0.0589
22161W        W41015  15.679  13.791  14.234  0.6391 -0.1088  0.1403
22162W        W41016  17.922   2.136  14.537  0.1194  0.0329  0.2063
22163W        W41017   5.163   4.115   4.528 -0.2120  0.1670  0.0078
22164W        W41018  10.133  12.344   2.358 -0.1452 -0.1603  0.0468
22165W        W41019  17.930  11.590  12.790 -0.1197  0.4296  0.0819
22166W        W41020   7.951  13.057  15.337  0.1620 -0.2064 -0.0717
22167W        W41021  17.170   6.458  11.656  0.0459 -0.0447  0.1373
22168W        W41022   4.458  11.914  13.601 -0.2614 -0.0957  0.1859
22169W        W41023   4.570  13.237  13.860  0.1286 -0.1480 -0.0991
22170W        W41024  13.214  17.246  15.322 -0.1669  0.2754 -0.2602
22171W        W41025   4.833  13.051  11.667  0.0894  0.1438  0.0499
22172W        W41026   5.043   6.034  12.248 -0.1987  0.0803  0.0881
22173W        W41027   9.300  11.496   1.514  0.0654 -0.1070 -0.3655
22174W        W41028   7.048  14.069   0.404  0.2443  0.0620  0.2057
22175W        W41029  16.475  12.014  14.189 -0.2747 -0.0253  0.0872
22176W        W41030   4.996  13.317   0.461  0.3709  0.2408 -0.0451
22177W        W41031   2.402   5.343   0.586 -0.3292 -0.2862  0.1146
22178W        W41032  10.903  14.358   1.248  0.1132  0.1574 -0.2354
22179W        W41033  15.039  13.978   3.727 -0.0027  0.2006  0.0865
22180W        W41034  10.584   5.725  14.742  0.1946  0.0543  0.0774
22181W        W41035  15.131   8.782   0.620 -0.1598 -0.0283  0.1759
22182W        W41036  16.593   1.199  14.825 -0.0746  0.3146  0.0586
22183W        W41037   7.758  16.776   3.864 -0.2511 -0.1141  0.2869
22184W        W41038   4.817  15.772  12.393  0.2214 -0.2450  0.2219
22185W        W41039   5.840  15.195  12.935  0.2451 -0.0984  0.1526
22186W        W41040   9.192  14.649   3.540 -0.0705  0.1932 -0.2070
22187W        W41041   0.411  16.753  14.969  0.0381  0.0521 -0.2585
22188W        W41042   2.917   9.966   0.699 -0.0893 -0.0397 -0.0422
22189W        W41043  15.571  17.473   4.641  0.2501  0.2600 -0.2953
22190W        W41044  11.610  16.277   2.608 -0.0543  0.0880  0.0992
22191W        W41045   0.196   1.496  10.735  0.4565  0.1763  0.0013
22192W        W41046   0.578  17.040   3.719 -0.2271  0.3195  0.1441
22193W        W41047   0.255   2.645  14.255  0.2332 -0.0978  0.1839
22194W        W41048   0.108   0.715  15.377 -0.0729 -0.0031 -0.1088
22195W        W41049   0.039   3.823  12.932  0.2455 -0.2789 -0.0764
22196W        W41050   3.465   8.370  12.897  0.1072  0.0846 -0.1631
22197W        W41051  14.473  12.481  14.005 -0.0684 -0.2256 -0.0213
22198W        W41052   5.308  18.538  14.420 -0.2314  0.2377  0.0997
22199W        W41053   5.728   3.525  11.711  0.0777 -0.2674  0.1458
22200W        W41054  16.762   4.124   1.704  0.4164 -0.1403  0.1572
22201W        W41055  13.832   4.619  13.763 -0.2011 -0.2334  0.1013
22202W        W41056   9.107   3.784   0.355 -0.0326  0.2153 -0.0181
22203W        W41057   3.775  12.864  11.374  0.0914 -0.0730 -0.1965
22204W        W41058  10.255  13.655   3.199 -0.4524  0.3128 -0.1922
22205W        W41059   3.821  17.359   3.021 -0.1389  0.1127  0.0992
22206W        W41060   7.529  17.323   4.221  0.0389 -0.0506 -0.0161
22207W        W41061  18.132   6.842  14.221  0.0314  0.1151  0.0726
22208W        W41062   5.879  16.997  13.560 -0.1423  0.0632  0.0161
22209W        W41063  14.777   3.473  11.460 -0.0895 -0.1521  0.1714
22210W        W41064  16.591  14.866   2.083 -0.3144  0.1193 -0.1203
22211W        W41065   5.815   7.398  13.550  0.0180 -0.0702 -0.2992
22212W        W41066   0.947   2.748  10.751  0.0849  0.1954 -0.1662
22213W        W41067  16.461  11.810   3.379  0.0392 -0.1776 -0.0555
22214W        W41068  16.875   4.608  14.028  0.0960 -0.0038 -0.1352
22215W        W41069   7.632  15.264   1.940  0.0566 -0.2241 -0.0779
22216W        W41070  17.211   8.259  10.144  0.1653 -0.1457 -0.0882
22217W        W41071   6.130  17.024  11.312  0.1103  0.3274  0.0926
22218W        W41072   8.360   2.641  14.598 -0.1745  0.2998  0.1549
22219W        W41073  15.735   6.503  12.423  0.0450  0.4237 -0.0437
22220W        W41074   6.019   1.997   0.056 -0.1964  0.2138  0.2329
22221W        W41075  11.815   5.409   2.797  0.1476  0.1047 -0.2605
22222W        W41076  16.490   6.197   1.605  0.1841 -0.0912 -0.1973
22223W        W41077  15.855   2.405  13.368 -0.1748  0.0143  0.0517
22224W        W41078  15.694   0.372   2.659 -0.0909 -0.2063 -0.1395
22225W        W41079   5.345   3.354   0.190 -0.2771 -0.1299  0.0528
22226W        W41080   2.370   5.415  12.085 -0.2070 -0.1409  0.0330
22227W        W41081  16.949  12.467  14.409  0.1517 -0.0281 -0.3591
22228W        W41082  13.953  13.861   0.031 -0.2374  0.1656  0.2192
22229W        W41083  15.779  15.568  14.397  0.0464  0.0498  0.0333
22230W        W41084   5.455  14.920   0.166 -0.1046 -0.1557  0.0156
22231W        W41085  16.480  18.571   3.399  0.1234  0.1409  0.0779
22232W        W41086   1.159   4.634  12.729  0.1933 -0.0069  0.4463
22233W        W41087   1.696   2.469  14.294 -0.0594  0.0047  0.3202
22234W        W41088  13.437  18.172   0.197 -0.1345 -0.1523 -0.3951
22235W        W41089   6.259   5.408   1.591 -0.0360 -0.0060 -0.1376
22236W        W41090   3.423  17.791  12.489  0.2093 -0.3453  0.2822
22237W        W41091   6.202   3.487  15.255 -0.0298 -0.0713  0.0847
22238W        W41092   9.849  15.657   2.213  0.1584  0.2198  0.0447
22239W        W41093  17.690   9.302  13.221 -0.1100  0.0855 -0.0194
22240W        W41094  11.135  13.365  14.014  0.0045  0.1997 -0.0225
22241W        W41095  18.442   6.500  15.341  0.1063 -0.1754 -0.1804
22242W        W41096  10.028   6.856   1.789  0.0229 -0.0138  0.1226
22243W        W41097   8.022   9.622   0.875  0.0996 -0.0760 -0.1551
22244W        W41098   8.326   6.963  14.593 -0.1387 -0.1084  0.0234
22245W        W41099   1.741   1.907  11.990  0.1135 -0.0918 -0.2105
22246W        W41100   9.027  16.029   5.191 -0.1236  0.0969 -0.1259
22247W        W41101   3.258  15.506  14.932 -0.1865  0.1623 -0.0710
22248W        W41102   7.918   0.786   1.146 -0.0045  0.0028  0.0924
22249W        W41103   2.076   6.155  15.461  0.2346  0.1833 -0.2316
22250W        W41104  13.051   6.426  10.837  0.0028 -0.1623 -0.0254
22251W        W41105  16.248   3.710   1.633 -0.1797 -0.0157 -0.3210
22252W        W41106   0.735  16.225   3.371 -0.2815 -0.0632 -0.2847
22253W        W41107  12.683   3.272   0.553  0.2226 -0.1895 -0.2645
22254W        W41108   8.487  15.754   4.350 -0.1328  0.2013  0.2323
22255W        W41109   8.998   9.789   2.125  0.0849 -0.2123  0.1045
22256W        W41110  15.650  17.051  12.380  0.0273  0.2142  0.1572
22257W        W41111   9.814   7.392   1.476 -0.0573 -0.1400  0.1477
22258W        W41112  10.676  13.409  12.567  0.0544  0.1362  0.0382
22259W        W41113   2.161   7.759   3.033 -0.1132 -0.0200  0.0547
22260W        W41114  15.491  11.026  14.959 -0.2818  0.0678  0.0393
22261W        W41115  16.546   8.222   3.117  0.1008  0.0463 -0.1975
22262W        W41116   9.507  13.670   2.165 -0.2340 -0.0106  0.2398
22263W        W41117   2.449   5.437  11.544 -0.1250  0.2996  0.2825
22264W        W41118  10.650  15.694   1.203  0.2776  0.0850  0.1992
22265W        W41119   0.761   7.535   3.367  0.1880 -0.2767  0.0055
22266W        W41120   9.945   4.232   3.124 -0.0286  0.0372  0.2347
22267W        W41121  10.794   9.151  13.097  0.3011  0.0826  0.1331
22268W        W41122  16.602   5.491  14.611 -0.1246  0.0229  0.1929
22269W        W41123  15.012  14.009   2.809 -0.2521 -0.3717  0.0748
22270W        W41124   5.288   5.960  12.686 -0.0092 -0.1122 -0.0976
22271W        W41125   8.744   0.751   0.122  0.0653 -0.3191  0.1189
22272W        W41126   6.867   1.080   1.462 -0.1138 -0.0811  0.3112
22273W        W41127  14.222   0.597   0.435 -0.0006  0.3552  0.0792
22274W        W41128   2.263   6.691   3.966  0.0186  0.0433  0.2687
22275W        W41129  10.158  14.221  12.485 -0.0973 -0.0376  0.1436
22276W        W41130   6.704   3.467   2.954  0.1982 -0.0638  0.0080
22277W        W41131   3.815  10.094  11.377 -0.1710  0.2335 -0.1671
22278W        W41132   8.686  10.625  13.663 -0.0848  0.1877  0.2636
22279W        W41133   6.458   3.470   2.549 -0.1776  0.2656  0.1469
22280W        W41134  11.499   4.076  13.776 -0.0308 -0.1962 -0.2462
22281W        W41135   6.740  14.791  11.743 -0.1208  0.1149  0.0684
22282W        W41136   4.532   1.569  11.622 -0.1617 -0.0574 -0.0710
22283W        W41137   8.956  11.611   3.617  0.0396 -0.0707  0.0492
22284W        W41138  18.502   9.317   2.118  0.1468  0.0542 -0.1686
22285W        W41139  16.045   2.227  12.339 -0.1761  0.0938 -0.0658
22286W        W41140   0.944   6.415   3.770  0.1284 -0.1824  0.3116
22287W        W41141   2.434  17.570   3.351 -0.0575 -0.2202  0.1843
22288W        W41142   5.680   4.603   0.275 -0.2387  0.1563  0.0252
22289W        W41143   4.896   0.525   0.069 -0.2356 -0.0055  0.1445
22290W        W41144   6.426  16.980   0.443 -0.2001 -0.0380  0.2094
22291W        W41145  13.964   9.028   0.935  0.3625  0.0179  0.3192
22292W        W41146  18.366   1.739  13.384  0.0917  0.3107  0.0669
22293W        W41147   8.379   9.408   3.842  0.0550 -0.3002  0.0805
22294W        W41148  10.656   0.030   4.083  0.0650  0.4417 -0.1095
22295W        W41149  16.965   1.572   0.605  0.0225  0.2021 -0.1101
22296W        W41150   2.663   1.332  13.667  0.0718 -0.3101 -0.3161
22297W        W41151   4.752   8.492  12.760 -0.2893  0.1685 -0.4174
22298W        W41152  11.765   2.357  13.989  0.1394 -0.0538 -0.1322
22299W        W41153  17.660   2.068   2.685 -0.0871 -0.2326  0.0960
22300W        W41154   2.726  10.707  15.166 -0.1850 -0.1273  0.2353
22301W        W41155   4.453  16.620  12.755  0.2183  0.1973 -0.2760
22302W        W41156  12.548  14.715   2.473 -0.1063 -0.0627 -0.2083
22303W        W41157   9.510   8.609  12.539  0.3313  0.0583 -0.2725
22304W        W41158   3.678  17.939  13.227 -0.0210 -0.4948  0.2353
22305W        W41159   0.538  13.692   3.097  0.2789  0.1559 -0.1548
22306W        W41160  11.521   7.287   1.640 -0.0769 -0.0997  0.1605
22307W        W41161  12.974  13.196  11.382  0.1770 -0.1728  0.2705
22308W        W41162   9.504   9.838   0.872 -0.0835 -0.1728  0.0686
22309W        W41163  15.737   6.516  13.024  0.0438 -0.0682 -0.0855
22310W        W41164   9.656  15.065   2.175 -0.0859 -0.1983 -0.0059
22311W        W41165   6.157   2.459   0.046 -0.0098 -0.1548 -0.1337
22312W        W41166  15.228  10.320   3.810 -0.0695  0.0571 -0.0789
22313W        W41167  17.437   5.375   1.779 -0.2101  0.1218 -0.3713
22314W        W41168   8.225  14.355  14.436 -0.1245  0.2323 -0.1873
22315W        W41169   1.302   0.091   3.291 -0.3994  0.1310 -0.3410
22316W        W41170  11.311   7.808   1.366 -0.1092 -0.0136 -0.3286
22317W        W41171  11.042  12.337  13.780 -0.1059 -0.0114  0.1253
22318W        W41172  14.290   9.237  13.489 -0.0973 -0.1970  0.0881
22319W        W41173   0.804   8.467  12.707 -0.0879 -0.2813 -0.2771
22320W        W41174  15.610   6.818  13.570 -0.3735  0.0983 -0.0117
22321W        W41175   0.939   6.477  11.712  0.3489  0.2634  0.1623
22322W        W41176   4.295  13.761   3.928  0.0947  0.2520 -0.0762
22323W        W41177  15.142   4.437  11.996 -0.1693  0.1021  0.1088
22324W        W41178   1.979   4.191  11.517  0.0652 -0.0169 -0.0878
22325W        W41179   6.619  17.649   3.604  0.1456 -0.1747 -0.0029
22326W        W41180  11.137   2.032  14.135 -0.4273  0.0755  0.0177
22327W        W41181  15.943   7.586   0.530 -0.2805  0.0726  0.0089
22328W        W41182  16.088   9.489  11.928  0.0432  0.3348 -0.1140
22329W        W41183   7.698  18.240   0.919 -0.0470  0.0008 -0.0548
22330W        W41184   5.635   3.782  14.782  0.2478  0.1430  0.0311
22331W        W41185   0.165   2.692   5.305 -0.1858  0.0256  0.1172
22332W        W41186  10.931   3.051  13.872  0.0598 -0.1002 -0.0840
22333W        W41187  16.338  15.754   1.593  0.2657 -0.2131  0.1107
22334W        W41188  15.712   8.410  11.604  0.0077  0.0949  0.0027
22335W        W41189   1.975  14.098  13.868  0.1249  0.1536 -0.0913
22336W        W41190   4.980  11.717   1.508  0.1892  0.1455  0.2159
22337W        W41191  12.272  10.346   0.087 -0.1075 -0.0029  0.0993
22338W        W41192   8.979   0.052  14.469  0.1322 -0.0065 -0.1340
22339W        W41193  17.141  16.828  10.636 -0.0935 -0.0653  0.2922
22340W        W41194   9.601  15.728  14.034 -0.0598  0.1357 -0.0155
22341W        W41195  11.491  11.123  12.293  0.3542 -0.2734  0.0035
22342W        W41196  14.754   9.535   4.083 -0.0333  0.0256  0.0164
22343W        W41197  13.502  11.173   3.222  0.3968 -0.1136 -0.2159
22344W        W41198   0.982  16.810  11.412 -0.0141  0.0506 -0.0797
22345W        W41199  11.159  10.485  12.791 -0.0807  0.0087  0.0780
22346W        W41200   8.028  15.012   1.997 -0.0053 -0.1894 -0.1368
22347W        W41201  16.145   1.614   1.313 -0.0129  0.0715 -0.0915
22348W        W41202  10.112  10.234  14.238 -0.1513  0.3203  0.0136
22349W        W41203  17.870  17.607  11.156  0.2531  0.1955 -0.0083
22350W        W41204  13.188  12.104  11.340  0.1695  0.3103 -0.3492
22351W        W41205  12.464   6.512   0.724  0.3029  0.0377  0.2142
22352W        W41206  16.031   8.015   3.187 -0.0987 -0.0082 -0.1815
22353W        W41207   9.807   2.363   0.534 -0.2898 -0.0100 -0.2120
22354W        W41208  10.773   7.984  14.479  0.0338 -0.2554 -0.1570
22355W        W41209   0.043   5.454   0.188 -0.0328  0.3183 -0.0669
22356W        W41210   0.054  14.419  10.701 -0.0009 -0.1416 -0.0143
22357W        W41211   6.377   1.515  13.323 -0.0945  0.1050 -0.2317
22358W        W41212  15.660   8.652   1.628  0.1818 -0.1347  0.0564
22359W        W41213   5.082   3.051   4.595  0.0536  0.0312 -0.2186
22360W        W41214   9.546  10.960   0.744  0.1241  0.2362  0.2260
22361W        W41215  15.666  12.970   0.480 -0.0664 -0.0057  0.3601
22362W        W41216   5.355   8.990   1.497  0.1128  0.1515  0.2032
22363W        W41217   2.394   6.955  15.139 -0.0361  0.0724  0.0270
22364W        W41218   9.265  18.132   5.065 -0.2883  0.1429 -0.2571
22365W        W41219   0.621  13.795  12.298  0.0770 -0.2391  0.2385
22366W        W41220  18.154  15.532  13.206 -0.0711  0.1913 -0.0885
22367W        W41221   8.493  14.941   4.798  0.1271 -0.4672 -0.4097
22368W        W41222  11.655  16.529  14.240 -0.4419  0.0477  0.0161
22369W        W41223  10.381   4.567   2.341 -0.2020  0.1636  0.1324
22370W        W41224  15.178   1.582  12.337 -0.0500  0.3263  0.0433
22371W        W41225   8.044  13.965   4.542 -0.0419 -0.0244  0.2847
22372W        W41226  11.372   1.877   0.788 -0.4439 -0.0685 -0.1858
22373W        W41227  16.050   6.618   2.224  0.1523  0.0363 -0.4027
22374W        W41228  14.435   0.725  13.156  0.1059  0.0282 -0.1626
22375W        W41229   9.065   9.776   1.229 -0.0674 -0.4384 -0.1125
22376W        W41230   7.464   4.371  15.189 -0.0361  0.0074 -0.0375
22377W        W41231   0.679   3.242  10.603 -0.1845  0.2121  0.0735
22378W        W41232  12.282  14.387  14.421  0.0220 -0.1365  0.1182
22379W        W41233   7.299   7.932  11.613 -0.0840 -0.1939 -0.0603
22380W        W41234   9.554   3.729   1.850 -0.1833 -0.1118 -0.1049
22381W        W41235   8.478   5.409  11.437 -0.0059  0.1089 -0.1883
22382W        W41236   0.711   1.343  12.372 -0.2560  0.1684 -0.0100
22383W        W41237   0.929  11.910  13.081  0.3437  0.0479  0.2300
22384W        W41238   9.623   8.712  15.030  0.0117 -0.4382 -0.0492
22385W        W41239   1.084  13.031  10.749 -0.1514  0.1830  0.1194
22386W        W41240   5.953   9.892  14.616  0.0851 -0.3744  0.3953
22387W        W41241  12.319   0.450  11.491 -0.2578 -0.1263  0.3387
22388W        W41242   7.861   6.920   2.879  0.0764 -0.3072  0.1777
22389W        W41243   9.085   5.123  10.932 -0.1317  0.0745 -0.1024
22390W        W41244  10.884  16.128   3.212  0.1263 -0.0187  0.2058
22391W        W41245  10.056  17.504   2.520 -0.2528  0.0850 -0.2269
22392W        W41246  13.859   1.492   9.916  0.1639 -0.1350  0.3138
22393W        W41247  16.411   5.833  12.315 -0.1203  0.3504  0.0084
22394W        W41248   6.904   8.016   2.532 -0.2149  0.0686  0.0258
22395W        W41249   5.199   3.783   3.226  0.1402  0.0831  0.1210
22396W        W41250   7.798   0.334   4.204 -0.0319  0.0985  0.0651
22397W        W41251  10.141  12.692  14.914 -0.1973  0.3524 -0.3236
22398W        W41252   3.328   0.858  12.288  0.0069 -0.0333  0.1754
22399W        W41253  15.324  15.591  10.751 -0.0740  0.2786 -0.0587
22400W        W41254   7.544   8.307  14.961  0.0449  0.0749 -0.2905
22401W        W41255  18.420  13.443  11.876 -0.0153 -0.4605 -0.0664
22402W        W41256   5.118   8.605  11.029  0.2921  0.1309 -0.0873
22403W        W41257  11.949  16.407   4.873 -0.0658  0.0438  0.0818
22404W        W41258   1.146   4.465  11.498  0.0568  0.3077 -0.2024
22405W        W41259  18.519   0.684   4.122 -0.1188 -0.2643 -0.0896
22406W        W41260  16.671  10.903   4.718 -0.3068  0.0868 -0.0750
22407W        W41261   4.885  12.916  11.166 -0.0200  0.2564 -0.4391
22408W        W41262  18.373   0.883   3.469  0.1301  0.1911 -0.1481
22409W        W41263   0.382   8.380  10.982 -0.3321 -0.0260  0.0740
22410W        W41264   6.660   3.024  15.344 -0.1116  0.3809 -0.2024
22411W        W41265  10.843   1.548  15.077 -0.0570  0.2952  0.1443
22412W        W41266   1.935  12.118  11.406  0.1148 -0.1414  0.3785
22413W        W41267  17.220  16.788  15.170 -0.1670 -0.2085  0.2039
22414W        W41268  16.649  13.189   0.490  0.1948 -0.0148  0.3189
22415W        W41269  13.907   8.604   4.357 -0.1642 -0.0611 -0.2951
22416W        W41270   0.023   6.671  12.004  0.1054 -0.3113  0.0475
22417W        W41271  12.116  14.622   2.044 -0.4083 -0.1949 -0.2821
22418W        W41272  13.633   9.222  14.155  0.0721  0.1319 -0.0530
22419W        W41273   5.019   9.706   4.657  0.0746 -0.0357  0.2497
22420W        W41274   5.970   4.133  13.740  0.3044 -0.0354 -0.1527
22421W        W41275   4.739   1.840   1.147  0.0100  0.1019 -0.0607
22422W        W41276  16.638  13.725   3.938  0.0532  0.1201 -0.1240
22423W        W41277  14.213   2.400   0.883 -0.1845  0.0978  0.1014
22424W        W41278   1.582   4.533  14.991  0.3599  0.4655  0.0147
22425W        W41279  12.124   5.674  12.325 -0.1331 -0.2488 -0.1096
22426W        W41280   7.095  16.623   1.842  0.2999 -0.0091  0.3828
22427W        W41281   4.211   1.715  13.700 -0.2280  0.0027 -0.1841
22428W        W41282  16.184   3.013  10.944 -0.1810 -0.0197  0.1214
22429W        W41283  16.714   1.652  12.775 -0.3727  0.4288  0.1471
22430W        W41284   2.887   0.655  13.256  0.0631 -0.0619  0.1314
22431W        W41285  13.845   8.879   3.003  0.0951 -0.2551 -0.0097
22432W        W41286   4.616   5.529  12.154 -0.1163  0.0283 -0.1863
22433W        W41287   8.772   7.043   0.769 -0.3199  0.0084 -0.2358
22434W        W41288   6.920  16.599  14.418  0.1149 -0.3658  0.0765
22435W        W41289   4.709  10.728  13.475 -0.0111 -0.0623  0.0002
22436W        W41290   0.418  10.025  15.304  0.2088  0.0409 -0.1398
22437W        W41291  16.825  17.572  14.340 -0.3083 -0.2720 -0.1128
22438W        W41292   1.326  16.561  15.234  0.3128  0.2765 -0.1779
22439W        W41293   9.574  16.809  12.669 -0.3063 -0.0462  0.3020
22440W        W41294  17.263  11.873   2.615  0.1422 -0.0936  0.2050
22441W        W41295   2.753   8.827   1.201 -0.0160 -0.0740 -0.0960
22442W        W41296  18.329  17.367   0.885  0.0114  0.1235  0.0205
22443W        W41297  16.810   2.635   0.493 -0.0547 -0.0476 -0.2041
22444W        W41298  17.344   2.655  10.962  0.3613  0.1046 -0.0419
22445W        W41299   6.342   7.304   1.856 -0.2501  0.2373 -0.2144
22446W        W41300   5.117   8.594  13.072 -0.1193 -0.2666  0.0749
22447W        W41301   9.054   7.054  14.895  0.0833  0.1382  0.0688
22448W        W41302   6.490  13.406  12.395 -0.0206 -0.0831 -0.1412
22449W        W41303   8.396   1.473  13.900  0.6103  0.0058 -0.1277
22450W        W41304  12.210   8.022   3.087 -0.2902 -0.0647  0.0071
22451W        W41305   1.253   5.983  11.282 -0.0793 -0.1808 -0.1086
22452W        W41306  16.125   7.978   0.839  0.1624 -0.0543  0.0613
22453W        W41307   2.589   4.303  10.793  0.0689 -0.1623  0.2441
22454W        W41308  10.165  14.401  14.025  0.0700 -0.1722  0.1913
22455W        W41309   0.900  15.558   3.985 -0.2914 -0.0008 -0.0897
22456W        W41310   6.198   3.917   3.223  0.0960 -0.0952  0.1229
22457W        W41311  14.443   8.449   3.410  0.0516  0.2230 -0.0484
22458W        W41312  11.975  16.521  13.691 -0.0296 -0.1413 -0.4608
22459W        W41313   2.240   4.438   0.774  0.0770  0.1272  0.0981
22460W        W41314   5.018   2.990   0.867  0.1353  0.1332 -0.0250
22461W        W41315  12.141  11.925   3.765 -0.0060 -0.0804 -0.3097
22462W        W41316   5.814  14.386   3.142  0.1887  0.1175 -0.1208
22463W        W41317   7.812   1.881   2.847 -0.1692 -0.2493  0.1390
22464W        W41318   1.453   4.811   2.452 -0.0399  0.0567  0.0888
22465W        W41319   8.359   3.483   2.243  0.0900 -0.3008  0.0039
22466W        W41320   1.484   6.097   9.959 -0.0523 -0.1311 -0.1670
22467W        W41321   2.371  16.374  14.368 -0.0817  0.1125  0.0541
22468W        W41322   1.848  17.108   3.367 -0.0036 -0.0823 -0.4531
22469W        W41323   0.551   4.797  10.759 -0.1538 -0.1590  0.1558
22470W        W41324   4.540  14.828   3.686 -0.0929  0.0931 -0.7287
22471W        W41325   6.201   2.878   5.051 -0.1325 -0.1234 -0.0300
22472W        W41326  14.692  14.897   4.619 -0.3621 -0.0237  0.0774
22473W        W41327  14.066   2.145   1.816  0.1024 -0.2012 -0.1095
22474W        W41328   0.579   0.734   3.296  0.0765 -0.1708  0.0049
22475W        W41329  12.632   4.524   4.464 -0.1250  0.1000  0.2654
22476W        W41330   4.437   6.998   2.140  0.0607  0.4434  0.0274
22477W        W41331  12.493  12.773   3.418  0.0501  0.2323  0.0643
22478W        W41332  14.128  18.390   3.928 -0.0059  0.0333 -0.0210
22479W        W41333   8.996  15.615   1.662  0.0501 -0.0061 -0.0080
22480W        W41334  17.926   2.625  14.701  0.1853 -0.5694  0.0769
22481W        W41335   9.022  12.615   1.449  0.1368  0.3702 -0.2624
22482W        W41336   3.821  15.314  14.180 -0.2712 -0.0550 -0.2151
22483W        W41337  13.047   6.749  12.699 -0.0563  0.0145 -0.1671
22484W        W41338  13.892  14.615   4.064 -0.0664  0.2889  0.0886
22485W        W41339   8.572  13.521   2.245  0.1135  0.0552 -0.1260
22486W        W41340   7.921  15.766   0.603 -0.1978  0.0324 -0.0389
22487W        W41341  12.775   9.279   1.285 -0.0422 -0.2483  0.2090
22488W        W41342   7.395   5.187   4.278 -0.1082 -0.1775 -0.3640
22489W        W41343  13.349   0.195   0.963 -0.0101  0.1908 -0.0168
22490W        W41344   5.125   4.938  10.830 -0.2455  0.1185  0.0555
22491W        W41345  12.730   2.983   2.026 -0.1017  0.1326  0.0985
22492W        W41346  18.281  16.146   0.314 -0.0303  0.0606  0.3273
22493W        W41347  13.425   2.991  12.768 -0.0773 -0.3124  0.1891
22494W        W41348  10.955  18.546  13.245  0.1001 -0.0912  0.0338
22495W        W41349   3.183   0.911   1.196  0.0837 -0.0120 -0.0626
22496W        W41350  15.775  12.828   3.921 -0.4627  0.0584  0.1837
22497W        W41351  13.568  12.975  13.569 -0.2830  0.0287 -0.0638
22498W        W41352  11.594  16.238   1.348 -0.1130 -0.1582  0.4090
22499W        W41353  13.246  13.409  13.518  0.1357  0.4073 -0.0711
22500W        W41354   2.230  18.179   1.212  0.2561  0.0390 -0.1220
22501W        W41355  15.322  14.529  13.799  0.2929 -0.0761 -0.0721
22502W        W41356  14.339   4.772   4.109 -0.0311  0.2621  0.1993
22503W        W41357  10.047  13.815  12.136 -0.0082 -0.0215  0.0023
22504W        W41358   9.048  17.901   2.090  0.0393 -0.3319 -0.1347
22505W        W41359   9.036  10.356   2.770 -0.2132  0.4146 -0.0636
22506W        W41360  15.459  13.651   3.345  0.1889  0.0694  0.0690
22507W        W41361  13.624   3.276   2.473 -0.0178  0.1480 -0.0681
22508W        W41362   2.694  11.811  14.249  0.0779  0.0140 -0.0951
22509W        W41363  17.517   8.782  10.975 -0.3875  0.0308 -0.0177
22510W        W41364   6.092   0.164  11.191  0.1872  0.0596 -0.2803
22511W        W41365  11.529  13.803  10.539 -0.4809 -0.3041 -0.2149
22512W        W41366   5.907   7.012   0.737 -0.1774 -0.0066 -0.0705
22513W        W41367  11.957   5.221  12.623  0.2306 -0.1625  0.1972
22514W        W41368   0.513   9.169  11.347 -0.0074 -0.1444  0.2002
22515W        W41369   9.552  14.536   1.488  0.2756  0.2742 -0.2152
22516W        W41370   5.759  18.155   3.184  0.3783 -0.2856  0.0442
22517W        W41371   5.109   6.736  11.647 -0.1042 -0.1497 -0.0440
22518W        W41372   0.805   1.330   9.772  0.3682 -0.0315 -0.1253
22519W        W41373   1.719  13.423   0.535  0.0132 -0.1705 -0.0572
22520W        W41374   0.297  14.377   1.423 -0.0850  0.1026  0.3139
22521W        W41375   9.129   7.937  12.812  0.2564  0.3244 -0.0997
22522W        W41376  10.163   2.827   2.378 -0.0249  0.0634  0.0237
22523W        W41377  18.149  16.306   2.395  0.0975  0.0023  0.0349
22524W        W41378  12.691  16.993   0.969 -0.1765 -0.4574  0.1167
22525W        W41379  10.990   4.668   4.305 -0.0856 -0.0859 -0.0489
22526W        W41380   2.130  13.179  12.338 -0.1177  0.3575 -0.2318
22527W        W41381  12.431  15.501   0.343 -0.0870  0.5469  0.2035
22528W        W41382   3.881   0.890   1.846  0.1072  0.0263 -0.0794
22529W        W41383  12.353   7.148  14.968  0.3478  0.0050 -0.2392
22530W        W41384  12.843   5.719   1.221  0.0417 -0.0109 -0.0007
22531W        W41385  10.594  12.777   0.290  0.2529 -0.0681 -0.0499
22532W        W41386   1.993   9.368  11.050 -0.1938  0.0753 -0.1434
22533W        W41387  13.424   0.560   1.323 -0.1305 -0.1255 -0.0871
22534W        W41388   7.464  16.187   1.593 -0.1902 -0.1637 -0.2715
22535W        W41389   3.493  12.835   2.321 -0.1918 -0.1195 -0.3618
22536W        W41390  15.025  17.852  14.486 -0.0236  0.3273  0.0749
22537W        W41391  14.460   7.888   4.129 -0.4090  0.1100 -0.0735
22538W        W41392   8.236  15.629  15.160 -0.5135  0.0465  0.2261
22539W        W41393   8.920  15.551  11.115  0.3306 -0.0682  0.0551
22540W        W41394  10.291   0.952  13.035 -0.0297  0.0628  0.0246
22541W        W41395   0.859   8.303   4.243  0.2034  0.0665 -0.0098
22542W        W41396   5.170   9.721  11.781 -0.3094 -0.1240  0.0283
22543W        W41397  11.597   1.896  11.883 -0.0941  0.3082 -0.0857
22544W        W41398  16.675  12.332   2.747 -0.0835  0.1610 -0.2192
22545W        W41399   9.478   8.832   4.360  0.0090  0.0471 -0.0462
22546W        W41400  11.157   9.285   1.293  0.3123  0.3915  0.0893
22547W        W41401   9.925  13.407   4.206  0.1805  0.2554 -0.4160
22548W        W41402  17.173  12.983   3.759  0.0254 -0.0670  0.2209
22549W        W41403  14.615   8.447  14.513  0.1254 -0.0198  0.0591
22550W        W41404  16.185  14.715  10.897 -0.0275  0.3366 -0.0172
22551W        W41405   0.532   8.785  14.645 -0.1876  0.0551 -0.2008
22552W        W41406   3.393  10.943  11.901  0.6317  0.0653 -0.0518
22553W        W41407   8.894  16.298  11.656  0.2369  0.0867 -0.1329
22554W        W41408   2.615   9.309   1.806 -0.0688 -0.1250 -0.0340
22555W        W41409  14.338  11.080  11.135  0.2796  0.1445  0.2155
22556W        W41410  14.040  15.260  11.371  0.0872 -0.2864  0.0887
22557W        W41411   3.446   0.298   0.357  0.0425 -0.2913 -0.1243
22558W        W41412  17.953  14.282  13.083 -0.0379 -0.0314  0.0081
22559W        W41413   3.430  11.836  13.809  0.1097  0.2580  0.0638
22560W        W41414   2.954   6.008  12.500 -0.2207  0.1273  0.1525
22561W        W41415  16.731  14.851   0.380  0.0100 -0.2013  0.0993
22562W        W41416  18.085  13.714  14.754  0.2082  0.0356  0.2689
22563W        W41417  10.709  18.299   2.912 -0.3984  0.1322 -0.0508
22564W        W41418  10.728  13.619  13.893 -0.3328 -0.3078 -0.3780
22565W        W41419   2.272   4.426   1.912 -0.1769 -0.1584  0.0562
22566W        W41420   2.497  10.881  11.920  0.2926 -0.1213 -0.0111
22567W        W41421  15.383  11.370   1.450  0.0520 -0.1472  0.0197
22568W        W41422   0.255   5.905   4.424 -0.1213 -0.1972 -0.0283
22569W        W41423   3.119   8.287  14.856  0.3931 -0.1145  0.0153
22570W        W41424  15.943   5.476   5.641 -0.2568 -0.3660  0.0409
22571W        W41425   9.628  12.406   0.248  0.2720 -0.1072 -0.4244
22572W        W41426   0.306   3.097  12.530  0.2313 -0.1458  0.2454
22573W        W41427  11.840   8.972   3.484 -0.0020 -0.0123 -0.1573
22574W        W41428  13.921  13.727   1.575 -0.0032 -0.0513  0.0970
22575W        W41429   2.947   9.620  11.630 -0.0505  0.1815  0.2505
22576W        W41430   9.695   2.917   0.251 -0.0331  0.1685  0.4847
22577W        W41431   4.922  17.777  11.680  0.0621  0.1332 -0.1494
22578W        W41432  15.064   8.605  14.811  0.0138 -0.3086 -0.1814
22579W        W41433   8.666  17.290   1.897  0.2675  0.0203  0.2921
22580W        W41434   8.703   7.945   2.099  0.2096  0.0504  0.0547
22581W        W41435  14.952   9.975   3.266  0.1629 -0.1919 -0.1471
22582W        W41436  10.930  15.176   2.892 -0.2596  0.0683  0.2472
22583W        W41437  15.049  14.154   0.627 -0.1382 -0.0890  0.0634
22584W        W41438  11.634  10.366  14.381  0.1106 -0.2414 -0.0787
22585W        W41439  10.782  11.433  14.544  0.0600 -0.0557  0.2404
22586W        W41440   3.264   8.303  13.391  0.0652  0.0526  0.1934
22587W        W41441   7.858  10.108   0.313  0.1338 -0.0825 -0.1390
22588W        W41442   3.515   4.037   1.386 -0.1726  0.0200  0.3394
22589W        W41443   8.955   5.729  13.717 -0.0215  0.1210  0.0658
22590W        W41444   2.427   5.183   3.192 -0.0812  0.0004  0.2649
22591W        W41445   0.988   0.112   2.032  0.3001  0.0195 -0.2003
22592W        W41446   3.238  13.125   1.369  0.1409  0.1802  0.2406
22593W        W41447  11.565  11.442  14.798  0.0114  0.0040  0.0805
22594W        W41448  13.604   8.222   3.633  0.0605 -0.0852  0.0172
22595W        W41449  14.630  14.757  13.334 -0.1220 -0.0545  0.2059
22596W        W41450   6.578  10.970  14.702  0.0811  0.0363  0.3955
22597W        W41451  10.869  15.895  14.172 -0.0740  0.2438  0.0217
22598W        W41452  14.509  12.715   4.365  0.0252  0.1291  0.2794
22599W        W41453   9.962  12.000   0.244 -0.0664 -0.1557 -0.1273
22600W        W41454  12.487  11.740   0.754 -0.0058  0.2355  0.1637
22601W        W41455  12.022  11.675   5.651 -0.0242 -0.0673 -0.1485
22602W        W41456   2.341   0.266  13.593  0.5163 -0.0107  0.0055
22603W        W41457   1.710   7.618  11.968 -0.1031 -0.2609  0.0789
22604W        W41458   3.917  10.265   1.426  0.1886  0.1353  0.0225
22605W        W41459  15.161   9.238  12.169  0.2798  0.1899  0.0898
22606W        W41460  14.724   6.500  10.969 -0.3214 -0.1112 -0.0364
22607W        W41461  14.070  12.653  12.377  0.0727 -0.1060  0.1359
22608W        W41462  11.282   8.034  13.143 -0.0004  0.1155  0.0202
22609W        W41463   3.604   8.563  11.782 -0.1800  0.0435  0.0457
22610W        W41464   0.911   4.474   2.075  0.2343  0.1726  0.1903
22611W        W41465   9.710  17.856  14.438  0.0175 -0.0354 -0.2218
22612W        W41466  15.752   3.467   0.271  0.0710  0.1982  0.0477
22613W        W41467   2.640   6.485   4.241 -0.0669  0.0467 -0.3328
22614W        W41468   7.391   9.418  14.216  0.1290  0.0304  0.4685
22615W        W41469  16.568  13.059  12.607  0.0264 -0.0595 -0.0942
22616W        W41470   5.222  17.204   4.814 -0.0728 -0.1202 -0.0914
22617W        W41471   0.288   0.617  13.955 -0.1178 -0.1543  0.1748
22618W        W41472  15.336   0.483   1.080 -0.2038  0.1070  0.0993
22619W        W41473  12.308   8.790  10.309  0.0294 -0.1001  0.0116
22620W        W41474  15.946   2.560  12.857 -0.0664  0.0768  0.1090
22621W        W41475  11.995   8.642  10.738  0.0630  0.1527  0.1387
22622W        W41476   0.267   7.435  12.608 -0.5232  0.0604 -0.2735
22623W        W41477  10.544   7.030   3.516  0.0986  0.0300  0.0362
22624W        W41478   4.990   2.451   0.476  0.0385  0.1640  0.0858
22625W        W41479  11.763  17.849  14.278  0.1984  0.0699  0.1273
22626W        W41480   7.064  14.977  13.291 -0.2188  0.0901 -0.0580
22627W        W41481   3.808   6.031  14.940  0.1422  0.0682  0.0656
22628W        W41482  16.962  10.982  14.376 -0.1031  0.0096  0.0447
22629W        W41483  10.291   5.461   0.639 -0.0657  0.4367  0.0780
22630W        W41484  13.029   5.306   0.192 -0.0150  0.1444 -0.3456
22631W        W41485  12.814   5.390   2.268 -0.0051 -0.1399  0.1712
22632W        W41486  13.449   8.443  15.320 -0.3779  0.1465 -0.0118
22633W        W41487   3.805   2.241   0.057 -0.0175  0.3870  0.0510
22634W        W41488   8.347   0.467   1.776 -0.1725  0.2231 -0.2005
22635W        W41489   1.575   4.431   3.897  0.0559  0.0727  0.1904
22636W        W41490  11.542   7.721  12.833  0.1200  0.1226  0.1834
22637W        W41491   9.878  11.539  13.439 -0.0986  0.0430 -0.1462
22638W        W41492  11.111   2.376  14.832 -0.2040  0.1460 -0.0886
22639W        W41493   0.384   9.552   4.037  0.2119  0.1107 -0.2025
22640W        W41494   4.430  10.215  13.601  0.1624 -0.1825  0.0910
22641W        W41495   2.042  12.871  14.632  0.3481  0.1727 -0.1039
22642W        W41496   3.141   2.771   2.383  0.1126  0.2201  0.1902
22643W        W41497  13.090  16.826   3.841  0.2314  0.1593 -0.1733
22644W        W41498  13.699  11.784   3.162  0.0022  0.2502  0.0283
22645W        W41499   8.682  11.544  11.750  0.1901  0.1057 -0.0092
22646W        W41500   2.780   8.319  15.274  0.0238  0.0181  0.0674
22647W        W41501   3.579   1.185  14.042  0.0174 -0.0851  0.0029
22648W        W41502  12.287  15.258  14.804 -0.1000  0.3129  0.1887
22649W        W41503  17.266   5.298  13.524 -0.1520  0.1038 -0.0545
22650W        W41504  13.416   5.259   5.001 -0.0702 -0.1054  0.1854
22651W        W41505   0.876   4.173   0.092  0.1076 -0.2408 -0.3424
22652W        W41506   9.372   3.492  13.928  0.0413 -0.1930 -0.0429
22653W        W41507   1.106   1.779   2.571 -0.0399  0.1463  0.2857
22654W        W41508   9.200  14.322  14.704 -0.2984  0.1725 -0.3224
22655W        W41509  12.482  11.095  12.084 -0.2645 -0.1783 -0.2688
22656W        W41510   1.545   7.473   0.731 -0.1277 -0.0784  0.1250
22657W        W41511   4.055   0.984  14.264  0.1251  0.1135 -0.0824
22658W        W41512   6.726  16.755  13.125  0.1466 -0.0359 -0.0094
22659W        W41513   6.438  14.274   1.832  0.2032  0.1695  0.2911
22660W        W41514   1.717  14.228   2.260  0.0962 -0.2720  0.0431
22661W        W41515  13.319  11.240  11.119 -0.0282  0.1112  0.3833
22662W        W41516   3.856   4.860   1.100  0.0881 -0.0440  0.1023
22663W        W41517   2.679   7.593   3.715 -0.2738  0.2639 -0.0308
22664W        W41518  10.863   4.401  10.785  0.0837  0.3011 -0.3166
22665W        W41519  12.740   9.503   2.634  0.2450  0.2641  0.0076
22666W        W41520   3.019   9.073   2.515 -0.0230  0.2939  0.2680
22667W        W41521   0.802  15.653   2.734 -0.1094 -0.0167 -0.0394
22668W        W41522  11.727  16.511   3.091  0.0107  0.2463 -0.0202
22669W        W41523  12.860  13.134  12.314  0.4304 -0.2574 -0.1168
22670W        W41524   0.789  11.671  11.431  0.3587  0.0942  0.0419
22671W        W41525  13.345  18.280  12.936  0.1374 -0.0433 -0.0132
22672W        W41526   3.721   2.795   3.043 -0.0623 -0.1810  0.1761
22673W        W41527  13.410   4.017   4.148 -0.4029  0.0761 -0.1484
22674W        W41528   8.749   8.832   4.886 -0.0466  0.1513 -0.3054
22675W        W41529  13.288   4.417  15.354  0.0637  0.0775 -0.0689
22676W        W41530   3.590  14.115  12.159  0.1847 -0.3404  0.1617
22677W        W41531  14.373   2.946  14.969  0.2561  0.1266 -0.1069
22678W        W41532  15.353   2.310  14.725 -0.0375 -0.0932  0.1653
22679W        W41533   7.791  17.529   3.341  0.5225  0.0481  0.0322
22680W        W41534   4.297   1.448  15.238 -0.1128 -0.3080  0.0308
22681W        W41535  17.085   0.710   3.710 -0.0558 -0.0008 -0.1539
22682W        W41536   6.454  13.202   2.340 -0.1566 -0.1446  0.1887
22683W        W41537   0.277  12.173   5.330 -0.0080  0.2764  0.0978
22684W        W41538  11.868   1.741  15.078  0.0079  0.0875  0.2071
22685W        W41539   9.367   5.211   1.529 -0.0306  0.0061 -0.2518
22686W        W41540   8.393  17.406   1.413  0.1377  0.2425 -0.0341
22687W        W41541  17.601   7.433   9.941 -0.1413  0.0632 -0.0493
22688W        W41542   0.715  15.435   3.401  0.0502 -0.0299 -0.4480
22689W        W41543   9.735  12.134  11.470 -0.2589 -0.3358  0.0853
22690W        W41544   2.343  15.432   1.880 -0.5102  0.0400  0.2944
22691W        W41545  14.958   8.498  11.737 -0.0353  0.0267 -0.0976
22692W        W41546   4.580   1.137  15.032 -0.0533 -0.1118  0.1983
22693W        W41547   4.361   7.104  11.654  0.1200 -0.1767 -0.0330
22694W        W41548  11.984  14.847  12.312 -0.0370  0.0724 -0.1991
22695W        W41549  14.702  11.342  15.403  0.0190 -0.2076 -0.0270
22696W        W41550  11.547  12.393   4.472 -0.0239 -0.3348  0.0559
22697W        W41551   9.070   4.452   2.873 -0.1704 -0.0643 -0.0729
22698W        W41552  17.593  10.601   4.207 -0.2413 -0.0841 -0.0480
22699W        W41553   5.030   8.266   3.047 -0.0899 -0.1334 -0.2316
22700W        W41554   0.246  11.410   1.261 -0.3484 -0.3451 -0.0952
22701W        W41555   2.829  15.682  11.706 -0.4992  0.1429  0.0321
22702W        W41556  17.176  13.160   1.226 -0.2861  0.0486  0.1607
22703W        W41557   7.881   7.714   0.152  0.0476 -0.2130 -0.1565
22704W        W41558  15.947   5.256   3.544 -0.2044 -0.2866  0.0804
22705W        W41559  16.485  16.807   4.753 -0.2106 -0.0280  0.3485
22706W        W41560   9.301  17.100  15.320 -0.0519 -0.1332  0.0326
22707W        W41561  17.214   0.236  12.753 -0.3048  0.0057 -0.7031
22708W        W41562   9.286   2.159  14.508  0.5269 -0.2579  0.1066
22709W        W41563  14.408   3.807   3.995 -0.0490  0.0498  0.2577
22710W        W41564   8.702  10.947  12.844  0.1979 -0.1193 -0.5027
22711W        W41565   0.475  10.414   4.209 -0.0925 -0.2292  0.0246
22712W        W41566   0.531  10.606  15.082  0.1244  0.0587  0.2247
22713W        W41567  16.000   6.741   3.415 -0.0137 -0.2121 -0.0487
22714W        W41568   5.699  17.543  12.190 -0.0139  0.0229 -0.0836
22715W        W41569  15.647  14.399  11.032 -0.2261 -0.0675 -0.3055
22716W        W41570  18.251   1.278  13.250  0.1934 -0.0375 -0.1333
22717W        W41571   8.062   4.249   3.258  0.0718  0.1860 -0.0970
22718W        W41572   5.457   2.043  12.141 -0.2977  0.1310 -0.1691
22719W        W41573   6.443  16.662  14.288  0.2879  0.1804 -0.2344
22720W        W41574   6.546   2.014   1.369 -0.0318 -0.2000  0.2801
22721W        W41575  13.894   6.696   3.678 -0.1511 -0.3635  0.3877
22722W        W41576  13.111   5.335  13.777 -0.2298 -0.2981 -0.1515
22723W        W41577  16.242  12.715  15.087  0.1444 -0.0981 -0.4169
22724W        W41578  16.832  17.980   2.367  0.0426  0.0207  0.1220
22725W        W41579   3.035   3.250  12.768 -0.3595  0.3538  0.3050
22726W        W41580   5.444   3.375   1.722 -0.0075 -0.2299 -0.0835
22727W        W41581  16.248   5.709   0.092  0.0703  0.0035 -0.0381
22728W        W41582  10.073  18.155   0.936 -0.1886 -0.2048 -0.0929
22729W        W41583   8.240   7.248   4.874  0.0406 -0.1234 -0.0491
22730W        W41584   1.529  14.430  14.518  0.1097 -0.0765  0.1007
22731W        W41585  17.557  18.342  14.693  0.0310  0.0542 -0.3292
22732W        W41586   4.038   1.921  12.005  0.2382  0.3997 -0.0357
22733W        W41587   9.197  16.016  11.999 -0.0363  0.0540 -0.1694
22734W        W41588   0.506   4.065  12.736  0.1502  0.0929 -0.0298
22735W        W41589   8.994   4.959   3.807  0.0287 -0.0208  0.4582
22736W        W41590   0.786  14.557   0.335 -0.1426  0.2951 -0.1563
22737W        W41591  12.822  16.021  11.447  0.1576  0.1054  0.0937
22738W        W41592   8.475   4.934  10.153 -0.0446  0.1117  0.3304
22739W        W41593  12.158  11.002   1.386  0.0375  0.1014 -0.0302
22740W        W41594   8.214   0.975  13.585  0.0402 -0.0429 -0.3618
22741W        W41595  12.654   6.257   3.717 -0.1506 -0.0243 -0.0036
22742W        W41596  11.004  15.686   3.491 -0.2465 -0.0081 -0.1158
22743W        W41597  13.648   0.172  12.318 -0.1208 -0.3750 -0.2070
22744W        W41598   6.117   8.532   4.951  0.0327  0.0865  0.2358
22745W        W41599   0.702   5.112   2.007  0.0362 -0.0149  0.1070
22746W        W41600   5.992   6.013   3.909 -0.1966  0.1498 -0.0692
22747W        W41601   3.202  15.388  11.461 -0.0146  0.0406  0.2126
22748W        W41602   0.332  17.177  12.346  0.2497  0.2472 -0.1319
22749W        W41603  17.640  18.021   0.798 -0.1493  0.1724 -0.0742
22750W        W41604  14.496  11.532  12.448 -0.1158  0.2431  0.4864
22751W        W41605   5.917   1.015  10.966 -0.0792 -0.0927  0.0660
22752W        W41606   8.512   1.050  15.220  0.0602  0.1409 -0.1373
22753W        W41607   0.726   8.778  11.589 -0.3518 -0.0929 -0.0664
22754W        W41608   0.935  10.385   4.301  0.0977  0.2324 -0.1171
22755W        W41609  15.461   5.572  12.776 -0.0059  0.1111  0.2569
22756W        W41610  13.492  18.482   0.563  0.2865 -0.0102 -0.0700
22757W        W41611   4.853  10.748   3.150  0.7401  0.1597 -0.1050
22758W        W41612  15.664   6.064   4.085 -0.1287 -0.2137 -0.1199
22759W        W41613   7.798   8.288   1.537  0.1460 -0.4994 -0.3082
22760W        W41614   7.199   9.497  11.980  0.0356 -0.1580  0.2449
22761W        W41615   8.826  17.256  13.827 -0.1130 -0.1255 -0.2274
22762W        W41616   7.656  11.528   1.476  0.1641 -0.1064 -0.1549
22763W        W41617  16.378   1.140   4.235  0.1053  0.0331  0.2053
22764W        W41618  13.070  17.568   3.850 -0.0012 -0.0036 -0.2395
22765W        W41619  14.394   4.017  11.453 -0.3072 -0.0473  0.2658
22766W        W41620  11.750   7.725   1.717  0.1111 -0.1523 -0.0083
22767W        W41621  15.708  10.410   2.007 -0.0326  0.1368 -0.0210
22768W        W41622   2.878  14.333   1.631  0.1281 -0.0541 -0.0822
22769W        W41623  13.825  11.762   5.294  0.3652 -0.0805 -0.0699
22770W        W41624  12.720   7.977   4.893 -0.1114  0.0031  0.0945
22771W        W41625  11.165  10.258  14.215 -0.5531  0.2217 -0.1408
22772W        W41626  11.141   8.420  11.336 -0.0360  0.1536 -0.3027
22773W        W41627   6.627   8.299   2.189 -0.0763  0.1243  0.1077
22774W        W41628   0.187   8.278  13.388 -0.1015 -0.0996  0.3260
22775W        W41629   6.643   5.777  12.025 -0.2700 -0.1393  0.3523
22776W        W41630   5.770   9.945   1.288  0.1459  0.2864  0.1151
22777W        W41631  11.851  17.326  13.061 -0.1398  0.1634 -0.1067
22778W        W41632  12.376   0.703  13.538  0.1198  0.0888  0.1647
22779W        W41633  14.596   1.330   1.680  0.3317 -0.0017  0.1334
22780W        W41634   0.689  14.077   0.234  0.1848 -0.0256 -0.0988
22781W        W41635  17.686   6.096   2.613 -0.2301  0.0457 -0.1243
22782W        W41636  10.050   4.688   3.197 -0.2117 -0.4508  0.0231
22783W        W41637  10.634  10.397   3.261  0.0250 -0.3150 -0.1534
22784W        W41638  12.133   5.073   3.057 -0.2188 -0.1135 -0.4756
22785W        W41639   5.704   4.390  12.420  0.0269 -0.2185  0.0070
22786W        W41640   0.473  10.981   1.091 -0.0822  0.1315 -0.2875
22787W        W41641   7.916  15.648   1.158 -0.3570  0.0309  0.1214
22788W        W41642  16.204   8.440   1.152  0.0258 -0.1334 -0.0743
22789W        W41643   0.176   7.004   2.858  0.0396  0.1085 -0.0986
22790W        W41644   2.748  17.322   1.390 -0.0347  0.0102 -0.1469
22791W        W41645  14.697   5.169  11.945  0.1085 -0.0537  0.1048
22792W        W41646  15.489   0.139  13.373 -0.0278  0.2048 -0.0095
22793W        W41647   5.727   0.177  15.361 -0.0183 -0.1722  0.1902
22794W        W41648   9.037   3.087  14.259  0.3613 -0.1008  0.1761
22795W        W41649   8.670   3.967  15.158  0.0352 -0.0846 -0.0721
22796W        W41650  13.938   1.939  11.865  0.1519 -0.2820 -0.1121
22797W        W41651   0.997  12.319  15.305 -0.3129  0.0267 -0.0646
22798W        W41652   4.805   3.126  11.650  0.0894  0.2898  0.4411
22799W        W41653   5.248   6.433  10.725 -0.1248  0.1307  0.1739
22800W        W41654  15.464  14.837  12.527 -0.0432 -0.0840  0.0149
22801W        W41655   3.288  13.147  14.298  0.0126  0.1845 -0.0109
22802W        W41656  16.786  11.238  13.993  0.0082 -0.1511 -0.0935
22803W        W41657   1.245   8.672  14.208  0.2736  0.1363  0.0128
22804W        W41658   7.440   2.636  12.263  0.1787  0.0151 -0.0301
22805W        W41659  15.896  17.921   5.711 -0.0894 -0.0480 -0.3943
22806W        W41660  16.746   7.712   0.466 -0.1318 -0.0542  0.0114
22807W        W41661  12.105   8.513  11.602 -0.1216 -0.0585 -0.0315
22808W        W41662  15.203   5.761   1.532  0.0606 -0.0896 -0.0574
22809W        W41663   5.597   6.794   4.221 -0.0081 -0.1668 -0.0625
22810W        W41664  12.264   8.703   3.383  0.2367  0.1423  0.0703
22811W        W41665   0.992   7.007   2.596 -0.3039 -0.2574  0.1768
22812W        W41666  17.459   8.836  12.762 -0.0301 -0.1878 -0.0769
22813W        W41667   5.934   5.127   2.411  0.1007 -0.0582  0.2631
22814W        W41668  12.641   5.036   3.149  0.1884 -0.0868 -0.0096
22815W        W41669  12.192   2.230   1.725 -0.1510 -0.4077 -0.2188
22816W        W41670  17.209  17.187  11.515 -0.2910  0.0673 -0.1672
22817W        W41671   4.093  10.557   0.674 -0.2345 -0.0417 -0.1595
22818W        W41672   4.256   8.373   1.692  0.3192  0.0165  0.3691
22819W        W41673  14.436  11.445  14.862 -0.0251  0.0073  0.0567
22820W        W41674   7.927  10.218  13.845 -0.0637 -0.0799 -0.2958
22821W        W41675  15.232   7.171   2.410 -0.0507  0.3293  0.0168
22822W        W41676  18.337  18.128   1.555 -0.3011 -0.1118  0.1400
22823W        W41677   6.145   3.415   2.977 -0.0804  0.0746 -0.0462
22824W        W41678  10.700  13.699   4.803  0.1506  0.2574 -0.0505
22825W        W41679  12.668   0.053  11.360  0.2843  0.3912  0.2364
22826W        W41680  12.207  11.149   2.314  0.2657 -0.3022  0.0933
22827W        W41681   8.907   9.807   2.741 -0.1652  0.0311  0.2160
22828W        W41682   8.866  15.056  14.172 -0.0063 -0.2364 -0.2164
22829W        W41683  10.482   1.274   0.011 -0.0513 -0.0614  0.0974
22830W        W41684  12.611   7.277   1.803 -0.0093 -0.2094  0.0137
22831W        W41685   4.959   9.718  14.550 -0.0338  0.0153 -0.1379
22832W        W41686   9.607   4.683  14.877  0.0127  0.0301  0.0189
22833W        W41687   2.159   5.878   3.041 -0.1013  0.1941  0.0445
22834W        W41688   1.019  13.316   2.416  0.3044 -0.2848  0.5955
22835W        W41689   1.764   0.907  10.206  0.2236 -0.5588  0.2436
22836W        W41690   2.702   4.185   3.606  0.1406 -0.0774  0.2451
22837W        W41691  17.671  15.113   2.570 -0.0614 -0.1499 -0.0007
22838W        W41692  14.895   0.507  13.106 -0.0392 -0.0793 -0.0593
22839W        W41693  11.306  15.387  14.663 -0.0542 -0.3447 -0.4046
22840W        W41694   3.440  10.026   0.714  0.2381 -0.0391 -0.5748
22841W        W41695  11.267   2.300  15.351  0.2305 -0.0863  0.2894
22842W        W41696   4.166  17.231  11.239 -0.2925  0.0785 -0.0742
22843W        W41697   5.905   0.942  12.891 -0.1094 -0.2587  0.1871
22844W        W41698  18.508   4.958   0.166  0.1358 -0.1025 -0.2445
22845W        W41699   1.766  12.753  12.380  0.0523 -0.0602  0.2698
22846W        W41700  17.524  16.650   0.263 -0.3238 -0.0879 -0.2596
22847W        W41701   8.513   1.104   3.485 -0.2595 -0.1488 -0.2713
22848W        W41702  17.674   9.683  13.621 -0.1961  0.0202  0.0340
22849W        W41703   4.696   1.061  10.452  0.2281 -0.0650 -0.3609
22850W        W41704   7.349   0.373   1.025  0.1249 -0.0522 -0.0947
22851W        W41705  13.566   7.546   3.030  0.0126  0.1478  0.1467
22852W        W41706  10.166   6.318   1.769  0.2561 -0.0769  0.0986
22853W        W41707  11.303   4.941  13.648  0.1121  0.0386 -0.1057
22854W        W41708  16.155   2.427  11.503  0.4218  0.0918 -0.4883
22855W        W41709  17.175   5.908   2.624 -0.2990  0.3712  0.0612
22856W        W41710   5.811   3.993  11.606 -0.1194 -0.1138  0.1309
22857W        W41711   5.323  14.228   3.499  0.2962  0.1368  0.0884
22858W        W41712   1.225   7.591  13.100 -0.2164 -0.0418 -0.1282
22859W        W41713   4.547  16.167   3.488 -0.1009  0.3560  0.1702
22860W        W41714  16.751  10.154   3.197  0.0176 -0.0847  0.1104
22861W        W41715   8.545  10.130   1.548 -0.2210 -0.2123 -0.2283
22862W        W41716   6.572  18.016  14.273  0.1264  0.0471  0.1026
22863W        W41717   6.862   2.012  10.855 -0.1257  0.1671 -0.0012
22864W        W41718  11.138  17.245  14.998  0.6201 -0.0768  0.2066
22865W        W41719  14.419  11.492  13.831  0.1502 -0.2015 -0.0767
22866W        W41720  11.536   8.364   1.130 -0.2397  0.0165  0.2223
22867W        W41721   5.191  15.750   0.007 -0.0434  0.1098 -0.1487
22868W        W41722   1.325  11.218  10.986  0.3921  0.0373  0.4938
22869W        W41723   1.102  17.621   0.139 -0.2276 -0.1414 -0.0617
22870W        W41724  11.265  12.407   2.132 -0.0887 -0.1070  0.1101
22871W        W41725   2.024   4.780   2.711 -0.1314 -0.0845  0.0672
22872W        W41726  11.182  10.760  11.687 -0.2341 -0.0269  0.0526
22873W        W41727  12.007   3.862  14.863  0.2410  0.1989 -0.1344
22874W        W41728   0.210  16.251   3.449 -0.2390  0.0994 -0.2378
22875W        W41729  18.508  17.813   3.134  0.4809 -0.0366  0.0112
22876W        W41730   2.272   8.517  15.140 -0.2912 -0.0061 -0.1339
22877W        W41731   7.953  10.534   2.315  0.1645  0.3794  0.0695
22878W        W41732   0.069   9.077   1.644 -0.0148  0.0505  0.1659
22879W        W41733  15.078   2.815  11.150  0.1458 -0.0318 -0.1252
22880W        W41734   6.190   4.903   4.951 -0.2861 -0.1146  0.1034
22881W        W41735   5.696  12.343  13.342 -0.1214 -0.1636  0.1846
22882W        W41736   2.750   3.089  12.235  0.0416  0.1960  0.4340
22883W        W41737  17.890  14.240  12.557  0.2210 -0.0725 -0.0327
22884W        W41738  18.014  15.534   1.762 -0.4325  0.1892  0.1542
22885W        W41739   2.598  11.625   1.069  0.0498 -0.1651 -0.0737
22886W        W41740   4.675   9.501  13.252  0.2168  0.0062 -0.1289
22887W        W41741   8.529  18.061  13.548 -0.3631 -0.0677 -0.0884
22888W        W41742  11.372   3.143  13.293 -0.0024  0.0928  0.0313
22889W        W41743   6.665  18.448  15.013 -0.3452  0.3203 -0.1761
22890W        W41744   5.720   5.437  13.294  0.3943 -0.2949  0.0920
22891W        W41745  11.164  14.231   2.604  0.0933  0.1488  0.2594
22892W        W41746  13.441   7.322  13.064 -0.1313  0.2198 -0.2778
22893W        W41747   2.895  17.655   3.128 -0.0141  0.0191 -0.2880
22894W        W41748   7.250  15.593  15.086 -0.1276  0.1769  0.1355
22895W        W41749   7.584   5.140  13.694 -0.2165 -0.3796  0.0384
22896W        W41750   8.103  13.439   4.197 -0.4101 -0.0254 -0.1728
22897W        W41751   6.380   5.879  13.396 -0.0230 -0.0268  0.1857
22898W        W41752  11.337  12.505  13.138 -0.1867 -0.0604  0.1637
22899W        W41753   3.416   7.287   0.530  0.0047 -0.0698 -0.1165
22900W        W41754  12.857  16.904  13.549  0.1876  0.3255 -0.1066
22901W        W41755   0.713   8.383   3.552  0.1025 -0.0088 -0.3023
22902W        W41756   4.865  17.190   1.334  0.0182  0.2490  0.2393
22903W        W41757   6.650   0.465   0.803  0.0086 -0.1669  0.2476
22904W        W41758  17.580   4.246  13.178  0.3695  0.2804 -0.0666
22905W        W41759  11.279  16.654   3.135 -0.0170  0.1295 -0.2079
22906W        W41760   2.442   1.323  14.596 -0.0281  0.1717 -0.1357
22907W        W41761   8.190   3.298   5.468  0.2283 -0.2454 -0.1079
22908W        W41762   7.230   2.589   1.101 -0.2634  0.1773 -0.1169
22909W        W41763  17.551  15.342   1.525 -0.2215 -0.0858  0.0965
22910W        W41764  10.521   0.338   1.019  0.2263 -0.0036 -0.2649
22911W        W41765   1.899   8.130   4.096  0.1340 -0.1361  0.0609
22912W        W41766  15.191  12.064   1.960  0.1818  0.1445 -0.0860
22913W        W41767  13.921   8.451  12.053  0.0395  0.0997 -0.0281
22914W        W41768   9.067  13.686   1.227  0.0154  0.2839 -0.3500
22915W        W41769   2.981  10.008  14.427  0.1549 -0.1458 -0.1579
22916W        W41770  13.746   7.540  12.575 -0.5421 -0.0813 -0.2520
22917W        W41771  14.623  14.995   0.526 -0.2846  0.0524  0.0160
22918W        W41772   0.755  18.358   1.103  0.2263  0.0094 -0.2249
22919W        W41773   8.571   3.394  12.855 -0.1066 -0.1795 -0.1839
22920W        W41774  10.107  14.880   3.086  0.0105  0.0401 -0.0771
22921W        W41775   0.717  16.924   0.744 -0.1919  0.0382  0.0153
22922W        W41776   3.563   0.710   2.166 -0.0529 -0.2517  0.0603
22923W        W41777   1.201  10.999  14.525 -0.0337  0.3110  0.1059
22924W        W41778   7.841   0.797  14.800 -0.0721 -0.3839  0.1141
22925W        W41779   1.639  16.366  14.449  0.0102  0.1113 -0.3855
22926W        W41780   1.055  12.428  11.933  0.4012  0.4060  0.0981
22927W        W41781  11.043   5.008   2.421 -0.1013  0.3245 -0.0154
22928W        W41782  12.026  11.598  13.822  0.2104 -0.1130 -0.2647
22929W        W41783   4.192   7.045   0.363 -0.2304  0.0086 -0.1339
22930W        W41784  11.222  13.980  13.128 -0.1106 -0.2369  0.1262
22931W        W41785  11.432   7.391   0.673  0.2054 -0.1031 -0.1403
22932W        W41786  11.764   6.401   3.687  0.2420 -0.0048  0.2686
22933W        W41787  14.037   0.043  13.503 -0.1340  0.1285  0.3328
22934W        W41788   6.744  11.997  12.484  0.0053 -0.0420 -0.3386
22935W        W41789  11.418   0.112  11.512 -0.1063  0.1756 -0.1258
22936W        W41790   9.662   2.733  11.220  0.0673 -0.2444  0.1771
22937W        W41791   6.575  14.325  11.687 -0.1448  0.3632 -0.0364
22938W        W41792  15.696   1.728  11.487  0.0142  0.0658 -0.1911
22939W        W41793  17.022   1.755  12.376  0.0901  0.1223  0.0537
22940W        W41794   3.266   2.451   1.849  0.1820 -0.1070  0.0530
22941W        W41795  17.030  11.948  11.476  0.1493  0.0330  0.1588
22942W        W41796  12.317   1.616   0.479  0.2058 -0.0733 -0.2055
22943W        W41797   1.287   2.751  11.719  0.0538 -0.0890 -0.1415
22944W        W41798  18.509  13.898   3.596  0.0936  0.1852  0.1338
22945W        W41799   6.385  14.840   3.987  0.1949 -0.1984  0.0245
22946W        W41800  16.756   5.332  11.212 -0.0086 -0.1356 -0.1843
22947W        W41801  10.953   1.692  13.580 -0.0346  0.1206  0.0005
22948W        W41802   5.573  15.773   0.415  0.1616 -0.0640 -0.0959
22949W        W41803  11.750   5.935   2.694 -0.2269 -0.2712 -0.1630
22950W        W41804   0.259  12.260   0.316 -0.0400 -0.1884  0.0305
22951W        W41805   7.495   4.250  14.686  0.3325 -0.3263 -0.0431
22952W        W41806   1.437   3.693  14.276 -0.2732 -0.1052 -0.1470
22953W        W41807   4.496   6.857  12.674  0.1496  0.2313 -0.2502
22954W        W41808  13.398  10.668   3.432  0.3002  0.2686  0.3756
22955W        W41809   0.336  12.199  14.345  0.0582  0.2017  0.2748
22956W        W41810  10.779   6.021  10.884 -0.1426  0.2180  0.0561
22957W        W41811   1.065   6.344  15.412 -0.3236 -0.0164  0.0222
22958W        W41812   0.049  13.155  15.412 -0.0288 -0.3804  0.1198
22959W        W41813   2.911  16.591   1.669 -0.0736 -0.4883 -0.5212
22960W        W41814  11.209   7.862   3.699  0.4878 -0.0670  0.0054
22961W        W41815   4.377  17.725   2.967  0.0493 -0.0110  0.1482
22962W        W41816  10.455   0.611   2.018 -0.2812  0.0435  0.1764
22963W        W41817  17.097  17.687  12.829  0.3347 -0.0031  0.0401
22964W        W41818  11.616   4.201  13.305  0.1878  0.3251 -0.1823
22965W        W41819  17.904   2.461  14.063 -0.1420 -0.0440 -0.0943
22966W        W41820   8.375  15.257  13.472  0.0861 -0.1655 -0.0604
22967W        W41821   8.577  12.995   3.232  0.2512  0.5216  0.2228
22968W        W41822  16.306   4.812  15.283 -0.0261  0.1626  0.0963
22969W        W41823  18.354  11.697  12.951  0.0658 -0.1240 -0.3084
22970W        W41824   5.166   8.077  10.968  0.0912  0.1383  0.1923
22971W        W41825   3.771  16.400   1.601 -0.1173 -0.1335  0.2991
22972W        W41826   2.295  12.315  14.414 -0.1744 -0.5211 -0.0154
22973W        W41827   1.430  17.479  13.105  0.2531 -0.1389  0.1217
22974W        W41828  16.160   6.228   3.876 -0.0962  0.0788 -0.0463
22975W        W41829   7.872   9.785  12.180  0.2348  0.0490  0.0509
22976W        W41830  16.990   1.542   1.163 -0.1377  0.1670 -0.3343
22977W        W41831   3.011   0.140   0.535 -0.3323  0.0816  0.0682
22978W        W41832  13.675  11.098   4.234  0.0170  0.1100  0.2066
22979W        W41833  17.528   7.083   1.708  0.1313 -0.1141 -0.0570
22980W        W41834  12.276   4.415  11.073 -0.1324 -0.0609  0.4923
22981W        W41835  17.778   5.498   0.108  0.2263 -0.2291  0.2870
22982W        W41836   6.121  10.325   0.323  0.1317 -0.0686 -0.0486
22983W        W41837  17.971  14.028   3.598  0.0590  0.2331 -0.3589
22984W        W41838   9.635   6.832  12.491  0.2366 -0.0785 -0.2290
22985W        W41839  12.567   5.503  12.169  0.0576 -0.0169  0.0963
22986W        W41840   2.634  15.783   0.473 -0.3050 -0.0587 -0.0195
22987W        W41841  16.514   5.119   2.816 -0.4067 -0.0844  0.4861
22988W        W41842   7.602   8.321   3.236 -0.0051  0.1234  0.1247
22989W        W41843   5.627  16.260   0.522  0.1079 -0.0103 -0.2454
22990W        W41844  14.327   5.354  11.156 -0.1780 -0.1672 -0.1992
22991W        W41845   5.005   6.407  15.457  0.0185  0.1572 -0.0082
22992W        W41846   6.659   4.240  13.140  0.0664  0.3146 -0.0454
22993W        W41847   4.751  13.404   3.056  0.1305 -0.0364 -0.3337
22994W        W41848   3.643   1.042   4.187 -0.3473 -0.0914 -0.1861
22995W        W41849  13.611  14.161   0.502 -0.0756  0.0676 -0.0281
22996W        W41850  10.938  10.019  13.814  0.0737  0.1291  0.0562
22997W        W41851   3.313   0.823  11.308 -0.2562 -0.1988  0.0827
22998W        W41852   3.669  12.369  14.741  0.1172  0.1107  0.0642
22999W        W41853  18.213  13.222   3.388 -0.1560 -0.0011  0.0528
23000W        W41854   5.458  11.620  11.563  0.1161 -0.1148 -0.1719
23001W        W41855  17.274   0.489   5.078  0.3800  0.0455  0.1696
23002W        W41856  12.781  14.984   1.044  0.0566 -0.0301  0.1308
23003W        W41857  13.363   6.519   4.448 -0.0374 -0.1401  0.1689
23004W        W41858   5.520  18.423   0.634 -0.2366 -0.0289 -0.0080
23005W        W41859   1.496   2.828  14.582 -0.1989 -0.0367 -0.0047
23006W        W41860  11.892  12.283   0.250  0.4539 -0.1027  0.2086
23007W        W41861  11.514   5.113   2.541 -0.0398  0.0783  0.3275
23008W        W41862   4.838  17.281  11.627  0.1011  0.0351 -0.0268
23009W        W41863  13.908   5.444  11.421  0.2250 -0.0775  0.2665
23010W        W41864   7.323  16.985  11.209  0.0717 -0.0624  0.4913
23011W        W41865  15.514   3.492   5.248 -0.0124  0.0971 -0.0229
23012W        W41866   7.969  15.150  12.054 -0.1246 -0.0579 -0.2530
23013W        W41867  18.502  16.231  15.344 -0.0120 -0.0120 -0.0709
23014W        W41868   6.377   8.671   3.798  0.4834  0.0917 -0.0591
23015W        W41869  12.282  17.851  14.397 -0.1044  0.1256  0.1597
23016W        W41870   0.079   1.048  10.779 -0.0003  0.1393 -0.0967
23017W        W41871   8.621   2.446   1.180 -0.1223  0.0534  0.2243
23018W        W41872   9.646   2.866   2.274 -0.1172 -0.1422  0.4891
23019W        W41873  10.981  14.412   4.971  0.1815  0.0646 -0.2490
23020W        W41874   3.150   6.045  11.572 -0.2418  0.2208  0.1301
23021W        W41875   2.153   2.502   2.230  0.0783  0.1750  0.0514
23022W        W41876  17.961   0.224  11.715  0.2674 -0.1293  0.1576
23023W        W41877  12.451   7.061   0.651 -0.0705 -0.2988  0.0248
23024W        W41878  13.598  17.940   1.329  0.1070 -0.2544 -0.0592
23025W        W41879  10.123   3.796  11.693 -0.3040 -0.0369 -0.1204
23026W        W41880   9.739   2.354   1.479  0.3092  0.0845  0.1660
23027W        W41881  11.726   4.500  13.917  0.3140 -0.3346 -0.0279
23028W        W41882   9.935   0.228   3.687  0.4158  0.0889  0.0474
23029W        W41883  14.838   1.746   3.536  0.1450 -0.1304 -0.3401
23030W        W41884   5.211   3.372  12.460 -0.1387  0.1445  0.1979
23031W        W41885   4.404  11.367   0.384  0.1942  0.0026  0.2161
23032W        W41886   1.103   4.649  12.254 -0.1710  0.0279  0.3713
23033W        W41887  17.615   0.257   0.609  0.4985  0.1444  0.3519
23034W        W41888  15.146   9.946   1.130  0.0934  0.2071 -0.1715
23035W        W41889   5.786  14.737   1.360 -0.1350 -0.2540  0.3540
23036W        W41890   1.270   8.075   4.072 -0.3249  0.0203 -0.0218
23037W        W41891  16.733   8.415   1.095  0.0125 -0.0433 -0.0106
23038W        W41892   5.271  16.257   2.228  0.1949  0.2527 -0.1327
23039W        W41893   1.066  16.538  10.046  0.4643 -0.0994  0.1050
23040W        W41894   7.064   5.328  12.674 -0.0025  0.1794 -0.0074
23041W        W41895  12.329  14.139  12.959 -0.1614  0.0778 -0.0416
23042W        W41896  15.525  16.187   0.114  0.1369 -0.0482 -0.1813
23043W        W41897  11.936  17.828  11.644 -0.1901 -0.0629 -0.0519
23044W        W41898  11.809  12.829   1.707  0.0580  0.0286  0.1955
23045W        W41899  16.352   3.375  13.842  0.0014  0.1161 -0.1911
23046W        W41900  11.890  13.653   3.583  0.2026 -0.0415  0.2172
23047W        W41901  15.746  12.794   1.807 -0.3792  0.1122 -0.2739
23048W        W41902  17.976  11.082  14.405 -0.1792 -0.0373 -0.0590
23049W        W41903  10.703  17.488  15.340 -0.0315  0.3391  0.0666
23050W        W41904  14.516   6.072  14.858 -0.3980 -0.1336 -0.0492
23051W        W41905  15.374   8.893   5.546  0.1998 -0.0310  0.0375
23052W        W41906   6.651   6.124  13.016 -0.0252 -0.1544 -0.2683
23053W        W41907   0.975   3.199  14.044  0.1280 -0.0340  0.3093
23054W        W41908   2.720   2.143   4.049 -0.2153  0.2328  0.3576
23055W        W41909  15.501  15.219  13.423  0.0465 -0.0301  0.0759
23056W        W41910   0.867   0.549  10.448 -0.2061 -0.0071  0.2258
23057W        W41911  11.509   1.290   2.053 -0.1119 -0.0928  0.2552
23058W        W41912   7.076   6.222   3.153 -0.1530 -0.0498  0.1843
23059W        W41913   5.227   3.133  15.206 -0.3146  0.0786  0.0594
23060W        W41914  15.551   0.252  11.492  0.0451  0.0416  0.2222
23061W        W41915  15.940  13.341  14.236  0.0264 -0.1131 -0.1480
23062W        W41916   7.603   6.492   4.105 -0.1464 -0.2838  0.1352
23063W        W41917   4.704  15.408  14.501  0.0931  0.0142 -0.0729
23064W        W41918  12.136  12.977   0.823  0.1036  0.0037  0.1478
23065W        W41919   9.619  13.164   4.686  0.0232 -0.2576  0.0035
23066W        W41920  13.504  13.629   3.198  0.1433  0.2148  0.1090
23067W        W41921   5.055   1.004  15.164  0.1887 -0.1347 -0.1738
23068W        W41922  17.667  17.994   0.301 -0.3968  0.2516 -0.0864
23069W        W41923   9.826  11.238   4.089  0.1214 -0.1395  0.3339
23070W        W41924  11.207  15.747   0.820  0.1745 -0.1572  0.1025
23071W        W41925   3.147   0.761   3.479  0.0331  0.2473  0.0495
23072W        W41926   0.782   0.899   3.757 -0.2125 -0.1108  0.0064
23073W        W41927  14.150   1.620   1.743  0.0821  0.0651 -0.0015
23074W        W41928   6.381   4.307   1.079  0.2673 -0.0693  0.3607
23075W        W41929  17.123  14.504   0.334 -0.0184 -0.2260  0.0027
23076W        W41930   4.846  16.480  11.917 -0.2990 -0.4559  0.1306
23077W        W41931   3.992  18.237  11.441 -0.0638  0.1541 -0.0193
23078W        W41932  12.174  15.223   4.832 -0.0630 -0.2377  0.1560
23079W        W41933   5.742  16.001   2.629  0.0856  0.0868 -0.2823
23080W        W41934   6.044   5.019   1.385 -0.0929  0.0468  0.1335
23081W        W41935  14.085  16.707   3.245 -0.0289 -0.0879  0.3577
23082W        W41936  13.655   3.960   1.884  0.0212 -0.1787 -0.0730
23083W        W41937   5.392   2.878   0.616  0.0652  0.0368  0.2200
23084W        W41938  15.776  17.590  12.532 -0.3376  0.0944 -0.1191
23085W        W41939  15.269   9.516  13.317  0.3128  0.1641 -0.2928
23086W        W41940   0.910   2.637   2.343  0.3082 -0.1284  0.2661
23087W        W41941   5.368  11.620  13.820  0.1831  0.2765  0.0482
23088W        W41942  16.971   6.574   4.075 -0.3514 -0.0537 -0.0842
23089W        W41943   7.825  11.466  13.650 -0.0651 -0.0924  0.2490
23090W        W41944  11.798   1.565   2.348  0.4499  0.1465  0.0369
23091W        W41945  16.718   4.040  12.639  0.3360  0.2876  0.0438
23092W        W41946  10.233   8.612  14.902  0.0682 -0.0572  0.1931
23093W        W41947   4.826   2.452   0.997 -0.3478 -0.3071  0.3144
23094W        W41948   0.210  15.692   1.992  0.0596 -0.0696  0.1617
23095W        W41949   8.767  10.753  11.686  0.3079 -0.0299  0.3568
23096W        W41950  13.990  16.575   0.654 -0.0603 -0.1249  0.0143
23097W        W41951  12.917   8.825  14.824 -0.0282 -0.0274  0.0512
23098W        W41952  16.893   0.403   4.444 -0.1720  0.0804 -0.0049
23099W        W41953   1.874  14.959  11.940  0.0028 -0.2977  0.2224
23100W        W41954   0.489   7.079  13.766 -0.0935  0.2194  0.0347
23101W        W41955   4.135   2.382  14.632  0.2783  0.1652  0.4094
23102W        W41956   0.125   4.951   3.241 -0.3518 -0.0419  0.2031
23103W        W41957   9.083   8.586  11.804  0.2621  0.2023 -0.2905
23104W        W41958   8.866   7.881   0.153  0.0196  0.1122  0.0787
23105W        W41959  10.599  10.206  10.487  0.2332 -0.0310 -0.0483
23106W        W41960  18.288  14.908  12.450 -0.2133  0.2371 -0.3229
23107W        W41961   7.544  10.853   0.309 -0.3462  0.2943  0.1315
23108W        W41962   2.595   9.064   2.773 -0.0559  0.0364  0.1228
23109W        W41963   4.184   3.981   0.494 -0.1459 -0.0547 -0.2013
23110W        W41964   7.184  15.411  11.326  0.0428  0.0221 -0.0045
23111W        W41965   0.660   4.008  14.525 -0.4885  0.1595  0.1075
23112W        W41966   6.369   4.650  13.074 -0.0476 -0.0778 -0.0369
23113W        W41967  15.853  18.154   2.226  0.5669  0.0813  0.2359
23114W        W41968  17.021   7.070   1.845 -0.1876  0.0228 -0.0870
23115W        W41969  13.598   1.353   4.693 -0.0060 -0.2295 -0.1603
23116W        W41970  10.342   3.643  10.364 -0.1644  0.0160  0.1960
23117W        W41971  12.009   8.183   0.843 -0.1112  0.0570  0.1518
23118W        W41972  14.879  17.327  12.042  0.0004 -0.1203  0.2238
23119W        W41973  13.303   1.192   2.565  0.1833 -0.2266  0.0103
23120W        W41974   3.452  10.488  14.004 -0.0902 -0.0054  0.1083
23121W        W41975  13.892  15.750  14.039  0.2693  0.0519 -0.0808
23122W        W41976   5.303  16.883  10.630 -0.0380  0.1015 -0.2235
23123W        W41977   0.687   3.867  10.454 -0.0540 -0.1786 -0.3781
23124W        W41978   4.623   1.975  13.738  0.1537 -0.2089 -0.0828
23125W        W41979   4.743  12.551  11.530  0.1856  0.0791 -0.1244
23126W        W41980   5.803   3.703   0.764 -0.2732 -0.2134 -0.3086
23127W        W41981   1.249  15.096  13.115 -0.2171 -0.5404  0.1948
23128W        W41982  12.938  15.320   0.571  0.0440  0.0658 -0.0437
23129W        W41983  16.682  12.159  12.836 -0.0590 -0.1233  0.0150
23130W        W41984   9.082  18.273  12.656 -0.2737 -0.1132 -0.3471
23131W        W41985   9.998  15.844   0.044 -0.0778  0.2090 -0.3511
23132W        W41986  17.892   6.074   2.138 -0.2500  0.0871  0.1945
23133W        W41987  13.261   3.451   4.854  0.1503 -0.1810  0.1515
23134W        W41988   7.455   5.967  11.654 -0.0817  0.0503 -0.1490
23135W        W41989   2.233   1.022   3.847 -0.0892 -0.0373  0.0710
23136W        W41990  11.415  12.785   3.110 -0.2218 -0.2076 -0.2572
23137W        W41991  17.426   5.595   3.829  0.2149  0.1496  0.0646
23138W        W41992   8.649  16.339  12.472 -0.1826  0.0307 -0.0079
23139W        W41993   5.616   0.872   3.014  0.0594  0.1551 -0.0643
23140W        W41994   6.807   2.605  14.051 -0.1084  0.0024  0.0801
23141W        W41995   9.914   2.654   1.038 -0.1293  0.0994 -0.1938
23142W        W41996   9.513  10.467   1.664 -0.0112  0.1035 -0.2166
23143W        W41997  10.492  17.438  13.144  0.0620  0.0783 -0.1935
23144W        W41998   1.000   6.093   0.959  0.1132  0.1560  0.2095
23145W        W41999  11.824  13.104  11.578  0.1648  0.0474 -0.1811
23146W        W42000   3.088   6.437  12.750  0.2210 -0.0997 -0.2251
23147W        W42001  12.150  12.701  11.504 -0.2659 -0.3133  0.1300
23148W        W42002  16.567   1.146  11.326  0.1177 -0.1364 -0.0618
23149W        W42003  11.304  16.177  14.313  0.0304  0.0742  0.0725
23150W        W42004   2.585   7.062  14.437 -0.1755 -0.0941  0.1969
23151W        W42005   5.773  14.199   0.894  0.1155  0.2512  0.4202
23152W        W42006  16.665  13.200   4.624 -0.1926  0.1766 -0.2758
23153W        W42007   2.863   1.296  12.313  0.1465  0.0464 -0.3847
23154W        W42008  16.374   6.175  15.257 -0.0998  0.3640 -0.1558
23155W        W42009  11.687  11.348   5.044 -0.0658  0.1439  0.0079
23156W        W42010  10.774   6.173  11.898  0.0644 -0.1781  0.1252
23157W        W42011   4.077   8.058  13.863  0.2474  0.1795  0.0763
23158W        W42012   6.822   9.939  12.335  0.2889  0.0029 -0.2734
23159W        W42013  11.665   5.265  12.177  0.1941 -0.0040 -0.0013
23160W        W42014  10.024  18.297  13.645 -0.1660 -0.1070  0.1042
23161W        W42015  12.393   9.431  14.544 -0.1569 -0.1996  0.1377
23162W        W42016  16.614   5.234  15.354  0.4280 -0.3231 -0.0820
23163W        W42017  16.088  13.619  10.547  0.1863 -0.5040 -0.0246
23164W        W42018   8.183   4.716  12.471  0.1963 -0.3734 -0.0686
23165W        W42019   6.934   1.399   0.506 -0.4794  0.0502 -0.2994
23166W        W42020   3.550   7.360   2.912  0.0364 -0.2347  0.1805
23167W        W42021   3.566  14.150  14.214 -0.0438  0.1609 -0.3468
23168W        W42022  10.088   0.478   1.250  0.2277 -0.0167 -0.0791
23169W        W42023   0.945   1.317   1.953  0.1317  0.1376 -0.1884
23170W        W42024   3.901   8.328   0.099  0.1111  0.3706  0.1791
23171W        W42025   2.660   8.478  12.404 -0.2483  0.0438  0.0672
23172W        W42026   3.519   6.803   1.657  0.0133 -0.1093 -0.0861
23173W        W42027  13.969  10.837   0.178  0.3428  0.2084  0.1461
23174W        W42028  14.428   7.246  14.100 -0.1292 -0.0431 -0.1532
23175W        W42029  11.324  17.225  14.295 -0.2069 -0.0641 -0.0902
23176W        W42030  15.932   6.167   0.082 -0.2520  0.0599  0.2284
23177W        W42031   4.850  10.093   1.728 -0.0208 -0.3573  0.0988
23178W        W42032   5.361   4.705  14.805  0.1539  0.3829 -0.1802
23179W        W42033   8.721   3.831   2.008  0.2131  0.2203  0.3069
23180W        W42034   3.722   7.928  14.214  0.2175 -0.1210  0.0408
23181W        W42035   0.049  15.298   3.582  0.1477 -0.0238  0.0552
23182W        W42036  13.112   5.422  14.769  0.1330 -0.0275 -0.0788
23183W        W42037   2.703  17.487   3.807  0.0569  0.1739  0.0598
23184W        W42038  13.521  11.096   1.918 -0.0511  0.2007  0.0332
23185W        W42039   4.717   9.733  15.014 -0.0572  0.0661 -0.2069
23186W        W42040   8.783   8.058   4.028  0.0591  0.1058 -0.0716
23187W        W42041  18.145  17.115   3.949 -0.3084  0.0472  0.1091
23188W        W42042   7.056  11.201   5.390  0.0907  0.2661  0.0020
23189W        W42043   9.293  16.026   4.722  0.1467  0.1952 -0.1895
23190W        W42044   2.032   1.413  12.116 -0.0337 -0.0412  0.0624
23191W        W42045   6.784  16.982   1.932  0.1588 -0.0922 -0.0458
23192W        W42046   6.130   0.402   0.064 -0.1437 -0.2251 -0.1187
23193W        W42047   4.645   0.942   1.186  0.1996 -0.0544 -0.1826
23194W        W42048  11.498   4.193  12.296  0.0372 -0.1984  0.2431
23195W        W42049   5.294   8.688  14.609  0.3773  0.3259 -0.0826
23196W        W42050   3.170   6.879  13.709  0.0307  0.1263  0.2062
23197W        W42051   9.486  14.861  13.440 -0.0937  0.2383  0.0480
23198W        W42052   8.111   7.388  12.434 -0.1982  0.1557  0.0272
23199W        W42053   3.063   0.959   1.811  0.1270  0.2438  0.0225
23200W        W42054   2.707   7.978   0.830 -0.1548 -0.1097 -0.2340
23201W        W42055  12.903   9.062   2.695  0.2220  0.1279 -0.0801
23202W        W42056   7.023   9.737   1.484 -0.0425 -0.0832 -0.0235
23203W        W42057   8.634   2.897  12.659  0.1484  0.2350 -0.0171
23204W        W42058  12.216  12.967   3.049  0.1314 -0.0796 -0.0945
23205W        W42059  14.410  10.466  14.697 -0.1742  0.1072 -0.0388
23206W        W42060   8.059  17.512   4.799  0.0230 -0.0739  0.0680
23207W        W42061   0.729   3.485  14.459 -0.2642  0.1616 -0.0201
23208W        W42062   8.813   4.575   4.724 -0.1669  0.1047 -0.1695
23209W        W42063   3.599  16.026   3.868 -0.0070  0.1812 -0.2398
23210W        W42064  10.910   3.455  12.944 -0.1319  0.1587  0.1566
23211W        W42065   6.095   8.537  13.054 -0.0608 -0.0969  0.2697
23212W        W42066   1.106  17.021   3.802  0.1675 -0.1581 -0.1265
23213W        W42067  15.882   9.583   2.998 -0.0022  0.0951 -0.0545
23214W        W42068  12.261  12.759   5.031  0.0390 -0.0507  0.0229
23215W        W42069   7.520   0.194  12.419 -0.1183  0.2568 -0.1478
23216W        W42070  13.377   2.553   0.718  0.2317  0.1046  0.2551
23217W        W42071  18.556   5.204  11.788  0.1185 -0.0639  0.2738
23218W        W42072  14.108   0.111  14.411 -0.0227 -0.1536 -0.0163
23219W        W42073  12.814  13.997   0.828  0.0755  0.0551 -0.1133
23220W        W42074  11.647   2.385  11.998 -0.0124  0.1386 -0.0760
23221W        W42075  10.880  10.944  13.530  0.1630 -0.1869 -0.1321
23222W        W42076  15.874   4.863  13.787  0.0832 -0.0509 -0.0673
23223W        W42077  10.908  12.616  11.312  0.0982  0.0835  0.0445
23224W        W42078   0.336   5.745  15.368  0.0927  0.0672  0.1416
23225W        W42079   8.199  11.509  11.459  0.1177 -0.3536  0.0820
23226W        W42080   5.890   1.206  14.860 -0.2479 -0.0053  0.0631
23227W        W42081   6.998  15.463  12.679 -0.1458 -0.1087 -0.0205
23228W        W42082   3.077   1.645   0.059  0.2226  0.1525  0.0002
23229W        W42083   9.841  11.787   2.046 -0.1426 -0.0624  0.1031
23230W        W42084  11.119   4.640   0.574 -0.1917  0.0681 -0.1301
23231W        W42085  15.166   1.726  13.481  0.1172 -0.1518 -0.0527
23232W        W42086  14.856  13.378  14.501  0.1077 -0.0306 -0.2314
23233W        W42087   7.015  18.459   3.106  0.1769  0.0734  0.0942
23234W        W42088   0.270   8.445   4.391 -0.0204  0.2481 -0.2711
23235W        W42089  18.145  13.437  14.301  0.0160  0.0889  0.0353
23236W        W42090   3.347   6.354   1.767  0.0404 -0.2239  0.2200
23237W        W42091  12.407  14.898   4.042 -0.4539 -0.3932  0.1064
23238W        W42092   9.427   8.789   1.172  0.3886 -0.0416  0.2270
23239W        W42093   9.774   1.922   4.676 -0.0264 -0.0180 -0.2088
23240W        W42094   3.248  14.552   0.632 -0.2163 -0.3649 -0.0702
23241W        W42095   6.199   2.207   1.071 -0.0970 -0.1267 -0.0435
23242W        W42096  18.339   0.839   4.932  0.2026 -0.2376  0.0754
23243W        W42097   0.756  16.541   0.417  0.0938 -0.0815  0.0663
23244W        W42098   7.536  15.105   3.297 -0.2898 -0.2917 -0.0767
23245W        W42099  17.809   8.426  14.767  0.0239 -0.0284 -0.0259
23246W        W42100  16.101  12.229   4.764 -0.4453 -0.1946 -0.0922
23247W        W42101  16.298   4.141   0.792  0.1143  0.2041 -0.0605
23248W        W42102   8.874  11.919   3.232 -0.2339  0.1512 -0.0928
23249W        W42103  12.020   4.252  11.497  0.2237 -0.0460 -0.2697
23250W        W42104  15.694  11.404  14.698 -0.1668 -0.1731  0.2603
23251W        W42105  16.282  17.646  14.215  0.4425  0.2276  0.3329
23252W        W42106  10.866   5.693  14.312 -0.3293 -0.0878 -0.1668
23253W        W42107   6.493   5.046   2.630  0.1736  0.0876  0.0526
23254W        W42108  10.921  17.764   0.217  0.3826  0.0223  0.1222
23255W        W42109  15.305   1.892   1.048 -0.1057 -0.0615 -0.0883
23256W        W42110  11.704  12.904  13.344 -0.1026  0.0661 -0.1755
23257W        W42111   4.862   2.969  12.872  0.1238 -0.2630 -0.3121
23258W        W42112   1.377   9.655   0.221  0.1460 -0.0627  0.3850
23259W        W42113  12.124  14.296   2.444  0.0801 -0.1198  0.1796
23260W        W42114   6.104   9.026  13.350  0.0566  0.3744 -0.1863
23261W        W42115   8.362  15.918   1.933  0.2074 -0.0286  0.1741
23262W        W42116  13.436   8.886   0.583  0.1823 -0.1941  0.1472
23263W        W42117   6.982   9.097  11.837  0.0003  0.1158 -0.2625
23264W        W42118   0.251  13.219   2.905 -0.1022  0.1325 -0.1657
23265W        W42119   4.240   6.119   3.707  0.0835 -0.4265 -0.0310
23266W        W42120  16.009  12.338   2.695  0.2501 -0.0403 -0.1169
23267W        W42121  11.705  12.159  14.232  0.0383 -0.1564 -0.1266
23268W        W42122   0.594   7.885  14.564 -0.1541 -0.1819 -0.2161
23269W        W42123  13.120  15.370   5.038  0.0267  0.0087  0.1680
23270W        W42124  10.997  17.215   4.284 -0.1497 -0.1099 -0.1432
23271W        W42125  10.434  10.747  10.636  0.1847  0.0391  0.2834
23272W        W42126   3.937   6.651   2.669  0.0194  0.0911  0.0628
23273W        W42127   8.816  12.941   4.854  0.2038  0.0003  0.0635
23274W        W42128  13.182   9.766   4.228 -0.0022  0.0238 -0.2868
23275W        W42129   3.117  17.083  12.962  0.1642  0.0388  0.2083
23276W        W42130  10.623   9.666  14.737  0.0840 -0.2110  0.3024
23277W        W42131   0.019   6.643  13.198  0.3119 -0.1781  0.2157
23278W        W42132   9.526   1.312  15.170 -0.0235 -0.2726 -0.1316
23279W        W42133  14.889   9.600   2.985  0.3410 -0.2766  0.1505
23280W        W42134   2.328   2.097   0.042 -0.0413 -0.1735 -0.0563
23281W        W42135   1.960   0.189  13.219  0.0538 -0.2721  0.0231
23282W        W42136   5.739  14.105   3.804 -0.0680 -0.1752 -0.1870
23283W        W42137   2.788  10.849   4.423 -0.0300  0.0885  0.0637
23284W        W42138   2.430  13.926  11.182 -0.3172 -0.2916  0.0376
23285W        W42139   0.242   0.022   0.783  0.0084 -0.2863 -0.2465
23286W        W42140  16.418   1.352   1.637  0.4192 -0.0634  0.1081
23287W        W42141   4.528  11.454  12.711  0.1312 -0.0958  0.1368
23288W        W42142  12.193   3.445  14.639 -0.2033 -0.0238 -0.1538
23289W        W42143  16.026  14.674  15.075 -0.0120  0.1427  0.0491
23290W        W42144  12.967   5.878  14.013  0.1886 -0.3152  0.2108
23291W        W42145   5.410   7.594   1.937  0.0139  0.1506 -0.0146
23292W        W42146  18.555   7.433   0.336  0.1574  0.0446 -0.5332
23293W        W42147  11.673  12.093  11.506 -0.0992 -0.1789  0.0248
23294W        W42148   2.828   0.434   0.972 -0.1102  0.3121 -0.3087
23295W        W42149   4.551  13.828  12.006  0.0806  0.0412  0.1758
23296W        W42150   8.910   5.382  13.303  0.0849 -0.3364  0.0832
23297W        W42151  15.152   3.906  15.036 -0.0674  0.1757 -0.0278
23298W        W42152   4.835   3.282  13.898 -0.3677  0.1289 -0.0030
23299W        W42153   7.011  15.947   4.968 -0.1982  0.0439 -0.0648
23300W        W42154   2.688   9.368  12.006 -0.2028 -0.1846  0.1067
23301W        W42155  17.397  13.961  14.925  0.4205  0.0961  0.0339
23302W        W42156   4.106   7.419   1.675 -0.0151  0.0222 -0.0081
23303W        W42157   5.629  16.971  12.288 -0.1518  0.0325 -0.1177
23304W        W42158   4.796   4.026   3.265  0.2384 -0.1987 -0.1255
23305W        W42159   7.287   0.303   4.301 -0.1285  0.0613  0.0453
23306W        W42160  18.439   4.911  10.810 -0.0631 -0.1137  0.2107
23307W        W42161   9.839  17.002   2.446 -0.1922 -0.0645 -0.0187
23308W        W42162  18.560  11.804  11.035  0.0427 -0.1383  0.3140
23309W        W42163  16.639   5.414  10.751  0.0663 -0.1700  0.1223
23310W        W42164   3.335   3.144  12.339  0.0017 -0.2397  0.0840
23311W        W42165   4.083   4.669  15.208  0.1526 -0.1409  0.0908
23312W        W42166  17.419  17.204  11.999 -0.3426 -0.0148  0.1319
23313W        W42167  13.963   8.007   2.215  0.0091 -0.0492 -0.1452
23314W        W42168   5.514   5.616  11.509 -0.2116  0.1715  0.0740
23315W        W42169   0.445  15.193  14.371 -0.2428  0.0190  0.1681
23316W        W42170  13.211   3.198   2.150  0.2482 -0.0419  0.1478
23317W        W42171  11.188   0.712   3.518  0.0369 -0.0521 -0.2234
23318W        W42172   0.267   6.123  13.955 -0.0008  0.4162  0.0466
23319W        W42173  11.721  15.638  11.682  0.3136  0.1013 -0.0317
23320W        W42174   8.109  17.423   0.334 -0.1278 -0.1510  0.1502
23321W        W42175  16.957   4.358  12.031  0.4223 -0.2009 -0.3239
23322W        W42176   2.007  18.235   3.824  0.0116  0.0914 -0.1598
23323W        W42177   3.483   4.276  14.337 -0.1897  0.1936 -0.3995
23324W        W42178   5.048  13.687   9.793  0.1543  0.0280  0.0856
23325W        W42179   2.813   7.065  13.409  0.1797 -0.0372  0.0858
23326W        W42180  17.354  17.090   2.033 -0.1782  0.1970  0.0475
23327W        W42181   6.758   9.087   0.958 -0.0322 -0.4700  0.2555
23328W        W42182  10.848   3.521   2.499 -0.5386  0.0725  0.0054
23329W        W42183  11.817   1.738   4.234  0.0062  0.0987  0.0556
23330W        W42184   1.482   9.210   1.162  0.2057  0.1506 -0.0423
23331W        W42185  17.465   6.547  13.022 -0.1924  0.2624  0.0493
23332W        W42186   9.922   2.245   3.477 -0.3313  0.1006  0.1134
23333W        W42187   6.426   5.282   3.087  0.0985  0.0322 -0.2646
23334W        W42188   3.485  15.566  14.469 -0.0472 -0.0354 -0.2317
23335W        W42189   0.994   2.631  11.245  0.1014 -0.3474  0.1036
23336W        W42190  16.982  12.162   0.309  0.1878 -0.0017 -0.0200
23337W        W42191  11.065   7.571   2.378  0.1847  0.1748 -0.0043
23338W        W42192   1.348   7.013  12.395 -0.0599  0.3718  0.2496
23339W        W42193  17.399   3.261   3.774 -0.0356 -0.1627  0.1446
23340W        W42194   9.815   1.221   2.608 -0.1195 -0.1872 -0.0966
23341W        W42195  16.039  10.322  10.783  0.0280 -0.1540  0.0808
23342W        W42196  16.958   9.384  12.449  0.2605  0.0441  0.0991
23343W        W42197  11.015  12.599   2.918  0.2055 -0.1460 -0.0309
23344W        W42198   8.695   0.530   5.349  0.1467 -0.0980  0.1015
23345W        W42199  12.017   0.904   2.679  0.0848  0.2795 -0.0637
23346W        W42200  15.910   3.028  14.688  0.1719  0.3007 -0.0279
23347W        W42201   9.810  17.271  15.231  0.0045  0.1049 -0.1810
23348W        W42202  12.285   7.677   4.300 -0.0944  0.3679 -0.0686
23349W        W42203   9.966  15.855  11.690 -0.1783 -0.0132  0.3794
23350W        W42204  15.466   0.432   1.554  0.1728  0.2261 -0.3336
23351W        W42205   2.948   6.148  15.103  0.2162  0.0591 -0.2390
23352W        W42206  17.892  10.161   3.221  0.2719 -0.2905  0.4202
23353W        W42207   0.278   9.801   2.167 -0.1002 -0.1314 -0.0487
23354W        W42208  11.682  17.788   4.557 -0.2770 -0.0620  0.1149
23355W        W42209  16.856   1.038  10.898 -0.0625 -0.0192  0.1394
23356W        W42210   0.902   5.077  13.168 -0.1763 -0.1087 -0.0233
23357W        W42211   6.376   6.834  12.333 -0.3575 -0.0718  0.3883
23358W        W42212   1.936   7.145   1.526  0.4049 -0.4194  0.2326
23359W        W42213  15.973  13.145  11.270  0.1167  0.1909  0.1257
23360W        W42214  18.305  12.655   0.125 -0.0590 -0.0183 -0.0185
23361W        W42215   7.568   9.608  14.791  0.3478  0.1037  0.2262
23362W        W42216  15.822   4.928   0.023 -0.0062 -0.1066  0.1025
23363W        W42217   4.675   1.514  13.801  0.0195 -0.0955  0.0846
23364W        W42218   8.630   4.122  13.698  0.0586  0.2954 -0.3600
23365W        W42219   2.323   7.486   0.005  0.0159  0.0036  0.2454
23366W        W42220   1.148   5.846   3.976 -0.4909  0.4195 -0.1536
23367W        W42221   4.607  10.181  12.232  0.0104  0.4361  0.1578
23368W        W42222  16.729   1.899   1.837  0.1212  0.0785 -0.0987
23369W        W42223   5.638   4.640  13.200  0.1643  0.1678  0.0386
23370W        W42224  18.502   2.966  14.100  0.0792  0.0052  0.3894
23371W        W42225  11.722  17.788  13.469 -0.0977  0.2860  0.0396
23372W        W42226  18.080   7.599  12.514  0.0562  0.1060  0.0968
23373W        W42227   2.764  11.738  12.135 -0.1096 -0.2776 -0.2355
23374W        W42228   4.959  14.450  14.919  0.1106 -0.0947 -0.0004
23375W        W42229  13.763  13.227   1.845 -0.0683  0.1389  0.1552
23376W        W42230   3.132   6.935  10.007  0.0733 -0.2912 -0.3625
23377W        W42231   1.754   2.946   1.064 -0.0859  0.0295  0.0075
23378W        W42232   8.414   4.294  12.714 -0.2044  0.0998 -0.0203
23379W        W42233   3.649   5.984  13.612 -0.0561 -0.1748  0.0140
23380W        W42234  17.687   3.676   0.358  0.1535 -0.1503  0.1098
23381W        W42235   9.845   2.774  13.455  0.0681  0.0353  0.0665
23382W        W42236   3.827   9.413  14.715 -0.2870 -0.2146  0.1580
23383W        W42237  13.095  13.086   2.591 -0.0375 -0.0942 -0.0483
23384W        W42238   9.330  17.860   0.466 -0.1118 -0.2336 -0.1034
23385W        W42239  17.889  14.644   2.784 -0.2070  0.2038  0.2827
23386W        W42240  16.104  10.104   0.320 -0.1658  0.1015  0.2079
23387W        W42241  10.153   9.187  14.234  0.1867  0.1910  0.0232
23388W        W42242   5.547   6.005  14.846 -0.1430  0.2734 -0.3094
23389W        W42243   0.801   2.357  12.624  0.0363 -0.0528  0.0893
23390W        W42244   3.139  18.138   0.710 -0.0272  0.1476  0.0059
23391W        W42245   2.202   9.995  14.012 -0.0546 -0.0864 -0.0281
23392W        W42246   0.155  17.149  11.866  0.2330 -0.4081  0.1138
23393W        W42247  15.186   0.112   1.828  0.1576  0.3147 -0.1837
23394W        W42248  12.251   7.246  13.536  0.1816  0.2511  0.2042
23395W        W42249  17.911  11.625   1.594  0.2591  0.0719 -0.2412
23396W        W42250   8.939   0.778   3.142  0.0236  0.1749  0.2122
23397W        W42251   9.436   4.231   4.542  0.0185 -0.2759 -0.0370
23398W        W42252  10.285  15.639  10.781  0.2665  0.1030  0.2798
23399W        W42253  12.193  14.434   2.914  0.0226  0.0597  0.2708
23400W        W42254   6.571   7.500  15.291  0.2127  0.1644  0.2020
23401W        W42255   9.967   9.860   0.145  0.0443  0.1276 -0.2204
23402W        W42256   7.040   2.064   1.207  0.1355  0.0301  0.1685
23403W        W42257  13.556   2.126   2.654  0.1006 -0.2578 -0.0376
23404W        W42258   7.462   4.401  12.539 -0.1585  0.0319  0.2666
23405W        W42259  11.731   7.501  14.039 -0.5901 -0.0222  0.0739
23406W        W42260   9.520   7.699   4.661  0.4385 -0.2074 -0.2089
23407W        W42261  13.177  16.828  12.767  0.1270  0.0399  0.1266
23408W        W42262  10.849   3.123   1.628 -0.0073 -0.0595 -0.0586
23409W        W42263  12.550   0.871  14.756 -0.0734 -0.3075  0.1263
23410W        W42264   7.163   7.584   2.207  0.1040 -0.1120 -0.0362
23411W        W42265  17.659  15.921   2.847 -0.1771 -0.0371 -0.0055
23412W        W42266   1.078  13.601  11.577  0.0342  0.1122 -0.0267
23413W        W42267   0.011  18.376   3.923 -0.3754  0.0564 -0.1678
23414W        W42268   4.971  18.401  13.947 -0.0079  0.0657  0.0704
23415W        W42269  16.236  14.267   3.120  0.0307  0.0048  0.2595
23416W        W42270  16.650  10.657   1.872  0.0378 -0.1320 -0.1399
23417W        W42271  16.650   1.249  13.653  0.0893  0.0565 -0.2105
23418W        W42272  13.872  13.683  11.411  0.0570 -0.1803  0.0925
23419W        W42273   7.773   3.467  11.808  0.0440 -0.1397 -0.0392
23420W        W42274   9.637  14.678   3.277  0.2027  0.2383 -0.2319
23421W        W42275   7.488   1.353   3.983 -0.0034 -0.0555 -0.1313
23422W        W42276   6.073   9.988   3.455  0.0992 -0.3860 -0.1014
23423W        W42277   9.884   3.030   1.368 -0.1241  0.0205  0.0463
23424W        W42278  15.718   8.010   2.785  0.0867 -0.0538 -0.1324
23425W        W42279  14.222  14.551  12.231 -0.2058 -0.0573  0.2389
23426W        W42280  17.711   8.573   1.082  0.1588 -0.5297  0.1315
23427W        W42281  13.455  13.121  10.787 -0.1677 -0.1939  0.1387
23428W        W42282   6.500   8.354  11.237  0.0664  0.1817  0.2814
23429W        W42283   2.880  16.809  15.265  0.1441 -0.2418 -0.0048
23430W        W42284   4.344  11.005  14.247  0.0215 -0.1276  0.1658
23431W        W42285   5.581  17.439  11.027 -0.3354  0.1289 -0.3261
23432W        W42286   9.977   5.590  13.989 -0.1949  0.3740  0.0846
23433W        W42287   8.663  18.318  12.366  0.3219 -0.1772  0.0179
23434W        W42288  11.349   3.057   1.790 -0.1805  0.1862 -0.1936
23435W        W42289   7.184   3.935   1.182  0.0949  0.1177  0.2838
23436W        W42290   1.095   0.909   0.049  0.3027 -0.0292 -0.1148
23437W        W42291  12.762   3.486   4.674  0.0929 -0.3712 -0.2682
23438W        W42292   4.158   4.341   5.083  0.0604  0.2563  0.0407
23439W        W42293   2.425   7.120   0.364 -0.0556 -0.3988  0.0400
23440W        W42294  11.544   3.306   2.742 -0.0516  0.2022 -0.0391
23441W        W42295  18.073   9.686   0.755 -0.1019 -0.1366  0.2358
23442W        W42296   4.574   2.858   4.160 -0.3224 -0.0407 -0.0075
23443W        W42297  12.590  13.051  13.114 -0.2420 -0.0280  0.3076
23444W        W42298  16.358  16.050  11.614  0.1151  0.2272 -0.2110
23445W        W42299  18.178   0.974   3.021 -0.1100  0.1128  0.2196
23446W        W42300  14.254   2.915   3.687 -0.0532  0.0553 -0.0106
23447W        W42301   5.034  13.775   1.390  0.0436 -0.0294  0.2845
23448W        W42302   6.881  10.000  13.546  0.3832  0.1099 -0.0554
23449W        W42303   1.713  18.311   1.114 -0.1323 -0.0273  0.0922
23450W        W42304   5.738  10.659  11.946 -0.1500 -0.5070 -0.0156
23451W        W42305  11.898  12.733  15.280 -0.1916 -0.1244 -0.0594
23452W        W42306  14.931   8.410   0.346  0.1988  0.0899 -0.0357
23453W        W42307  17.608  17.212   0.195 -0.0212 -0.2198 -0.2260
23454W        W42308  10.986  18.275   5.088 -0.4587  0.3790  0.2957
23455W        W42309   1.647  16.001  11.032  0.0949  0.1404 -0.2265
23456W        W42310   1.070   7.800   0.562  0.3521  0.2610  0.0915
23457W        W42311  15.635   7.615   9.856 -0.0971  0.0176 -0.0562
23458W        W42312   3.343  11.166   0.789  0.0175 -0.2103 -0.0178
23459W        W42313  15.398  13.748   5.402  0.1006 -0.1074  0.1850
23460W        W42314   2.807  12.759  13.271 -0.0220 -0.1165  0.1139
23461W        W42315   1.819  11.157  15.165 -0.0400 -0.3966  0.0266
23462W        W42316   6.397  17.737   3.076 -0.1053  0.1013  0.1270
23463W        W42317  13.008   2.433  13.941  0.0111  0.2809 -0.3165
23464W        W42318  13.205   9.352  15.405 -0.0177  0.0118  0.0928
23465W        W42319  15.956   6.673   1.144 -0.1542 -0.0624  0.4545
23466W        W42320  15.830  13.599  13.790  0.2760 -0.0060  0.1717
23467W        W42321  10.711  14.992   0.489  0.1973 -0.4852 -0.3173
23468W        W42322   4.149  11.565   1.988  0.1271 -0.0513 -0.1396
23469W        W42323  14.516  13.533   0.764 -0.2167  0.1626 -0.1509
23470W        W42324   2.074  15.358  13.121  0.0477  0.2637  0.3515
23471W        W42325  15.105   4.662  12.451  0.1726  0.2316 -0.0665
23472W        W42326   8.080  15.566   2.763  0.0411 -0.0957  0.0601
23473W        W42327   0.573  16.131  13.349 -0.0357 -0.0856 -0.2425
23474W        W42328  11.018   6.677   1.837  0.1491  0.1148  0.1541
23475W        W42329   1.421  16.568   4.093  0.2157 -0.2164 -0.1270
23476W        W42330  11.476  11.034   1.812 -0.1268  0.0353  0.3312
23477W        W42331  13.441   3.947   3.251 -0.5514  0.1159 -0.0664
23478W        W42332  15.935   6.927  12.630 -0.0413 -0.0831 -0.0006
23479W        W42333  12.139  13.286   0.280 -0.0593  0.0525 -0.2184
23480W        W42334   8.427  10.716  12.055  0.2860  0.2049 -0.1486
23481W        W42335   5.000   4.206   0.850  0.3307  0.2814  0.1671
23482W        W42336  16.209  15.626  11.920  0.0426  0.2153  0.1301
23483W        W42337   7.576  17.744   1.014 -0.2857  0.0622  0.0267
23484W        W42338  12.926  17.192  13.925 -0.0391 -0.1847 -0.0661
23485W        W42339   6.525   5.710  14.334 -0.0260 -0.0528  0.0977
23486W        W42340  11.188  18.273  14.118 -0.1092  0.1457  0.0785
23487W        W42341   9.793   3.313  14.149 -0.2176 -0.4146 -0.1596
23488W        W42342   4.284   2.698  13.274  0.2925 -0.1046  0.0091
23489W        W42343  11.798   0.807   3.663  0.2225 -0.1068  0.0801
23490W        W42344   2.970  14.769  12.731 -0.1120 -0.0746  0.1871
23491W        W42345   7.640  13.854  15.033 -0.1821 -0.2909 -0.3807
23492W        W42346   0.268   7.549   3.026 -0.0346  0.2128  0.3611
23493W        W42347  11.501  13.978  14.460 -0.0679  0.0045  0.0398
23494W        W42348   7.881  13.931  12.051 -0.1336 -0.0922  0.1418
23495W        W42349  13.515  15.818  12.396 -0.1501  0.3700  0.2258
23496W        W42350  17.088   8.383   2.068  0.2733  0.1145  0.0084
23497W        W42351   7.407   9.250   0.184 -0.1378  0.0768  0.0611
23498W        W42352   3.962   1.588  11.099 -0.0773  0.0040 -0.0350
23499W        W42353   4.365   8.294  11.135 -0.0031 -0.0261  0.3364
23500W        W42354  16.395   1.631   2.655  0.1748  0.1374  0.2453
23501W        W42355   8.751   0.908  14.772 -0.1565 -0.0937 -0.2638
23502W        W42356   4.205   7.959   1.327  0.0525 -0.0754  0.3323
23503W        W42357  16.926  17.039  14.045  0.0780 -0.2985  0.0558
23504W        W42358  11.838   2.459   2.249  0.0702  0.3431  0.0986
23505W        W42359  17.220   0.696   1.473 -0.1712 -0.0634 -0.0845
23506W        W42360   7.429  11.112   2.971 -0.0707 -0.2301  0.1851
23507W        W42361   6.875  17.896   2.982  0.0962  0.0976 -0.4914
23508W        W42362   6.599   8.044   3.770  0.0545  0.1852  0.0547
23509W        W42363   2.662   5.149  14.578 -0.1318 -0.4011  0.1487
23510W        W42364   4.063   3.403  14.364  0.0009 -0.1949 -0.2239
23511W        W42365  14.907  13.532   0.267 -0.1638  0.2383 -0.1091
23512W        W42366   4.722  16.397   1.937 -0.4315  0.1052 -0.1009
23513W        W42367   1.346   8.879  10.298 -0.0730  0.3284 -0.2985
23514W        W42368   6.699   2.209  12.077  0.1672 -0.1196 -0.0648
23515W        W42369  11.220   9.945  12.114 -0.1963 -0.3917 -0.2645
23516W        W42370  12.799   2.648   4.545 -0.0866  0.3039 -0.0849
23517W        W42371   0.461   9.747   0.395 -0.4163 -0.0742  0.0941
23518W        W42372  12.418   5.086  14.911  0.0816  0.4059 -0.0721
23519W        W42373  11.474  12.777   0.533 -0.1377 -0.1533  0.3689
23520W        W42374  12.766   1.809   4.740  0.0393 -0.1976 -0.1912
23521W        W42375   2.708   5.698  15.020  0.1333  0.2332 -0.1835
23522W        W42376  11.552  15.195   4.833  0.0985 -0.2892 -0.0228
23523W        W42377  14.400   4.005  10.320 -0.3120 -0.0923 -0.1940
23524W        W42378  17.310  13.698  15.338  0.3478  0.1636  0.1479
23525W        W42379  16.905   2.047   0.451  0.0940 -0.0487 -0.0465
23526W        W42380  13.097   3.346   2.633  0.0373 -0.0060  0.0953
23527W        W42381  13.953  18.439   0.847 -0.1463  0.2097 -0.0580
23528W        W42382  17.088  10.314   0.678 -0.1606  0.1253 -0.3051
23529W        W42383   0.701  12.776  15.138  0.0528  0.3382 -0.0733
23530W        W42384   5.459  13.613  13.818 -0.0311  0.2757  0.0895
23531W        W42385   7.938   8.765   1.606  0.1765  0.1049  0.2585
23532W        W42386  12.732   2.491   3.175 -0.1153  0.0238 -0.2311
23533W        W42387  13.582   7.969   0.105 -0.0665 -0.0224  0.0800
23534W        W42388  16.231  10.708  12.862 -0.0240 -0.0087  0.0735
23535W        W42389   9.135   4.450  13.364  0.2592 -0.0691 -0.0838
23536W        W42390  11.436  18.449   1.204 -0.0976 -0.0497 -0.0628
23537W        W42391  15.947   1.150   1.058 -0.0127 -0.1391  0.0007
23538W        W42392   9.130  17.470  14.385  0.3055  0.2439 -0.1230
23539W        W42393  16.543  12.270   0.704 -0.3498  0.1617 -0.0947
23540W        W42394   5.900  14.923   4.437 -0.1757 -0.0229  0.1670
23541W        W42395   8.654   9.788   0.248 -0.0405  0.1033 -0.3148
23542W        W42396  14.474  13.027  10.496  0.2175 -0.1240  0.2750
23543W        W42397  17.857  15.632  12.569 -0.1129 -0.1431  0.0538
23544W        W42398   7.806  11.723   3.904  0.0148  0.2611 -0.2687
23545W        W42399  17.256   8.394  14.850 -0.0736  0.0524  0.0011
23546W        W42400   4.059   5.366  12.264 -0.1799  0.1553 -0.4675
23547W        W42401  13.421  11.634  13.100 -0.0125 -0.0650 -0.0193
23548W        W42402   8.321   8.715   2.560 -0.2068  0.2945 -0.1928
23549W        W42403  12.309   0.940   3.858  0.1879  0.1126  0.0699
23550W        W42404  12.625   7.319  14.395 -0.1441  0.0581  0.0297
23551W        W42405   6.355   1.143   0.294  0.0631  0.0484  0.0074
23552W        W42406  16.226  13.495   4.359 -0.0011 -0.2307  0.2856
23553W        W42407   6.934   4.479  13.847  0.0527 -0.2058 -0.2382
23554W        W42408   1.995  18.362   4.293 -0.0590 -0.0156  0.0871
23555W        W42409   1.105   3.351   3.707  0.1295 -0.0711 -0.1166
23556W        W42410  10.481   8.982   3.467  0.1159  0.0050 -0.2803
23557W        W42411   5.315  15.640   1.806  0.2548  0.0503 -0.0290
23558W        W42412   3.428  12.052  13.372 -0.0015 -0.0032 -0.3779
23559W        W42413  10.786   5.183  13.433 -0.0858  0.2240  0.1257
23560W        W42414   7.780   9.624   0.375 -0.0054 -0.3230  0.1533
23561W        W42415  14.161   4.666   3.079  0.1422 -0.2014 -0.0769
23562W        W42416   6.461  14.983  14.639 -0.2271  0.0946  0.1466
23563W        W42417  16.432   8.140   0.258  0.1706  0.0068 -0.1915
23564W        W42418  14.499  15.757   0.904  0.2771  0.2934 -0.0478
23565W        W42419  15.679   7.848  12.980 -0.0980  0.2431 -0.3181
23566W        W42420  18.056   9.505  14.728 -0.1369 -0.0607 -0.0597
23567W        W42421   8.583  17.108  12.918  0.0413  0.0378  0.1622
23568W        W42422   2.431   6.071   2.677 -0.0875  0.4661 -0.2738
23569W        W42423  16.547   7.448  12.744 -0.4860  0.1100  0.1423
23570W        W42424   2.520   8.775  10.756  0.1359  0.1742 -0.0812
23571W        W42425  16.832  16.328   2.494  0.1339 -0.0669  0.0018
23572W        W42426   8.247   6.044  15.036 -0.0938  0.0717 -0.0945
23573W        W42427   6.184  14.891  15.385 -0.0094 -0.1011 -0.2820
23574W        W42428   5.854  12.284   2.549 -0.1371 -0.1825 -0.1064
23575W        W42429   3.640   2.146  10.746  0.4265 -0.0260  0.1258
23576W        W42430   3.868   8.179  13.229  0.0126  0.0837 -0.3054
23577W        W42431  13.727   1.790   4.400  0.0687 -0.0357 -0.0848
23578W        W42432   3.231  10.448   2.537  0.2591 -0.0311  0.2346
23579W        W42433  14.949   8.490   3.795  0.1001  0.1609 -0.1336
23580W        W42434  13.914   0.245   3.914 -0.1556 -0.1683  0.0322
23581W        W42435  14.929   9.553  11.602  0.1687 -0.0677 -0.0807
23582W        W42436   4.764  13.236  12.163 -0.1045  0.0413 -0.2538
23583W        W42437  18.383  16.283  12.927  0.2312 -0.2467 -0.2835
23584W        W42438  18.011   8.385   0.702  0.0407 -0.2590 -0.0608
23585W        W42439   6.725  15.230  13.057 -0.2230 -0.0092  0.0959
23586W        W42440  10.268  17.639   0.678  0.3643  0.0839  0.2003
23587W        W42441  18.545   0.344  13.474  0.0645 -0.0186  0.2912
23588W        W42442  11.301   0.226  12.886 -0.3150  0.1002 -0.1588
23589W        W42443   2.376  15.121   4.093  0.0154 -0.0007  0.1847
23590W        W42444  10.816   2.003  12.414  0.3224 -0.1670 -0.0550
23591W        W42445   4.090   6.039  13.855 -0.2945 -0.1544  0.3558
23592W        W42446   7.194  16.082  15.164  0.0224 -0.1229  0.0427
23593W        W42447   3.761   8.352   4.147  0.0483 -0.1069  0.1490
23594W        W42448   8.018   7.370  13.332 -0.1946  0.0136 -0.3293
23595W        W42449  11.178   0.215   4.889 -0.1471 -0.1567 -0.2168
23596W        W42450   5.611   9.720  11.578  0.1998  0.1517  0.1062
23597W        W42451   3.827  13.530   1.469 -0.4468  0.2481 -0.0010
23598W        W42452  18.535  13.305  13.645 -0.2160 -0.0782  0.0832
23599W        W42453  10.305   0.208  12.758 -0.0192  0.1770 -0.1944
23600W        W42454   8.082  18.567  15.184 -0.0173  0.1752 -0.3431
23601W        W42455  16.608   1.773   1.391  0.2789  0.2790  0.2364
23602W        W42456   2.444   4.016  13.140 -0.1230 -0.2557  0.2230
23603W        W42457   3.102   9.496   4.077 -0.2330  0.2400  0.0820
23604W        W42458  17.547  13.287  12.343 -0.0687  0.0349 -0.2645
23605W        W42459   0.125   4.545  11.589 -0.0454 -0.1751  0.0318
23606W        W42460   0.935  16.676   2.866 -0.1732 -0.0288 -0.1920
23607W        W42461   1.550   1.353   1.843  0.0838 -0.3483  0.2247
23608W        W42462  14.093  12.465  12.913 -0.3132 -0.2771  0.1429
23609W        W42463   2.272  14.768   1.745 -0.0257 -0.1393  0.0533
23610W        W42464   3.986  15.740  14.526  0.1441  0.3013 -0.0874
23611W        W42465  10.852   2.444   1.186  0.1411  0.0890  0.0013
23612W        W42466  11.534   7.015  10.706 -0.1151 -0.2978  0.0003
23613W        W42467  12.255  15.383   3.203  0.0344  0.1139 -0.1152
23614W        W42468   5.586   5.309  11.125  0.1853  0.0194 -0.1385
23615W        W42469   2.659  13.060   1.546  0.0692  0.3456 -0.0520
23616W        W42470  18.135   2.769  13.718  0.1810  0.1699 -0.0581
23617W        W42471   0.867   9.760  13.331  0.4123 -0.1568  0.0057
23618W        W42472  17.468   8.392   5.539  0.2081 -0.2934  0.2801
23619W        W42473   7.747  10.022   4.885  0.3963  0.0030  0.0125
23620W        W42474   4.150  10.905  10.869 -0.3548  0.1645  0.1026
23621W        W42475  15.056  18.148   4.191  0.1075 -0.1060 -0.0118
23622W        W42476  17.289  14.607  13.285 -0.0864  0.3205 -0.0366
23623W        W42477   5.583  17.028   2.564 -0.2140 -0.2322  0.0534
23624W        W42478   5.683  16.196   4.813 -0.3121  0.2758 -0.0572
23625W        W42479   7.319   9.802  13.882  0.0993 -0.3047  0.1474
23626W        W42480  13.826  18.212  15.375  0.0333 -0.2730  0.1968
23627W        W42481  15.475   0.053   0.170  0.0112 -0.0785  0.0198
23628W        W42482  16.963  17.563   3.273 -0.3194 -0.2262 -0.1719
23629W        W42483  17.184  17.889   0.655 -0.0354  0.1964  0.1795
23630W        W42484   2.744   4.503  14.287  0.2471  0.3219 -0.0104
23631W        W42485   7.106   4.515  14.416 -0.0484  0.3995 -0.0328
23632W        W42486  14.206   4.302  12.817 -0.0015  0.1345  0.1636
23633W        W42487  12.574   8.967   0.752  0.1321 -0.2099 -0.2150
23634W        W42488   6.257  13.907   2.873 -0.1026 -0.0002  0.2603
23635W        W42489   1.895   7.845   0.836  0.0462  0.0902 -0.1225
23636W        W42490   8.359  14.633  14.885 -0.1499  0.1709  0.1014
23637W        W42491  18.273   5.004   1.974  0.1907  0.0121 -0.2528
23638W        W42492   2.270   2.364  15.082  0.0194 -0.0739  0.1008
23639W        W42493   9.296   5.764  12.428  0.1405  0.2646  0.2839
23640W        W42494  13.773   4.880  13.046 -0.0981  0.0029 -0.0378
23641W        W42495  10.602   1.269   0.650  0.1217  0.1060  0.0075
23642W        W42496  12.676   9.828   4.023 -0.0046  0.1914  0.3495
23643W        W42497   1.252   2.917   2.579 -0.2629  0.1187  0.0480
23644W        W42498   4.086   5.184   4.133  0.3115 -0.1007 -0.4505
23645W        W42499  16.890  10.276  11.408  0.2242  0.0584 -0.0379
23646W        W42500  17.694  12.732  10.954 -0.0839 -0.1110 -0.0737
23647W        W42501  13.499  10.063  12.412 -0.2535  0.1700  0.0419
23648W        W42502  17.978   8.735  13.620  0.1351 -0.1557 -0.1278
23649W        W42503   2.816  18.299  13.492 -0.1273 -0.0630 -0.0118
23650W        W42504   8.479   4.190   1.078 -0.2636  0.0871  0.0157
23651W        W42505  17.716   7.117  10.346  0.1241 -0.3223  0.0750
23652W        W42506   8.014   9.126   3.607 -0.2313  0.0549  0.0363
23653W        W42507   8.586   0.291   4.817 -0.1003  0.0210 -0.1301
23654W        W42508  16.852   9.877  13.139  0.0484 -0.0359 -0.0290
23655W        W42509   0.359   3.127  11.458 -0.2696 -0.0981  0.0055
23656W        W42510  11.516   0.640  11.594  0.0807 -0.0089 -0.2784
23657W        W42511  18.554  15.860  13.134  0.0190  0.1065  0.0162
23658W        W42512   9.473  14.401   2.749 -0.0889  0.0779 -0.1549
23659W        W42513  12.744  14.642  14.362 -0.0473  0.0467 -0.1701
23660W        W42514   6.552  11.439   0.820 -0.1896 -0.1417  0.0687
23661W        W42515   1.013  10.169   2.981  0.0665  0.3207  0.0544
23662W        W42516   0.400   1.550   2.156  0.1529 -0.2514 -0.2199
23663W        W42517  12.858  10.866  11.170 -0.0111  0.1643  0.0138
23664W        W42518   8.109  15.920   2.423 -0.2178  0.1518 -0.1249
23665W        W42519  10.623   4.093  14.783  0.0033 -0.0829 -0.1813
23666W        W42520   1.868  13.130   0.883  0.0941 -0.2949 -0.0426
23667W        W42521   6.315   1.394  10.808 -0.1882  0.2283 -0.2440
23668W        W42522   5.800   8.810  13.744 -0.0016  0.0848 -0.0518
23669W        W42523   8.758  14.464  11.043  0.0335 -0.0717  0.1423
23670W        W42524  14.984   1.692   3.015  0.0128  0.1681  0.0667
23671W        W42525   6.927   1.326  14.691  0.1572  0.2341 -0.1150
23672W        W42526   6.250   2.726  11.623 -0.1769 -0.2117  0.1080
23673W        W42527  17.817   5.561  10.822  0.0806  0.0635 -0.1229
23674W        W42528   5.457   1.220  15.298 -0.2677  0.0397 -0.2741
23675W        W42529  14.319  13.748   3.978 -0.2301  0.0618  0.0299
23676W        W42530   2.936  15.831   2.721 -0.1076 -0.0888 -0.1444
23677W        W42531  11.840   4.391  14.928  0.3410  0.1502  0.2174
23678W        W42532   1.931  12.141  14.163  0.1694  0.1027  0.0803
23679W        W42533   8.166   5.616  14.935  0.5824  0.1157 -0.2821
23680W        W42534  10.041  15.070  14.677  0.3106 -0.0690 -0.0219
23681W        W42535   9.943   7.858   1.212 -0.1809  0.0894  0.0599
23682W        W42536  12.536  12.559  11.769 -0.1508 -0.1409  0.0806
23683W        W42537  12.436   0.405   5.918  0.0566 -0.0861  0.1900
23684W        W42538  13.072  10.778  13.374 -0.2520  0.2828  0.2421
23685W        W42539  14.710   5.687   1.497 -0.0956 -0.1099 -0.3598
23686W        W42540  10.465  10.039   5.261 -0.0496 -0.2722  0.2317
23687W        W42541   8.329   5.942   1.522  0.0955 -0.0108 -0.1033
23688W        W42542   7.831   6.859  13.191 -0.1838  0.1420 -0.0008
23689W        W42543   4.037   8.415   4.581  0.0292 -0.1351  0.1060
23690W        W42544  14.256  14.434  13.330  0.0101  0.3783  0.2923
23691W        W42545   7.201  10.433  15.096  0.0549  0.0459 -0.2503
23692W        W42546   1.264   3.843  13.665  0.1559 -0.1678 -0.1891
23693W        W42547   5.778   5.405   1.336 -0.1317  0.0461  0.1435
23694W        W42548   3.704  14.169  11.578 -0.0087 -0.0372 -0.1438
23695W        W42549   4.628  10.731   0.936  0.0422 -0.0074 -0.1474
23696W        W42550   7.509   7.802  15.293  0.0191  0.0913  0.1243
23697W        W42551  14.907  18.374   2.080 -0.1278 -0.1467 -0.2914
23698W        W42552  18.062  13.914   4.902 -0.0440  0.1544 -0.0160
23699W        W42553  16.129  13.957  11.561  0.1334  0.2289  0.0341
23700W        W42554   4.690  10.594   1.432  0.0857  0.2573  0.1631
23701W        W42555  13.711  14.429  13.221 -0.1802 -0.2348 -0.2299
23702W        W42556  13.134   8.894   3.475  0.0787  0.3443  0.2871
23703W        W42557   8.789  17.009   3.699  0.1144  0.1080 -0.1493
23704W        W42558   7.175   4.461  13.419 -0.1450 -0.2464  0.2875
23705W        W42559  17.839  15.785  13.625 -0.1927 -0.0487  0.2920
23706W        W42560   0.886  17.343  11.357 -0.1010  0.0129  0.2918
23707W        W42561  16.891  13.156   2.736 -0.1413 -0.0370  0.1159
23708W        W42562   0.148  17.377  12.915  0.0516  0.1190  0.0161
23709W        W42563   3.594  12.852  15.466  0.0137  0.2232 -0.0554
23710W        W42564   9.021   6.506   3.459 -0.1775 -0.3144 -0.3354
23711W        W42565   2.129   6.493  11.490 -0.2480  0.0658 -0.3441
23712W        W42566  17.936  11.407   2.491 -0.1423  0.4135  0.0059
23713W        W42567  12.327   6.924   1.175  0.1892 -0.1413  0.0863
23714W        W42568   2.613   1.243  14.160 -0.1394 -0.0261 -0.1887
23715W        W42569   5.430   5.177   3.762 -0.3768  0.1262  0.0082
23716W        W42570  10.563   5.025   2.274  0.0436 -0.0712 -0.0104
23717W        W42571   3.871  16.428   3.884 -0.1135  0.1970 -0.2673
23718W        W42572   1.347   7.464   0.277 -0.3914 -0.0293 -0.1851
23719W        W42573  18.338   8.056  15.091 -0.0518 -0.0967  0.0910
23720W        W42574  16.413  16.353   3.978  0.1499  0.2087 -0.2797
23721W        W42575   0.850   7.356   2.228 -0.0263  0.2088 -0.2827
23722W        W42576  17.228   4.252  11.565  0.0099 -0.3310 -0.0914
23723W        W42577  10.641  10.508   0.317  0.0196 -0.0749  0.2638
23724W        W42578   9.911  13.034  11.667 -0.1816 -0.2593  0.0969
23725W        W42579   2.844   3.126   1.586  0.2852 -0.3924 -0.1002
23726W        W42580  14.044   7.749   1.689  0.0446  0.0199  0.4983
23727W        W42581  15.319   7.039  13.261  0.0456  0.1538  0.0037
23728W        W42582  13.325   8.360  10.223  0.1189  0.2817 -0.1622
23729W        W42583   6.237  10.736   3.341  0.3134 -0.1068  0.1431
23730W        W42584   9.503   2.148   4.367 -0.0666 -0.0061  0.1438
23731W        W42585   5.767   3.649  13.665  0.0502  0.0119  0.2056
23732W        W42586  16.402   7.443   3.317 -0.0513 -0.0003 -0.0731
23733W        W42587   4.396   2.670  12.753 -0.1141 -0.1656  0.0263
23734W        W42588   3.510   9.127   2.679 -0.3872 -0.1161 -0.1905
23735W        W42589   5.635  11.964   0.902  0.1557  0.0679  0.2030
23736W        W42590   9.153   9.152  11.890  0.1156 -0.0927 -0.0678
23737W        W42591   6.212   8.488   3.141 -0.1850 -0.2201  0.1956
23738W        W42592  17.062  13.134   3.246  0.1338 -0.2489 -0.1685
23739W        W42593  12.384   7.466  15.363  0.0824  0.0090 -0.1316
23740W        W42594   8.326  11.287  11.997  0.1098  0.0816  0.3513
23741W        W42595   0.323  13.914   0.692 -0.2024  0.1228  0.1028
23742W        W42596   2.490  10.229  13.624  0.0140 -0.1107 -0.0797
23743W        W42597   9.436  11.049   3.802 -0.0987  0.2057 -0.1798
23744W        W42598  15.972   5.694   4.247  0.1470 -0.1063 -0.4782
23745W        W42599  11.627  11.368  14.138  0.0222 -0.3080 -0.2085
23746W        W42600   7.804   4.239  11.604  0.1132  0.0073 -0.0254
23747W        W42601   7.532  16.516  14.962  0.3797 -0.1248 -0.2162
23748W        W42602   4.203   1.368  12.077  0.3005  0.0795  0.1043
23749W        W42603  12.934   0.323  14.871 -0.3828  0.1071  0.3283
23750W        W42604   6.668   0.235   2.482  0.0764 -0.4705  0.1974
23751W        W42605   7.798   3.859  13.182  0.0794  0.0472 -0.1882
23752W        W42606  12.663  10.348  12.689 -0.2268 -0.0991  0.0885
23753W        W42607   0.136   2.170   2.295  0.0718 -0.0837  0.2512
23754W        W42608  12.869   6.767   0.671 -0.0005  0.0296  0.0532
23755W        W42609   7.638  14.299  12.731  0.1375  0.0084 -0.0317
23756W        W42610   9.849  13.360  12.221  0.3587  0.2552  0.0388
23757W        W42611   6.590  17.710   1.228 -0.1192  0.2368  0.0839
23758W        W42612  14.039   0.748  11.005 -0.0859 -0.1020  0.0287
23759W        W42613  12.764  12.969  14.883 -0.1962  0.0643 -0.1405
23760W        W42614  11.085   0.377   1.263 -0.0740 -0.0623  0.1060
23761W        W42615   0.435   0.447  12.169  0.3732 -0.4342  0.0533
23762W        W42616  13.130   8.766  11.954 -0.1228  0.1603  0.0025
23763W        W42617   8.822  12.888  14.949 -0.0287 -0.3081 -0.1646
23764W        W42618   4.359   6.663  13.253 -0.1895  0.1310 -0.0395
23765W        W42619   0.730   9.644  15.380 -0.0281  0.0294 -0.3332
23766W        W42620   5.454  17.437  13.953  0.0819 -0.0190 -0.0027
23767W        W42621   4.246  16.742  12.274  0.0871  0.0206 -0.2420
23768W        W42622   1.850  15.658   1.041 -0.0500 -0.3396 -0.0666
23769W        W42623   4.962   5.136  11.253 -0.2203 -0.3112 -0.1101
23770W        W42624   7.656  13.167   4.315  0.1894  0.2672 -0.0471
23771W        W42625   5.627  15.105   0.763  0.1216  0.2377  0.4090
23772W        W42626  13.353   7.249   5.139 -0.0519 -0.1432  0.2368
23773W        W42627  16.330   2.847  11.367  0.0270  0.3388  0.0766
23774W        W42628  10.277   3.169   4.631 -0.0225  0.1141  0.0740
23775W        W42629  18.464  17.484   0.418 -0.1360  0.0958 -0.0684
23776W        W42630   1.549  13.265  13.530 -0.2852  0.2788  0.1364
23777W        W42631   9.115  15.357  13.269  0.1007 -0.0377  0.0493
23778W        W42632   8.866   6.032   1.239 -0.2512 -0.0269 -0.0246
23779W        W42633   4.413  13.425  14.490 -0.0802 -0.1274 -0.4109
23780W        W42634  17.540   0.335   1.865  0.1136  0.0031 -0.0886
23781W        W42635  14.493   1.552   0.360 -0.0159  0.2101  0.3454
23782W        W42636  17.204   2.893  11.424 -0.0195 -0.0688 -0.2042
23783W        W42637   7.503   6.091  12.901  0.0639 -0.3004  0.1317
23784W        W42638   7.406  11.056  13.936 -0.1609  0.1662 -0.3687
23785W        W42639   6.824   6.887  14.627 -0.1153  0.1314 -0.1131
23786W        W42640  16.512  18.377   1.202 -0.0190 -0.1108 -0.1223
23787W        W42641   7.028  14.086  11.144 -0.3095  0.2702 -0.0102
23788W        W42642   3.594   9.721   2.778  0.1001  0.4341  0.4101
23789W        W42643   6.423  10.576   5.176 -0.0229 -0.2355  0.4471
23790W        W42644  14.177  10.081  15.058 -0.2684  0.1333 -0.0309
23791W        W42645  15.113   2.406   5.073 -0.1045  0.2393  0.1488
23792W        W42646  10.773   5.421   0.570 -0.1334 -0.1099  0.1087
23793W        W42647  14.987  15.454   1.722 -0.0976  0.0576  0.1233
23794W        W42648  16.076  12.981   1.216  0.0529  0.2932  0.0845
23795W        W42649   6.664  16.151  11.685 -0.2984  0.3037  0.1292
23796W        W42650  16.126  13.859  13.392 -0.0570 -0.2277 -0.2844
23797W        W42651   3.205  15.077   2.016 -0.2615 -0.0585 -0.2871
23798W        W42652   9.805   8.695   3.011  0.2033 -0.2267 -0.2342
23799W        W42653   4.361  13.305  12.474  0.0193 -0.0909  0.0317
23800W        W42654  13.729   2.050   0.098 -0.1732  0.0830  0.0489
23801W        W42655  18.295   6.868   3.043  0.1915  0.0483 -0.1144
23802W        W42656  16.263   2.705  10.072  0.2211  0.1342 -0.0795
23803W        W42657  14.815  10.961  13.282  0.2532  0.0028  0.1284
23804W        W42658  15.015  14.631   2.063  0.0904  0.2623 -0.3058
23805W        W42659  14.602  16.349  13.740  0.1066  0.2437 -0.1654
23806W        W42660  11.974   9.134  10.378  0.1027  0.1917  0.0690
23807W        W42661  17.885   9.085   3.424 -0.2639  0.3351  0.3836
23808W        W42662   3.966  18.550   4.368  0.1187  0.1321  0.3571
23809W        W42663  18.005   9.476   3.033  0.0395  0.0236  0.2030
23810W        W42664   0.787  14.900  15.397 -0.0086 -0.0476  0.0627
23811W        W42665  14.710   0.323   0.265 -0.4672  0.1250 -0.2184
23812W        W42666   5.402  13.194  13.521 -0.3739  0.1021 -0.2367
23813W        W42667   2.431  18.264   1.673 -0.2804  0.0362 -0.1065
23814W        W42668   5.485   4.027  14.002  0.1418 -0.3206 -0.2840
23815W        W42669   1.250   6.952  14.470 -0.1169 -0.0141 -0.1003
23816W        W42670  16.888   8.898   3.566  0.0589 -0.2204 -0.0411
23817W        W42671   3.796  15.723  10.037  0.3394  0.1143  0.2489
23818W        W42672  17.004  13.673   2.472 -0.1019 -0.2379  0.0641
23819W        W42673  11.477   0.912  13.049 -0.1777 -0.6573  0.2672
23820W        W42674  17.692  12.952   3.586 -0.1520 -0.4078  0.5272
23821W        W42675   9.922   3.473   1.622 -0.1129 -0.1037 -0.0972
23822W        W42676   7.885   6.236  11.500 -0.1192 -0.0318  0.1344
23823W        W42677   0.665  14.806  13.889 -0.0521  0.3592  0.1080
23824W        W42678   3.204   3.346  14.460  0.4013  0.1996 -0.2709
23825W        W42679  10.056   9.322   2.814 -0.1487 -0.0228 -0.0067
23826W        W42680   3.010   5.512   2.025 -0.1631 -0.0057 -0.1637
23827W        W42681  13.533   3.595  11.936  0.0121  0.2748 -0.3203
23828W        W42682  13.249  14.223  15.066 -0.5282  0.2026  0.1340
23829W        W42683   6.903   9.027   2.141 -0.2979 -0.1545  0.1998
23830W        W42684   3.353   2.847   4.150  0.1549  0.1012 -0.1373
23831W        W42685   6.144   4.334   2.950 -0.0428 -0.2075 -0.0497
23832W        W42686   1.150  17.347   2.502  0.1588 -0.0447 -0.1268
23833W        W42687  11.097   2.558  14.025 -0.1254  0.2723 -0.1143
23834W        W42688   5.734   3.164   3.922  0.4731 -0.1262 -0.0684
23835W        W42689  15.244   9.522   3.483 -0.1846  0.2185  0.1591
23836W        W42690  16.415   0.763  12.822  0.0756 -0.1321  0.2083
23837W        W42691  14.104   9.507  11.729 -0.1949  0.0753  0.3093
23838W        W42692  13.503  11.768  12.634 -0.0292  0.2395 -0.3610
23839W        W42693  15.278  10.208   2.956 -0.1996  0.1734  0.0938
23840W        W42694   0.396   0.116   1.271  0.0977 -0.1410 -0.2184
23841W        W42695  17.959   6.097  10.638  0.3679 -0.0068  0.0252
23842W        W42696   4.141   1.850   0.096  0.0109  0.0169 -0.0009
23843W        W42697   9.561  13.984   1.384  0.3692  0.3167 -0.2760
23844W        W42698  15.246   4.438  11.461 -0.0215 -0.1248 -0.0127
23845W        W42699  17.519  14.007   3.771 -0.0782  0.3786  0.1519
23846W        W42700   0.212   8.646  13.863  0.2907 -0.3251 -0.2260
23847W        W42701   9.308   2.959  13.180  0.2548 -0.0171  0.1586
23848W        W42702  13.128  16.765   0.148  0.2354  0.0028 -0.1704
23849W        W42703   5.280   9.992  11.325 -0.1808  0.0278 -0.0282
23850W        W42704  13.439   8.041   2.671 -0.0446 -0.2179  0.1861
23851W        W42705  11.820  14.919   3.083 -0.3318  0.0735 -0.0327
23852W        W42706  10.797  11.839  13.169 -0.0546  0.0666 -0.3047
23853W        W42707   4.925   4.247   4.139 -0.0794  0.0228  0.0279
23854W        W42708  12.298   7.691  13.272 -0.5153  0.0341  0.0529
23855W        W42709  14.169  15.707  13.531  0.1953 -0.1284  0.2484
23856W        W42710  10.109   9.034   0.730  0.0589  0.0963 -0.1580
23857W        W42711   2.822  10.362  14.720  0.0688  0.0571  0.0823
23858W        W42712   8.226   7.829   3.331  0.0336  0.1406  0.0480
23859W        W42713  18.207   6.149   0.746  0.3054  0.2647 -0.0576
23860W        W42714   5.263   8.624  15.161  0.1474 -0.0495 -0.3600
23861W        W42715  11.274  10.952   1.281  0.1152 -0.1559 -0.0118
23862W        W42716  14.517   8.928   1.159 -0.1173 -0.1270  0.0748
23863W        W42717   8.212  10.099   2.470  0.0610 -0.1267 -0.0165
23864W        W42718   9.337  17.948   2.948 -0.0864 -0.2828 -0.4290
23865W        W42719  11.908   8.877  14.234  0.0458 -0.1041 -0.1607
23866W        W42720   8.869  10.024   3.184 -0.0687  0.1441  0.0621
23867W        W42721  13.093   1.089   5.812  0.2378 -0.0882 -0.1957
23868W        W42722   0.135  14.557  12.353  0.1577 -0.0835  0.0169
23869W        W42723   2.983  16.911   1.247  0.0219  0.1040 -0.0810
23870W        W42724  11.425  17.629  13.103 -0.2625 -0.2012 -0.1957
23871W        W42725   3.687  17.647  14.198  0.2262  0.3553 -0.0418
23872W        W42726  10.459   0.542   2.808 -0.0250  0.1522  0.0701
23873W        W42727  10.158   3.075   2.835 -0.4113 -0.2759 -0.0507
23874W        W42728  13.161   8.477   0.943  0.0710  0.0338 -0.1317
23875W        W42729  18.159   9.917  11.639 -0.0217 -0.0450  0.2477
23876W        W42730   6.145   7.764   0.216 -0.1048 -0.1475 -0.0163
23877W        W42731   0.799   5.649   3.695 -0.2978  0.1344  0.0370
23878W        W42732   7.565   7.508   3.861 -0.0571  0.2766 -0.0411
23879W        W42733  18.075   6.455  11.858 -0.0488 -0.1295 -0.1886
23880W        W42734  10.445  10.322  11.536 -0.1137  0.2186 -0.0420
23881W        W42735   7.530  15.911  11.854  0.0178  0.0507 -0.1458
23882W        W42736   3.425   7.571   4.354 -0.3376  0.5547  0.0624
23883W        W42737   5.138   3.813  10.908  0.3810 -0.1558  0.2439
23884W        W42738  14.411   9.247   3.756  0.2564 -0.1127 -0.0601
23885W        W42739  11.088  12.774  12.265  0.2785 -0.3114  0.2733
23886W        W42740  17.300  14.141   1.265 -0.1982  0.1161 -0.1068
23887W        W42741   7.640  10.836   2.609 -0.2145  0.1599 -0.0326
23888W        W42742   4.517  10.178  14.114 -0.0331 -0.2047 -0.0539
23889W        W42743  16.456  12.896   1.576  0.2865  0.0973  0.1080
23890W        W42744   2.086  13.009   3.979  0.1201  0.1838  0.2239
23891W        W42745   4.944  13.810  13.726 -0.0012  0.1505 -0.0571
23892W        W42746   5.669   2.523   2.691 -0.0004 -0.2830  0.0835
23893W        W42747   7.786  16.557  12.567  0.0309 -0.1445 -0.1881
23894W        W42748  13.766  12.056   2.130 -0.1150 -0.2769 -0.0695
23895W        W42749   8.512  15.392   1.719  0.2423 -0.0891  0.2226
23896W        W42750   7.000  16.359   0.587  0.1104 -0.2574  0.0052
23897W        W42751  11.851   6.792  11.027  0.0347 -0.2260 -0.0250
23898W        W42752   8.350  16.717  12.665 -0.1160 -0.0018 -0.0295
23899W        W42753  10.484  14.326   4.926 -0.1479 -0.0827 -0.2182
23900W        W42754   5.507  15.872  15.060  0.1085  0.1469 -0.1009
23901W        W42755  18.060   3.959  13.099  0.0679  0.0532  0.0401
23902W        W42756   5.190  13.135   3.820 -0.0508  0.1869  0.1891
23903W        W42757   0.317  10.845  12.884  0.0090  0.0919  0.2898
23904W        W42758   2.686   7.676   1.806 -0.0792  0.1973  0.0832
23905W        W42759   4.504  12.793  15.327 -0.1303  0.3259 -0.1008
23906W        W42760  14.224   9.063  13.052  0.0532 -0.0704  0.0623
23907W        W42761   0.363   6.963   3.880 -0.0510 -0.1295  0.1504
23908W        W42762   1.821  17.611   3.299 -0.0461  0.2306  0.0416
23909W        W42763  16.429  15.568  14.785 -0.0551 -0.4356  0.1136
23910W        W42764   1.569  12.892   4.081  0.1037  0.0177 -0.0934
23911W        W42765   8.605   0.502   1.309  0.1419  0.0985  0.1484
23912W        W42766   4.636   4.659  12.030  0.5409 -0.2351  0.0661
23913W        W42767  11.531   2.836  14.248 -0.2599  0.0757 -0.0118
23914W        W42768  16.643  17.130   3.840 -0.1715  0.0762  0.2367
23915W        W42769   3.528   2.609  13.089 -0.2027  0.1440  0.0062
23916W        W42770  16.872  17.895  14.921 -0.0646  0.1310  0.2009
23917W        W42771   1.907   8.030   1.764  0.0546  0.1121  0.1113
23918W        W42772  15.010   5.833  14.149 -0.0566 -0.0513  0.0516
23919W        W42773   7.751  18.269  12.603  0.1654 -0.2076 -0.0302
23920W        W42774   0.783  13.683  14.118 -0.0805  0.6650 -0.2866
23921W        W42775   1.432  18.568  14.053 -0.2700 -0.0835 -0.0633
23922W        W42776   8.501   9.910  15.209  0.0165  0.1232  0.0663
23923W        W42777   1.541  15.877  14.315  0.0878  0.1804  0.3643
23924W        W42778  17.213   3.825   0.831  0.0788 -0.1157 -0.1058
23925W        W42779   3.668   0.895  13.617 -0.1493  0.0815  0.2396
23926W        W42780  10.690   6.658   4.979  0.0450 -0.0940  0.0667
23927W        W42781   5.733  18.274  15.104 -0.0601 -0.0376 -0.1890
23928W        W42782  13.501   0.153  11.088  0.0838 -0.3945 -0.0950
23929W        W42783   0.483  16.181   2.654  0.2964  0.0197 -0.0062
23930W        W42784  10.130   6.360  13.306  0.3345  0.0365  0.1641
23931W        W42785   6.911   1.198   4.119  0.2196 -0.0148 -0.0368
23932W        W42786   3.181  17.427   3.466  0.1230 -0.2432 -0.1227
23933W        W42787   4.184   5.647  11.885  0.0370 -0.2337 -0.3262
23934W        W42788   6.692   9.520   0.731  0.3543  0.0315 -0.1764
23935W        W42789   0.577  14.519  14.992 -0.1106 -0.3944 -0.2963
23936W        W42790  13.282  16.959  11.470 -0.0627  0.0784  0.1717
23937W        W42791  15.955  12.538   5.169  0.1958 -0.1718  0.0504
23938W        W42792   8.773   8.872  12.074 -0.0273 -0.1935 -0.0312
23939W        W42793   1.843  11.257  13.856 -0.0948  0.2032 -0.2485
23940W        W42794   4.066   3.722   1.973 -0.1643  0.2482  0.2495
23941W        W42795   9.842   3.506  11.975  0.1722  0.1468 -0.3110
23942W        W42796   3.119   0.280  14.101  0.0870  0.2031 -0.0357
23943W        W42797   0.188  11.999   2.120  0.1837  0.2950 -0.0827
23944W        W42798  14.815  10.075   2.774  0.1072  0.0665 -0.1157
23945W        W42799  12.042  11.803   0.104  0.2791  0.1861 -0.1469
23946W        W42800  14.594  11.092  12.186 -0.2313 -0.1723  0.1211
23947W        W42801   0.585  11.763  14.076 -0.2014 -0.2320  0.1093
23948W        W42802   6.435   3.485   1.521  0.1452  0.2411 -0.1249
23949W        W42803   6.377   6.033  15.295  0.0933  0.2091  0.1899
23950W        W42804  15.051   2.335   1.108  0.4663 -0.4704  0.2846
23951W        W42805  12.247   2.154  14.234  0.1192  0.1826 -0.0318
23952W        W42806   0.209   7.225   4.290 -0.0630  0.1476 -0.0501
23953W        W42807   7.844   1.949   0.239 -0.1382  0.2234 -0.0461
23954W        W42808   0.193   6.266  13.411 -0.1225 -0.2750 -0.1908
23955W        W42809  16.587  15.847   2.488 -0.0680  0.0586  0.0461
23956W        W42810   4.316   1.523   0.454  0.3542 -0.3245  0.1076
23957W        W42811   4.299   1.825  12.422 -0.1148 -0.3948 -0.1597
23958W        W42812   6.684  10.981   0.994 -0.1033  0.1605 -0.0643
23959W        W42813   3.831  16.823   1.855 -0.0756 -0.1254 -0.0739
23960W        W42814  14.324  16.359   2.948 -0.1506 -0.0766 -0.0096
23961W        W42815   5.140  18.135  15.000 -0.0578 -0.2199  0.0159
23962W        W42816  10.669  17.215   3.845  0.1387 -0.0782  0.1164
23963W        W42817  16.228  11.029   2.165 -0.0711 -0.1776  0.1357
23964W        W42818  11.599   6.957   3.326 -0.2376 -0.1695  0.0991
23965W        W42819   7.629  13.407  14.758  0.2044 -0.2001  0.0756
23966W        W42820   5.168  18.507   3.804 -0.1079 -0.0929  0.0407
23967W        W42821   2.956  17.917   3.561 -0.0030 -0.0837 -0.3024
23968W        W42822   3.216   3.155   1.109  0.2829  0.3384  0.1353
23969W        W42823  13.026  16.232  13.946 -0.0213 -0.0270  0.1080
23970W        W42824   1.530   6.712   1.320 -0.0958  0.0734  0.0603
23971W        W42825  12.321   3.089  13.686  0.1010 -0.0462  0.1376
23972W        W42826  12.769   5.993  12.131 -0.2875 -0.0386  0.0169
23973W        W42827   7.519   4.166   2.338  0.0123  0.2182 -0.0584
23974W        W42828   1.993   5.211   0.820  0.1318  0.2785  0.1997
23975W        W42829  16.602   9.957   2.723 -0.0043 -0.1055  0.1661
23976W        W42830   7.376  14.660   3.147 -0.0008 -0.0093  0.1999
23977W        W42831   2.320  12.197  12.784 -0.3105 -0.0150  0.0774
23978W        W42832   4.148   5.016  13.488  0.0288  0.1496  0.0371
23979W        W42833  12.385   0.093   3.041  0.0071 -0.0864  0.0349
23980W        W42834  15.088  13.174  15.381  0.1508  0.0634  0.0519
23981W        W42835   2.425   7.241  12.528  0.2606  0.2335  0.0850
23982W        W42836   1.735  16.873  11.073  0.0040  0.1121  0.1153
23983W        W42837  10.642  16.555   1.026  0.3139  0.1341 -0.1606
23984W        W42838   1.610   3.435  11.312  0.0206 -0.2886 -0.2061
23985W        W42839  12.026  15.341   1.098  0.1783 -0.2994 -0.0082
23986W        W42840   1.685  18.325  14.797 -0.2893  0.1518 -0.3461
23987W        W42841  13.254   9.612  12.491 -0.1316  0.0239 -0.1653
23988W        W42842   9.010  15.567   0.072  0.2602 -0.2088 -0.0003
23989W        W42843  14.347   0.414   1.023  0.1662 -0.1392 -0.3152
23990W        W42844   7.622   1.460   3.141  0.1196 -0.2166 -0.0113
23991W        W42845  13.245   6.883   2.561 -0.2864 -0.0446  0.2003
23992W        W42846  15.358  14.598   3.915 -0.3394 -0.0145 -0.0706
23993W        W42847   0.508   7.108   2.497  0.0102 -0.0712 -0.1312
23994W        W42848  14.185  18.562   3.025  0.1533  0.1666  0.0893
23995W        W42849   1.724   3.412  14.600 -0.0392 -0.3630 -0.1616
23996W        W42850  15.542   1.061  10.868 -0.0045  0.0046  0.0259
23997W        W42851   7.949   5.612  12.265  0.0979 -0.0232 -0.0203
23998W        W42852   4.105  14.118   0.341 -0.0435  0.1386  0.0479
23999W        W42853   9.829  12.687   4.772 -0.4556  0.1128 -0.1599
24000W        W42854  15.465   5.535   3.992 -0.1887  0.0506 -0.3240
24001W        W42855   6.154   2.986  10.374 -0.1961 -0.1602 -0.0838
24002W        W42856  13.774  13.746   2.722  0.0324 -0.0248 -0.1347
24003W        W42857  16.117  11.701   4.068  0.0040  0.0951 -0.3193
24004W        W42858  10.476   3.846   2.220 -0.1321  0.0994  0.1158
24005W        W42859   0.941  11.891   2.642 -0.4650  0.0468  0.0978
24006W        W42860   8.220   2.910  13.994 -0.1867 -0.2450  0.0994
24007W        W42861  11.251   7.372   1.120 -0.2464 -0.0082 -0.2503
24008W        W42862   9.087  13.413   3.963  0.0212  0.1529 -0.2027
24009W        W42863   6.319  11.079   1.536  0.2123 -0.2232  0.0916
24010W        W42864  10.230  12.180   4.099  0.2395  0.1130  0.2727
24011W        W42865   6.940   8.483   4.453  0.2191  0.1636 -0.0950
24012W        W42866   6.252  16.293  11.944 -0.1521 -0.1343 -0.0260
24013W        W42867   8.514   8.494  11.820  0.1448  0.1769 -0.2831
24014W        W42868   3.540   2.681   0.410  0.0626  0.0740  0.1200
24015W        W42869   3.947   9.223   1.846  0.2059  0.2238  0.2245
24016W        W42870   5.791   8.975   2.313  0.0623 -0.0445  0.1783
24017W        W42871  12.863  12.237  10.919  0.0447  0.0264 -0.0693
24018W        W42872  13.062  16.101  11.883  0.0110 -0.1971 -0.2324
24019W        W42873  17.659   3.824  13.451  0.0484  0.0744  0.0435
24020W        W42874   4.582  15.741  11.932  0.0895 -0.0683  0.0795
24021W        W42875  11.844  10.490   3.812 -0.0500  0.1017 -0.0224
24022W        W42876  12.412   9.773  14.009 -0.2114  0.0178  0.1526
24023W        W42877   3.232   0.031  13.689  0.0598 -0.3090 -0.1111
24024W        W42878   9.145   6.558   0.701  0.2301 -0.2131 -0.0568
24025W        W42879   4.960  17.871  14.661  0.2607  0.0481  0.3034
24026W        W42880  13.643   2.458  12.765 -0.0525  0.1305 -0.1024
24027W        W42881   0.889   6.792  13.732  0.1970  0.1101 -0.0349
24028W        W42882  15.506   3.753   2.367  0.2394 -0.0621  0.2843
24029W        W42883   9.847   9.966  15.036  0.0656  0.0441 -0.1078
24030W        W42884  13.214   3.329  13.721 -0.2031 -0.0257 -0.3088
24031W        W42885   1.625   8.385  13.174 -0.1976 -0.0389  0.1951
24032W        W42886   8.747   0.196   0.332 -0.2415 -0.1182  0.0266
24033W        W42887   3.897   4.206   3.760  0.0867  0.0968  0.0874
24034W        W42888   4.984   4.794  11.672  0.1482 -0.2004  0.2502
24035W        W42889  16.801  17.503   0.739  0.0978 -0.0117  0.0732
24036W        W42890  15.696  13.993  11.294  0.0773  0.0342  0.1005
24037W        W42891  17.079   3.646   2.042 -0.2554 -0.1692 -0.0026
24038W        W42892   5.220  11.350   2.809 -0.2055  0.1112 -0.0432
24039W        W42893   5.240  10.715  11.758  0.0392  0.2309 -0.2351
24040W        W42894   0.695  17.623   2.600 -0.2985  0.0493  0.1944
24041W        W42895  13.956   1.306  14.612  0.3674  0.0518  0.2702
24042W        W42896   9.515   6.292   0.933 -0.1529 -0.2797  0.2139
24043W        W42897   6.153   3.506  13.425 -0.4537  0.0600  0.2171
24044W        W42898   5.974   7.824   1.920 -0.0277 -0.1217 -0.0729
24045W        W42899  15.997   7.243  11.018  0.1766  0.4451 -0.2416
24046W        W42900   5.895  15.534  13.824  0.3773  0.0947 -0.0145
24047W        W42901   0.973   9.382   1.094 -0.0237 -0.0654 -0.1172
24048W        W42902   0.471  13.078   0.256 -0.0939  0.0563 -0.1081
24049W        W42903  18.409  12.428   3.029 -0.0678  0.1888 -0.5682
24050W        W42904   4.148  18.199  14.651  0.0187  0.1381  0.2626
24051W        W42905   6.990   9.100  15.371 -0.0239  0.1109 -0.1196
24052W        W42906  11.023  14.870  12.061  0.2399  0.0321 -0.2122
24053W        W42907   8.904   6.977  12.552 -0.0200  0.4420 -0.0488
24054W        W42908   1.806   8.073   3.374 -0.2802  0.1107 -0.0773
24055W        W42909  14.951   9.760  14.276 -0.0018 -0.0817 -0.2032
24056W        W42910   6.304   9.862  14.277  0.2705 -0.0058 -0.1224
24057W        W42911  18.137   0.812   4.341  0.1303  0.0272  0.3053
24058W        W42912   8.783   9.650  14.050  0.2108 -0.1892 -0.3326
24059W        W42913   1.251  10.919   1.540 -0.1807  0.0103  0.2336
24060W        W42914   1.662   3.074  11.681  0.1388 -0.0912  0.1663
24061W        W42915  11.698  11.394  13.066 -0.1183  0.2288 -0.2777
24062W        W42916   2.847  11.296   4.146 -0.1078 -0.2233  0.0458
24063W        W42917   7.440  17.175  15.098  0.1213  0.0222 -0.1248
24064W        W42918   4.103  14.460   1.046 -0.2087  0.1718  0.0727
24065W        W42919   6.103  18.571   1.838 -0.0348 -0.0618  0.1260
24066W        W42920   2.956  13.355  12.545  0.0665  0.0120  0.0610
24067W        W42921   7.240  17.293  12.316 -0.0376  0.2862  0.1299
24068W        W42922   2.918  13.615  12.945 -0.1891 -0.2262  0.2699
24069W        W42923   7.697   1.741  11.174 -0.0772 -0.0959  0.0447
24070W        W42924  17.808   6.485   0.437  0.0580  0.2701  0.0068
24071W        W42925   5.252   6.471  15.017 -0.1908 -0.2901  0.2236
24072W        W42926  11.099  10.639  15.028  0.1851 -0.0450  0.1735
24073W        W42927   4.599   7.691   2.256  0.3633  0.0782 -0.1698
24074W        W42928  14.736  17.898  13.409  0.4624 -0.0372  0.0513
24075W        W42929  12.314  13.319   2.252  0.0698  0.1472 -0.1791
24076W        W42930   3.626   1.041   1.382  0.0510  0.2175  0.0354
24077W        W42931   9.479   7.359  11.699 -0.1151  0.0200 -0.0013
24078W        W42932   0.458   2.807  15.145 -0.0027  0.2024 -0.0937
24079W        W42933  18.293  16.048   4.415 -0.1741 -0.0042  0.1359
24080W        W42934  16.872   5.325  14.926  0.0120  0.0209  0.2833
24081W        W42935  14.626  16.349   1.110 -0.3250  0.1980  0.0226
24082W        W42936  14.837  11.878   5.934 -0.0958 -0.1743  0.0723
24083W        W42937  11.675   0.624   4.649  0.1628  0.1428 -0.2715
24084W        W42938  17.983   9.129  15.072 -0.0388 -0.1058 -0.0198
24085W        W42939  12.277  13.456  12.141  0.1173  0.3702  0.0517
24086W        W42940   4.350  13.642  13.439 -0.0581 -0.0190 -0.0934
24087W        W42941   3.687   4.087   1.870 -0.3143 -0.1422  0.2687
24088W        W42942   5.513  15.262   3.314 -0.0074  0.2395  0.2567
24089W        W42943  17.781   9.338   1.526 -0.0561  0.1725  0.0389
24090W        W42944   0.737  16.843   4.182  0.0644  0.0567  0.2963
24091W        W42945  18.454   5.687   4.825 -0.1537  0.3250  0.0754
24092W        W42946   6.028  16.200   0.934 -0.2724 -0.0641  0.3630
24093W        W42947  13.537   7.819   3.995 -0.4108 -0.1038 -0.3526
24094W        W42948   6.200  13.091   0.210 -0.4108 -0.0057 -0.0993
24095W        W42949   1.234   5.509  15.263 -0.1484  0.1053 -0.1290
24096W        W42950   4.777  15.653   0.390 -0.0467  0.2635  0.0073
24097W        W42951   1.135   7.913  14.688  0.0072  0.1947  0.0138
24098W        W42952  16.612   5.806   1.952 -0.0401  0.0095 -0.0536
24099W        W42953   1.210   7.773   2.304  0.0716  0.1243 -0.2452
24100W        W42954   4.699   2.698  11.882 -0.0263 -0.0721 -0.3014
24101W        W42955   1.038   9.608   4.652  0.2891  0.0434  0.0246
24102W        W42956  10.487  10.872  13.192 -0.0980 -0.1980  0.0096
24103W        W42957  12.744  16.571   1.207 -0.0680  0.2535  0.0778
24104W        W42958  15.329  12.470  13.580  0.1057  0.2046 -0.2240
24105W        W42959  11.416   4.650  13.190 -0.0020 -0.3017 -0.0442
24106W        W42960   8.596   8.068   4.837  0.0681 -0.0965  0.3724
24107W        W42961  16.201  12.196  12.673 -0.1833  0.2382  0.1464
24108W        W42962   9.242   9.116   0.231 -0.1975  0.2134  0.3333
24109W        W42963  10.535  11.205  12.764  0.2239  0.0743 -0.0415
24110W        W42964   7.684  18.146   2.620 -0.1639  0.2079 -0.3501
24111W        W42965   1.631  13.417   1.654  0.0972 -0.0332 -0.2767
24112W        W42966  12.388  17.095  13.105 -0.3275 -0.0049 -0.1418
24113W        W42967  12.984  14.771   0.247 -0.1009  0.1851 -0.0119
24114W        W42968  14.599   4.999  14.356  0.0342 -0.2074  0.2024
24115W        W42969  17.660  11.237  12.999  0.0333 -0.2231  0.2632
24116W        W42970  15.608   9.276  13.884 -0.0177  0.5551  0.0364
24117W        W42971  17.501  11.303  14.691 -0.2795 -0.1270  0.0798
24118W        W42972  13.437  14.224  13.696  0.1024  0.0592  0.3116
24119W        W42973  12.812   1.551  15.463 -0.0508 -0.1213 -0.3782
24120W        W42974  10.561  11.354  13.672  0.0134 -0.2563 -0.0828
24121W        W42975  13.456   2.986   3.991 -0.2738 -0.1663 -0.1125
24122W        W42976   5.445   1.224  11.179  0.1254  0.1124  0.2808
24123W        W42977   4.074  17.662  11.843 -0.0313  0.0249  0.0234
24124W        W42978  16.397  13.309  14.066  0.1678  0.1522  0.0812
24125W        W42979   6.703  13.487  13.760  0.0969  0.3710  0.0025
24126W        W42980   5.593   4.219  12.899  0.1250 -0.0224  0.2313
24127W        W42981   2.781   5.072   1.831  0.0921 -0.1679 -0.2327
24128W        W42982  14.966  12.545   4.160 -0.0164 -0.0146 -0.2462
24129W        W42983  15.942  15.332   3.458 -0.0256  0.2423 -0.0050
24130W        W42984   2.796   6.368   1.388  0.0201  0.1781  0.4167
24131W        W42985   5.154   9.482  14.110  0.0044  0.3298  0.2307
24132W        W42986   7.177   3.026  14.258 -0.1508  0.4298 -0.1628
24133W        W42987   6.535   5.990   4.920 -0.4477 -0.0978 -0.0245
24134W        W42988  10.586   3.033  12.857  0.1771 -0.1298 -0.1517
24135W        W42989  17.376   7.328  11.943  0.2090  0.2434  0.0242
24136W        W42990  15.842   5.824   3.659  0.1932  0.2704 -0.3805
24137W        W42991   9.770  17.855  12.742  0.1807 -0.1365  0.0775
24138W        W42992   7.906  11.487   0.509 -0.2491  0.0344  0.1920
24139W        W42993  16.633   1.466   2.094 -0.0523  0.1847 -0.0745
24140W        W42994   7.958   4.268  12.527  0.0385 -0.0080  0.1524
24141W        W42995  10.462   6.676   2.079 -0.1059  0.3610  0.1503
24142W        W42996   6.172   4.053   1.682 -0.1748 -0.0638  0.2751
24143W        W42997  15.041  10.122   5.056 -0.2205 -0.1816  0.0419
24144W        W42998  17.514   8.267  13.879 -0.0127 -0.1348 -0.1442
24145W        W42999  15.514   3.674  15.318  0.0825  0.1696  0.0930
24146W        W43000  17.209   3.038   0.434  0.1522  0.0639  0.0405
24147W        W43001   7.431  14.528  14.669 -0.0733  0.2862  0.1023
24148W        W43002   7.416  14.763  10.773 -0.1775 -0.0014  0.0106
24149W        W43003  15.536   5.972   3.180  0.1600  0.0013 -0.0619
24150W        W43004   7.800   9.478   2.665 -0.1075 -0.0313 -0.0250
24151W        W43005   8.533   6.648   3.479  0.0752 -0.1071 -0.1651
24152W        W43006   4.750  10.839  14.549  0.1332  0.0507  0.1085
24153W        W43007   7.814  17.410  14.849  0.0154 -0.2170 -0.2590
24154W        W43008   0.535   5.902  13.251 -0.1510  0.3202  0.0716
24155W        W43009  15.004   5.293  14.418  0.0164 -0.2027  0.2350
24156W        W43010   5.686  12.376  11.097  0.1741  0.1119 -0.0963
24157W        W43011   2.037  14.710   2.519 -0.2067 -0.2606 -0.2083
24158W        W43012   1.585   1.197   0.095  0.0026 -0.2740  0.0400
24159W        W43013   6.471  18.017   4.056  0.0344  0.0172 -0.0477
24160W        W43014  11.248   4.676  14.967 -0.0522  0.0420  0.2711
24161W        W43015   1.741   2.329   5.034 -0.1867 -0.2239 -0.0007
24162W        W43016   0.782  12.278   3.395 -0.3053 -0.0497  0.0499
24163W        W43017  14.385  12.458  13.502 -0.1075  0.0590  0.1291
24164W        W43018  10.328   4.738   1.835 -0.2122 -0.2267  0.0105
24165W        W43019   8.374  11.051  11.575  0.0127  0.0049 -0.2155
24166W        W43020  18.465   1.505   3.096 -0.2058 -0.1996 -0.1764
24167W        W43021  13.943  16.428  15.089  0.1384 -0.3055 -0.3062
24168W        W43022   6.223   1.034  13.298 -0.0822  0.1625 -0.2471
24169W        W43023  17.556  12.317  13.215 -0.0490 -0.1641  0.0887
24170W        W43024  14.557   9.008   4.636 -0.3064 -0.0064  0.1500
24171W        W43025   8.758  10.921  15.048 -0.0526 -0.1303 -0.1242
24172W        W43026  17.696  13.670   2.719 -0.2655  0.0480 -0.0506
24173W        W43027  16.440   6.958   0.982 -0.1557  0.0211  0.1798
24174W        W43028  14.397   4.273  12.319  0.0595 -0.0336  0.1526
24175W        W43029  10.938   0.035   3.668 -0.0783 -0.0861 -0.1454
24176W        W43030  12.228   6.012   4.791 -0.0519 -0.1757 -0.1751
24177W        W43031  11.062   0.601   0.252 -0.0883 -0.3058  0.1743
24178W        W43032   3.828   7.889   4.994  0.0801 -0.2231  0.0883
24179W        W43033   0.990   7.372  14.550 -0.1586  0.0673  0.2338
24180W        W43034   7.824  16.014  14.283  0.1633 -0.0123 -0.0094
24181W        W43035  10.719  14.160  13.817  0.1809  0.1668 -0.2569
24182W        W43036   5.591   8.729  11.720  0.0498 -0.1929 -0.1430
24183W        W43037   9.781   5.999  15.301 -0.3235  0.2605  0.1274
24184W        W43038  13.043   6.893   0.238  0.4073 -0.0894 -0.1342
24185W        W43039  12.893  10.241  13.190  0.0940  0.0119  0.1464
24186W        W43040  18.093   5.196   4.275  0.3713  0.2835  0.2384
24187W        W43041   5.017  15.893  13.828  0.1929  0.2899  0.3492
24188W        W43042  14.646  12.071   3.530  0.1204 -0.1053 -0.1416
24189W        W43043  13.230  12.638   2.731  0.3623 -0.3222  0.3953
24190W        W43044  11.977   6.935   4.127 -0.2575 -0.2918  0.1581
24191W        W43045  17.878  15.326   0.845  0.0526  0.0105  0.2302
24192W        W43046   3.567   8.290   4.663  0.1231 -0.1604  0.3133
24193W        W43047   9.390   2.294  11.409 -0.2765  0.0430  0.0916
24194W        W43048  17.125  13.284  11.229 -0.2221 -0.1324 -0.2065
24195W        W43049  15.964   2.851  12.424  0.1314  0.1268  0.1794
24196W        W43050   6.658  17.567  11.839 -0.0330  0.1853 -0.3037
24197W        W43051  13.429   6.257   5.200 -0.1727 -0.0712  0.1902
24198W        W43052  12.761   6.975  12.378  0.2964 -0.0348  0.1098
24199W        W43053   8.465   1.606  11.760  0.0178 -0.0869 -0.0158
24200W        W43054   0.067  14.806  13.670 -0.0593  0.3034  0.2468
24201W        W43055  15.638   9.251   4.185 -0.1768 -0.0069 -0.1777
24202W        W43056   7.868   6.154  14.736 -0.4404 -0.1955 -0.0336
24203W        W43057  12.440   3.441  12.393 -0.3821 -0.1157 -0.0119
24204W        W43058  13.679   7.124   1.110  0.1019 -0.2702 -0.1420
24205W        W43059   0.524   0.455   1.739 -0.0327 -0.1738  0.0566
24206W        W43060  16.076   6.354  10.498  0.0078  0.0351  0.1287
24207W        W43061  10.209  16.682  11.481 -0.4379 -0.0673  0.2443
24208W        W43062  18.200   2.240   0.515 -0.0727  0.2141 -0.0698
24209W        W43063   4.401  18.435   2.196 -0.0902  0.4600 -0.3032
24210W        W43064  12.289  15.162  11.604  0.0312  0.2186 -0.1290
24211W        W43065   2.901   8.426  14.390  0.1894  0.2993 -0.2731
24212W        W43066  13.341  15.281   3.046 -0.1137  0.1459  0.1837
24213W        W43067  11.048  14.763  15.117 -0.0380 -0.0884  0.2718
24214W        W43068  15.800  10.190   1.217 -0.2490  0.0887  0.1431
24215W        W43069   2.870   0.131  14.662 -0.4474 -0.0179  0.0645
24216W        W43070  14.309   1.530  11.184 -0.2810  0.2611 -0.1904
24217W        W43071   0.632  16.095   0.695 -0.0436  0.1003 -0.1700
24218W        W43072  16.277   4.917   3.219 -0.1636  0.0344  0.3350
24219W        W43073  18.476   8.928  12.324  0.1660 -0.0144  0.0127
24220W        W43074   0.405  12.799  12.408 -0.0722 -0.2942 -0.1081
24221W        W43075   0.275   4.705  14.620  0.0725 -0.1009 -0.1126
24222W        W43076   1.589  12.342   1.744 -0.0354  0.1858 -0.0086
24223W        W43077  10.965   7.277   1.580 -0.1719 -0.0283  0.1693
24224W        W43078  11.201  18.463  13.651 -0.1510  0.4009  0.1517
24225W        W43079  15.478  15.188   3.547 -0.1481 -0.0794 -0.6284
24226W        W43080   1.881  16.417   3.999  0.1221  0.1120  0.1936
24227W        W43081   6.052   6.686   2.643 -0.0033 -0.0815  0.2301
24228W        W43082  11.027   9.120  14.213 -0.0151  0.1866 -0.0382
24229W        W43083   7.253  16.763   3.801  0.1536 -0.1682  0.2217
24230W        W43084  15.486  10.460   3.379  0.2615 -0.1948 -0.0296
24231W        W43085  10.325  10.951   2.411  0.2193 -0.0418 -0.3067
24232W        W43086  18.149  17.994   3.556  0.1687 -0.1146  0.1495
24233W        W43087   6.840   8.125  11.625  0.2668  0.1258 -0.0434
24234W        W43088   2.638  10.865  10.852  0.0444  0.3050 -0.1347
24235W        W43089   9.463   6.109   3.434 -0.0281 -0.0620  0.2423
24236W        W43090  15.270  16.671   0.324  0.2963  0.0892  0.0595
24237W        W43091   9.194  13.298  12.913 -0.0913 -0.3304 -0.0701
24238W        W43092   4.086   2.957   3.968 -0.1519 -0.0888 -0.0811
24239W        W43093  15.112  13.511  11.758 -0.1671  0.0648 -0.2094
24240W        W43094   4.997   2.271  15.451 -0.0214 -0.0174 -0.2422
24241W        W43095   0.117  11.291   2.833  0.3004  0.4090 -0.0456
24242W        W43096  12.207  16.175   2.262  0.1093 -0.1023 -0.1464
24243W        W43097   2.231  16.246   2.388  0.2215 -0.1830  0.2024
24244W        W43098  10.190   4.385  12.620 -0.3628  0.2940 -0.0879
24245W        W43099   1.774  11.659  11.295  0.0633  0.0186  0.1348
24246W        W43100   7.485  15.253   2.761  0.0538 -0.0548 -0.0020
24247W        W43101  11.497  12.384  11.936  0.0586  0.2643 -0.3799
24248W        W43102   1.513   9.791  14.881  0.1030 -0.0478  0.0682
24249W        W43103   4.820   6.134  12.709  0.0034 -0.0166 -0.1568
24250W        W43104  17.345   1.588   2.599  0.1410 -0.4555  0.1239
24251W        W43105   4.822   5.441   3.112 -0.2256 -0.2517  0.1414
24252W        W43106   2.623   6.534  13.015  0.2840  0.0352 -0.1820
24253W        W43107   7.270  16.202   2.088 -0.0749 -0.0330 -0.0169
24254W        W43108   3.278  13.471  15.302  0.0246  0.1191 -0.2024
24255W        W43109   0.563   6.413  12.993 -0.0244 -0.2657 -0.3255
24256W        W43110   2.269   5.666  15.348 -0.0941  0.0059 -0.1055
24257W        W43111  13.010   9.747   1.263  0.1947  0.1540  0.0386
24258W        W43112  17.101  16.141  13.588  0.1181  0.0948  0.0698
24259W        W43113  13.119   3.671   1.898  0.2290 -0.3798 -0.1152
24260W        W43114   0.847   4.996  14.880  0.1005 -0.1845 -0.2529
24261W        W43115  18.171   0.331   4.187  0.0671  0.0301 -0.0298
24262W        W43116   1.509   3.915   3.617 -0.0823  0.0187  0.0508
24263W        W43117   7.664  12.862  13.050 -0.0178  0.0282  0.3465
24264W        W43118  18.098   2.057   3.511  0.1847  0.0176  0.2727
24265W        W43119  12.613   8.155   2.759  0.4826  0.3227 -0.2173
24266W        W43120   0.618   2.551   3.737 -0.1957 -0.3153 -0.3979
24267W        W43121  13.462  17.541  12.085  0.0568 -0.1100  0.1171
24268W        W43122   1.129   2.823   0.256  0.0016 -0.1354  0.2316
24269W        W43123   4.313   5.376   1.154  0.2616 -0.3778  0.2347
24270W        W43124  15.583   5.078   3.829 -0.1856 -0.4516  0.0923
24271W        W43125  13.908   0.509   4.902  0.1396 -0.1274  0.0521
24272W        W43126   9.634  12.915   3.396 -0.1773  0.0745  0.0506
24273W        W43127   0.576  16.570  11.635 -0.2843  0.1078 -0.0131
24274W        W43128   0.963  17.613   1.210 -0.0382 -0.0726 -0.1957
24275W        W43129  10.795   2.575  13.065 -0.0246  0.1218 -0.1282
24276W        W43130   7.127   8.230   3.460 -0.0160  0.0944 -0.0064
24277W        W43131   0.059   1.925   0.286  0.0292  0.0057 -0.2462
24278W        W43132  14.062   2.263  15.250  0.0597 -0.2323  0.0109
24279W        W43133   4.300   8.204  13.008  0.1034  0.1543  0.1015
24280W        W43134   4.961   7.293   1.547  0.0300  0.0509  0.2195
24281W        W43135   2.490   8.865   2.354 -0.1153  0.1595 -0.0205
24282W        W43136   8.763  15.780  11.682  0.0360  0.0444 -0.1639
24283W        W43137  14.331  16.629  12.022 -0.2962 -0.1742 -0.1647
24284W        W43138   9.271  11.193   5.609  0.2972 -0.2922  0.0801
24285W        W43139   3.498  17.627  15.448  0.0259  0.1953  0.0410
24286W        W43140  16.263  12.584   5.940  0.0105  0.1098 -0.3183
24287W        W43141  14.774   5.670  11.188  0.1857  0.0003 -0.2213
24288W        W43142   1.084   6.360  12.727  0.0473 -0.1277 -0.1979
24289W        W43143   0.526  13.147   1.535 -0.1161 -0.2685 -0.3070
24290W        W43144  12.960   8.093  12.769  0.3038  0.0353  0.0481
24291W        W43145   9.017  12.832   4.029  0.2408  0.3708  0.3444
24292W        W43146  14.847   0.625   4.820  0.2279 -0.0993  0.1377
24293W        W43147   9.729   9.599   3.232 -0.1542 -0.2145  0.4354
24294W        W43148   1.967   7.616  14.598  0.1519  0.0056 -0.0618
24295W        W43149   7.751  12.473  13.420 -0.2766  0.0745 -0.0006
24296W        W43150   7.308   8.204   2.808 -0.0593 -0.0206 -0.0330
24297W        W43151   4.740   3.444  12.597  0.3092  0.1563 -0.1148
24298W        W43152   2.170   5.773  14.567 -0.0779 -0.0623  0.0585
24299W        W43153  18.380  17.647  12.049 -0.1508 -0.3334 -0.0766
24300W        W43154  16.368   0.953   1.365  0.3244  0.1285  0.1093
24301W        W43155  18.521   8.838   2.059  0.1774  0.5589 -0.2590
24302W        W43156   4.103  13.945  11.811  0.0411  0.1141  0.4277
24303W        W43157  16.200  10.312   4.131  0.1400 -0.1235 -0.0029
24304W        W43158  11.638  12.279  12.817 -0.0351  0.1037 -0.2123
24305W        W43159  16.002   6.182   3.043 -0.0672  0.2368  0.0040
24306W        W43160  13.987  12.455   2.393  0.0491  0.0247  0.0741
24307W        W43161   3.798   7.573  12.932 -0.1175 -0.1576 -0.1239
24308W        W43162  16.790   5.923  13.287 -0.1560 -0.0497  0.0828
24309W        W43163   3.197   4.905   2.095  0.3266 -0.0508  0.1310
24310W        W43164   7.537  17.310   2.992 -0.3885 -0.1998 -0.1849
24311W        W43165   6.456   6.852   4.808  0.0954  0.0291  0.1801
24312W        W43166   5.114   6.669  11.131 -0.1456 -0.2235  0.2007
24313W        W43167   6.126   8.256   5.473 -0.1751 -0.2828 -0.0092
24314W        W43168  16.829   7.906   2.170 -0.5310 -0.0074  0.1096
24315W        W43169  16.008   6.434  13.492 -0.0147  0.0273  0.1091
24316W        W43170  12.569   7.324   3.166  0.0645 -0.0546 -0.0950
24317W        W43171   7.576  12.919  11.711  0.1289  0.0980 -0.2085
24318W        W43172   9.858   8.267  14.955 -0.3385 -0.1304  0.0137
24319W        W43173  10.729  13.434   3.029  0.1257 -0.0158 -0.2718
24320W        W43174   6.062  12.320  13.684 -0.1922  0.2244 -0.2452
24321W        W43175   1.739   5.284   1.900  0.1467 -0.0974 -0.0480
24322W        W43176  10.648   3.606   4.185  0.1640  0.1091  0.0926
24323W        W43177   3.552  13.692   3.820  0.0117  0.1641  0.1064
24324W        W43178   9.860   1.796  13.328  0.0662  0.1130  0.2567
24325W        W43179   6.601  10.112   2.821 -0.3013 -0.1094  0.3233
24326W        W43180  11.643  13.339   1.641  0.0927  0.3320  0.0278
24327W        W43181   5.961   6.460   4.205  0.0045 -0.0078 -0.2713
24328W        W43182   5.908   0.815   4.389  0.2096  0.0156 -0.1540
24329W        W43183  11.278   2.001   2.142  0.3279  0.0765 -0.0133
24330W        W43184   5.177   7.698   2.454 -0.2445  0.1347  0.3904
24331W        W43185   1.188   9.731  11.159  0.4410 -0.1070 -0.1070
24332W        W43186   7.766  10.196  12.535 -0.1067  0.1280 -0.2772
24333W        W43187   9.791  16.945   3.468 -0.3594 -0.1740 -0.0618
24334W        W43188   3.811  11.156  12.651 -0.2233 -0.0116 -0.0393
24335W        W43189  14.606  12.121  14.413 -0.0549  0.0603  0.2987
24336W        W43190   1.463   0.763   0.359  0.2852  0.5478 -0.0915
24337W        W43191   1.617  10.350   4.285  0.0490  0.1004 -0.0218
24338W        W43192   9.836   0.424  13.031  0.1082 -0.1509 -0.4591
24339W        W43193   5.998  13.439   1.545  0.1757 -0.0503  0.1030
24340W        W43194  12.719  10.746   4.405  0.0508  0.1187  0.0972
24341W        W43195   2.430  15.648   5.111  0.1710 -0.1040 -0.1134
24342W        W43196  14.782   9.174   0.351  0.0834 -0.1599 -0.1104
24343W        W43197   9.436  14.687  12.152 -0.0647 -0.1955  0.1120
24344W        W43198   2.403  12.266   2.819  0.0209 -0.3835  0.3024
24345W        W43199   5.056  17.645   1.558  0.0008  0.2919 -0.0258
24346W        W43200   4.043   2.331  12.984  0.0749 -0.0796  0.0577
24347W        W43201  16.846   4.409  10.113 -0.3397  0.1350 -0.0319
24348W        W43202   5.290  15.719  12.154 -0.1495  0.3096 -0.0086
24349W        W43203  16.062   4.342  14.334  0.0235  0.0414  0.2647
24350W        W43204   3.066   1.621   3.301  0.0470  0.0708 -0.5232
24351W        W43205  11.942  17.478  12.557  0.1424  0.0715  0.0544
24352W        W43206   0.733   0.060   2.508  0.0863 -0.6607  0.1143
24353W        W43207   3.377   7.220  12.136 -0.1824 -0.2019 -0.2456
24354W        W43208  13.438  11.049  13.787 -0.3486 -0.0727  0.3451
24355W        W43209  15.142   5.920  12.475 -0.1100 -0.1098 -0.0624
24356W        W43210  12.822   0.023  15.267  0.0900 -0.1837  0.0466
24357W        W43211   8.563   1.736  14.286 -0.0431  0.1036  0.3435
24358W        W43212   5.495  12.195  12.344  0.0727  0.1602  0.1807
24359W        W43213  18.176   0.948  13.701  0.1437 -0.0453  0.0053
24360W        W43214  14.171   5.601  13.859 -0.2054  0.5393 -0.6241
24361W        W43215   8.006   3.389   4.196 -0.1086  0.0390 -0.1452
24362W        W43216  11.483   1.742   1.693 -0.1829 -0.1262  0.0016
24363W        W43217   3.189   1.273   4.277  0.2080 -0.4134  0.1594
24364W        W43218  18.367  17.561   3.672 -0.0225  0.1570 -0.1686
24365W        W43219   7.432  13.777   0.629 -0.1234  0.0997  0.1700
24366W        W43220   5.026   1.753   1.499 -0.0173 -0.0319 -0.0658
24367W        W43221   5.445   2.606  10.364 -0.0891 -0.3672 -0.0800
24368W        W43222   3.110  12.647   3.216  0.3087  0.1977 -0.0838
24369W        W43223   2.627   5.101   4.019  0.0545  0.1431 -0.4175
24370W        W43224   7.587   0.451   1.509  0.2265  0.1459  0.0383
24371W        W43225  15.919  15.140  15.257  0.1174 -0.3683 -0.1490
24372W        W43226   1.496  13.237   2.631  0.2520  0.1520 -0.1731
24373W        W43227   1.429   8.480  12.156 -0.0664  0.0020 -0.0500
24374W        W43228   0.882  16.578  14.092  0.1311 -0.0867 -0.0900
24375W        W43229   6.390   9.279  15.382 -0.1405 -0.1413  0.4320
24376W        W43230   3.108  11.059   3.604  0.2421  0.0926  0.1903
24377W        W43231   5.186  17.576  11.311  0.0897 -0.0691 -0.3095
24378W        W43232  13.474   9.282   1.810 -0.0526  0.2109 -0.2240
24379W        W43233   1.437  11.355  14.158 -0.0314 -0.0259  0.0265
24380W        W43234  14.013  11.979   0.689 -0.0580 -0.3559  0.1946
24381W        W43235   7.338   5.954   2.137 -0.2829  0.2037 -0.0420
24382W        W43236   8.439   9.646   2.477  0.0658  0.1222 -0.1460
24383W        W43237  16.802  15.237  15.032 -0.0705 -0.0283 -0.0079
24384W        W43238  18.067   8.527   2.073 -0.1960  0.0550  0.1805
24385W        W43239   7.982  13.400  13.446 -0.2647 -0.3292 -0.1196
24386W        W43240   1.748   6.518   3.379  0.2112  0.1923  0.0819
24387W        W43241  12.083  14.951   4.426 -0.1519  0.1039 -0.1884
24388W        W43242  15.285   6.689  11.450  0.0405  0.0145  0.2688
24389W        W43243   7.727   0.548   3.785  0.0429  0.0718  0.1231
24390W        W43244  17.807  17.350  15.165 -0.4189 -0.4778 -0.2526
24391W        W43245  15.325   2.200  13.484 -0.0371 -0.0412  0.4493
24392W        W43246  14.744   3.952   2.570 -0.0793 -0.1961 -0.3227
24393W        W43247  16.382  17.775  13.724 -0.3839  0.0065 -0.2102
24394W        W43248  10.377   4.354   1.553  0.1784 -0.0526  0.0996
24395W        W43249  11.556   1.240  15.048 -0.0396  0.2667  0.0199
24396W        W43250   3.388  16.788  12.154 -0.0362  0.2947  0.2350
24397W        W43251  10.887   5.985   1.409  0.2087 -0.0956  0.0424
24398W        W43252   2.837  11.999  12.616 -0.0076  0.2586  0.1163
24399W        W43253  11.339   6.809   1.483 -0.1609  0.1004  0.1694
24400W        W43254  14.110  11.860   4.016 -0.1080  0.0537  0.2456
24401W        W43255  18.105  12.953  12.907  0.3025  0.0323 -0.4149
24402W        W43256  11.393   4.972   4.359 -0.0544  0.1461  0.0584
24403W        W43257   4.287   4.044  11.550  0.3870  0.0684 -0.0568
24404W        W43258  14.065  10.830  14.928  0.2115 -0.1201  0.0867
24405W        W43259   4.620  14.942   2.733 -0.1103 -0.4111  0.0213
24406W        W43260   8.097  10.958   0.447  0.0012 -0.0376  0.1955
24407W        W43261  12.318   4.071  15.202  0.1974  0.1628  0.3298
24408W        W43262   2.035   8.889  10.914  0.3938  0.1847  0.1556
24409W        W43263   1.585  11.765   1.053  0.2056  0.0773  0.1172
24410W        W43264  14.621   0.740   0.759  0.1180  0.1551 -0.1023
24411W        W43265  18.378  16.037   1.078 -0.0537 -0.0737 -0.1100
24412W        W43266   3.991  13.130  12.733 -0.1722  0.2010  0.0216
24413W        W43267   3.215   6.980   3.042  0.0343 -0.0404 -0.1195
24414W        W43268   9.353   0.521  13.860  0.1358  0.0671 -0.0560
24415W        W43269   9.939  11.268   0.888  0.4002 -0.0227 -0.1026
24416W        W43270   8.107  16.487   0.800 -0.1137 -0.0145 -0.1418
24417W        W43271   3.351  17.743  14.905  0.0994 -0.2920  0.0112
24418W        W43272  13.670  18.244   3.713  0.2256 -0.1310 -0.0900
24419W        W43273   2.442   3.780  10.953  0.0238  0.1622  0.2547
24420W        W43274   2.662   5.632  14.468  0.0087 -0.0619  0.0266
24421W        W43275   4.058   9.673   2.123 -0.2550 -0.1822  0.1730
24422W        W43276  17.323   3.766  14.176 -0.2349 -0.1152 -0.2974
24423W        W43277   7.525   6.361   1.764  0.1429  0.2289 -0.2450
24424W        W43278   7.762  12.702   0.352  0.3259  0.1791  0.2742
24425W        W43279   7.488  11.614   4.247 -0.1522  0.1315 -0.3924
24426W        W43280  16.330  15.788  13.343 -0.1543  0.1157 -0.1782
24427W        W43281  11.287   5.542  12.180  0.2124 -0.2549  0.0070
24428W        W43282   8.945  13.234   3.556  0.5801  0.2214 -0.3257
24429W        W43283  18.041   3.055  11.445  0.2179 -0.1649  0.2385
24430W        W43284  15.493   7.333   1.367 -0.0743  0.2575 -0.1252
24431W        W43285   8.788  14.032  11.990  0.0875 -0.0220  0.2497
24432W        W43286  13.849   8.868  11.016 -0.1180 -0.0488  0.0148
24433W        W43287  14.681   2.458   0.363  0.2943 -0.0064 -0.2326
24434W        W43288  11.791   3.751   2.509 -0.0007 -0.0456  0.0588
24435W        W43289   6.300   1.677   1.676 -0.1005 -0.0552 -0.0274
24436W        W43290  10.696  12.198   2.697  0.0454  0.0002 -0.2013
24437W        W43291   1.857  16.276  14.900  0.2701  0.3243  0.0139
24438W        W43292   5.483   1.341  14.039  0.0658 -0.0676  0.2104
24439W        W43293  17.807   7.958  14.913  0.1812 -0.1750 -0.0538
24440W        W43294  11.948   8.361  12.010 -0.0834  0.0129  0.2159
24441W        W43295  11.156   8.960  11.311 -0.0297 -0.2008 -0.4155
24442W        W43296  18.461   2.239  11.173  0.0676  0.3325 -0.1781
24443W        W43297   7.977   8.364  11.929 -0.0893  0.1366  0.1795
24444W        W43298  15.586  13.105   0.934 -0.0465  0.3944  0.0130
24445W        W43299  15.059   7.950   0.561  0.1689 -0.1496 -0.1081
24446W        W43300  17.590  11.662   2.246  0.0239 -0.0594 -0.2786
24447W        W43301  14.395   0.829   3.999 -0.0304  0.0104 -0.1816
24448W        W43302  14.770  15.957   3.336  0.1223  0.0350  0.1154
24449W        W43303   8.188   8.235   1.230  0.1285 -0.0660 -0.0046
24450W        W43304  11.199   8.169  14.083 -0.1044  0.0890  0.0883
24451W        W43305  16.523   5.937  13.732 -0.2386  0.0278  0.0289
24452W        W43306   9.036   6.936   2.095 -0.1702 -0.0384  0.0613
24453W        W43307   7.268  10.893  12.497  0.2314  0.0333  0.0183
24454W        W43308   1.620  14.965  13.838  0.0534 -0.0441 -0.1404
24455W        W43309  14.806  10.628  13.713 -0.0427 -0.2108  0.1933
24456W        W43310  11.627  14.465  14.471 -0.1553  0.0075  0.1257
24457W        W43311   9.153  17.508  12.067 -0.0064 -0.0777 -0.0029
24458W        W43312   2.683  18.068  11.039 -0.2992 -0.1906  0.0752
24459W        W43313   9.520   5.671  13.636  0.0198 -0.0821 -0.0499
24460W        W43314  12.985   6.585  12.126  0.1030 -0.1149 -0.0594
24461W        W43315   9.443  11.938   0.481 -0.3710  0.1297 -0.0980
24462W        W43316   0.168   5.714  11.970 -0.1943 -0.2390 -0.3087
24463W        W43317   3.707   6.894   3.068 -0.0037 -0.1866 -0.1887
24464W        W43318   1.123  15.308   3.036 -0.0113  0.1276  0.0150
24465W        W43319  17.712  17.330   1.712  0.1710  0.2233  0.0363
24466W        W43320   7.859  11.064   2.183  0.1440  0.1354  0.2032
24467W        W43321   4.597  12.321  12.796 -0.0382  0.1587 -0.1125
24468W        W43322   9.006  13.341  13.402  0.1571  0.0281  0.2421
24469W        W43323  10.112   6.852  12.286  0.1428  0.1275  0.1251
24470W        W43324  15.028  13.832   2.108  0.2237 -0.0620  0.2796
24471W        W43325  18.059   6.273   4.736  0.2870  0.3732 -0.1161
24472W        W43326  16.757   9.837   4.561  0.0222 -0.0322 -0.0560
24473W        W43327  16.397   7.936  14.296 -0.2762 -0.3255 -0.1044
24474W        W43328   6.622   4.031  11.276  0.1827 -0.2679  0.0249
24475W        W43329   4.931  17.196  14.969 -0.1294 -0.2690  0.1817
24476W        W43330   5.948  14.702   0.921  0.0812  0.2545  0.2940
24477W        W43331  16.456   8.711   3.304  0.1966 -0.1141 -0.0641
24478W        W43332   2.045  12.269   0.647  0.0625 -0.0752 -0.1093
24479W        W43333  16.678   4.634  11.673 -0.0788 -0.2478  0.0923
24480W        W43334  12.073   4.387  13.569 -0.1509 -0.0735  0.0490
24481W        W43335  16.327   2.415   0.574  0.0702  0.0518  0.2812
24482W        W43336  15.889   9.155   2.268 -0.0205  0.0749  0.3003
24483W        W43337   7.249  13.465   4.465 -0.1051  0.0133  0.1101
24484W        W43338   0.083   9.460   0.492 -0.0635  0.1549  0.1860
24485W        W43339   4.168   9.356   0.397 -0.1906 -0.3577  0.1036
24486W        W43340  14.202   8.220  11.714 -0.0375  0.0078  0.1364
24487W        W43341   6.342  15.513  14.077 -0.1041 -0.1460 -0.5226
24488W        W43342  14.347   6.060   1.693 -0.0914  0.0935  0.0629
24489W        W43343   8.654  17.364   2.644  0.3018 -0.2373  0.3108
24490W        W43344   0.213  17.809   4.426 -0.0374 -0.3600 -0.0957
24491W        W43345  10.347  17.729   2.962 -0.1045  0.1555  0.3064
24492W        W43346  12.180  15.614   4.401 -0.3379  0.0121 -0.3246
24493W        W43347  11.613   2.267  13.500  0.0894  0.0474 -0.1264
24494W        W43348   1.778  10.699   2.153 -0.0283  0.0378  0.2053
24495W        W43349  16.281  15.959  15.127  0.0658 -0.2321 -0.0446
24496W        W43350   4.094  14.860  14.169  0.0691 -0.1281  0.0542
24497W        W43351   8.283   7.936   0.821 -0.0614  0.0072 -0.3121
24498W        W43352  14.889   2.476  14.902  0.1669  0.1451 -0.0196
24499W        W43353   3.727  10.913   4.348 -0.1309 -0.2550  0.3584
24500W        W43354   0.503   3.369   2.190  0.2654 -0.0500  0.0834
24501W        W43355  13.965  15.683   2.310  0.1987  0.3639  0.0083
24502W        W43356  14.894   7.887   2.620 -0.2546 -0.2581 -0.1253
24503W        W43357   4.016  12.147  12.309 -0.1382 -0.0241 -0.1339
24504W        W43358   0.949   7.476  13.732 -0.2054  0.1100  0.1041
24505W        W43359  17.575  14.060  10.807 -0.0855 -0.0105  0.1074
24506W        W43360   0.353  10.837   0.608 -0.1129  0.0110 -0.3340
24507W        W43361  17.251  15.051   0.181  0.1391 -0.2260 -0.0455
24508W        W43362   5.769  12.643  10.470  0.2074 -0.1470 -0.1906
24509W        W43363  15.087   4.419   3.416  0.0348  0.1541  0.0803
24510W        W43364  12.942   7.697   0.981  0.1674 -0.0271  0.0603
24511W        W43365  16.093   4.153   4.439  0.2505  0.0809 -0.1444
24512W        W43366  17.856   6.945   4.273  0.0272  0.0121  0.1310
24513W        W43367  15.336   1.850   1.583 -0.2734  0.1031 -0.2205
24514W        W43368  10.942  12.496   4.461 -0.3371 -0.1936  0.1508
24515W        W43369   4.414   3.975   2.414  0.2831  0.2952  0.0976
24516W        W43370  16.530   5.655  15.087  0.7323  0.0092 -0.2089
24517W        W43371  16.643   2.707   4.574 -0.1621  0.0228  0.1379
24518W        W43372   3.888   1.556  11.585  0.0395 -0.3511 -0.0997
24519W        W43373  17.446   3.381   2.408 -0.1100 -0.4325  0.1593
24520W        W43374   0.336   5.670  14.863  0.2524 -0.0035  0.0319
24521W        W43375   3.453   4.835  12.663 -0.1873  0.3947 -0.1232
24522W        W43376   5.987  12.879   1.547 -0.5077 -0.2260  0.1096
24523W        W43377   2.063   4.701   3.997  0.1417  0.0438 -0.0241
24524W        W43378  17.895   3.706  10.343  0.0418  0.3326 -0.1360
24525W        W43379   7.687  14.278   1.360  0.2163  0.4695  0.1813
24526W        W43380   4.347  14.323   3.795  0.0179  0.1381 -0.3647
24527W        W43381   2.088  13.081  14.199  0.0106  0.1113 -0.1015
24528W        W43382   3.315  11.060   0.284  0.0934 -0.0254 -0.1513
24529W        W43383  10.806  14.580  11.404 -0.2767 -0.0212 -0.2577
24530W        W43384  15.290   1.851   3.952 -0.2160 -0.3650  0.4102
24531W        W43385   5.237   6.779   5.446 -0.2150 -0.0171  0.0641
24532W        W43386   6.868  12.916  14.897  0.1336  0.0914  0.0055
24533W        W43387  17.510   8.704   4.113  0.3039 -0.2480  0.3784
24534W        W43388   7.407   8.532  12.667 -0.0316  0.1085 -0.0999
24535W        W43389  18.269   8.913   3.694  0.3974  0.1488 -0.1425
24536W        W43390  14.903   8.133  15.376 -0.0681  0.0152  0.0867
24537W        W43391   5.446  12.214  15.103  0.0447 -0.0444 -0.1136
24538W        W43392  13.623   9.415  11.831  0.2443 -0.0432 -0.1041
24539W        W43393  14.485  10.139  10.771  0.2438 -0.1283  0.0764
24540W        W43394   4.043   1.106  11.249 -0.1078 -0.1549  0.2577
24541W        W43395   9.254   2.943   3.964  0.0986  0.2649 -0.3360
24542W        W43396  16.372   3.097   4.741  0.1703 -0.1268  0.1510
24543W        W43397  12.030   2.122  11.708  0.1417 -0.0268 -0.1240
24544W        W43398   1.497  16.379   1.633  0.1612 -0.0673  0.1915
24545W        W43399   1.395   9.422   2.896  0.2578  0.0225 -0.0445
24546W        W43400  10.495   1.729   2.934  0.0943 -0.0765  0.3054
24547W        W43401   4.111   0.633  15.005  0.0933  0.0374 -0.0552
24548W        W43402   0.993   4.277  13.078  0.0393 -0.1407 -0.1759
24549W        W43403   6.818  14.475   2.259 -0.0871  0.0698  0.1071
24550W        W43404   0.294   3.423   2.665  0.2886 -0.0800  0.0674
24551W        W43405  15.933  16.710  13.106 -0.1131 -0.1901  0.0839
24552W        W43406  11.965   7.937  11.545  0.2007 -0.1469  0.1975
24553W        W43407   5.481   6.325  12.420  0.0492  0.1084 -0.0193
24554W        W43408  10.872   2.073  13.182 -0.1121 -0.2034  0.2052
24555W        W43409   7.106   8.442  11.933 -0.1832 -0.0191  0.1725
24556W        W43410  15.317  13.407  13.710 -0.1818  0.0477 -0.1397
24557W        W43411   4.510  13.056   3.352 -0.1980  0.0778  0.0564
24558W        W43412  14.548   5.162   1.569 -0.2323  0.1105 -0.0243
24559W        W43413  15.502   7.845   3.968 -0.1490 -0.1780 -0.1185
24560W        W43414   8.407  13.168   4.578 -0.1192  0.0556  0.1008
24561W        W43415   7.530   9.096  11.082 -0.1148 -0.2160  0.1087
24562W        W43416  13.108   2.318   1.379 -0.2463 -0.1911 -0.2116
24563W        W43417   0.482   5.994   1.791 -0.1202 -0.1003  0.0753
24564W        W43418  11.494  10.180  12.593  0.1472  0.0190  0.1982
24565W        W43419   9.278   2.623  14.240  0.1328  0.0291 -0.0782
24566W        W43420  17.983   2.267  15.077  0.0679 -0.0198 -0.0739
24567W        W43421   1.163  15.516  12.910 -0.0884  0.0072  0.3821
24568W        W43422   3.170  15.018   2.973 -0.1581 -0.3265  0.2199
24569W        W43423  14.242   0.618   3.588 -0.1406  0.2125  0.1520
24570W        W43424   0.652   6.027  15.111 -0.1229 -0.2087  0.1054
24571W        W43425   4.234  10.102   1.872 -0.0852 -0.0874  0.1800
24572W        W43426   1.070  16.260  14.468  0.3153 -0.0346 -0.0762
24573W        W43427  11.124  15.884  14.680  0.1938 -0.2059 -0.2859
24574W        W43428   6.263   8.813   1.511  0.1145  0.1748  0.1749
24575W        W43429   9.177  14.359  11.796  0.1783 -0.0286  0.1647
24576W        W43430  13.182  11.163   4.200 -0.1433  0.1180  0.0740
24577W        W43431  10.584   1.020   4.027 -0.0940 -0.1762  0.1619
24578W        W43432  13.192   6.887  13.181 -0.2537 -0.2091  0.1716
24579W        W43433  11.137   1.021  11.490  0.0501 -0.0508 -0.3371
24580W        W43434   4.499  10.894   2.438  0.3595 -0.0920  0.1397
24581W        W43435  16.820   1.132  11.792  0.0619 -0.3357  0.0543
24582W        W43436   1.860   4.537   1.601 -0.1328 -0.0353 -0.0820
24583W        W43437  14.030   6.307   1.363  0.2079  0.0738  0.1103
24584W        W43438   9.750   3.368   0.049  0.2221 -0.2121  0.3130
24585W        W43439   0.867   2.628   1.722 -0.0954 -0.0624 -0.0727
24586W        W43440   2.416   4.147  11.293 -0.3586 -0.1067  0.1611
24587W        W43441   1.195  14.241   2.338 -0.0894  0.0378  0.0426
24588W        W43442   2.401   7.912  14.509  0.1564 -0.1770  0.3579
24589W        W43443   9.331   1.322   3.773 -0.2749  0.0045 -0.0921
24590W        W43444  14.140  10.713  12.487  0.0289 -0.3563 -0.1199
24591W        W43445  13.300  15.456  14.553  0.1597  0.1833 -0.2652
24592W        W43446  12.843   9.894   1.804  0.1938 -0.3163  0.2729
24593W        W43447   4.127  14.487  10.645  0.0401 -0.1052  0.0905
24594W        W43448   2.454  16.848  14.457 -0.1531  0.0216 -0.1286
24595W        W43449  13.888   8.320  12.516 -0.1770  0.1192  0.0807
24596W        W43450   8.440  10.590  14.306  0.0956 -0.0554  0.0704
24597W        W43451   3.129  17.465   2.663 -0.0265  0.0224 -0.0758
24598W        W43452  17.214  10.064  11.824  0.5716  0.2785  0.0968
24599W        W43453   3.305   8.583   1.843 -0.1106  0.0061 -0.1794
24600W        W43454   2.935  18.010  12.446 -0.0759  0.0441  0.2946
24601W        W43455  16.115  13.270   2.747 -0.0043 -0.0055 -0.0105
24602W        W43456  11.476  13.566   4.369  0.1606  0.2940  0.1570
24603W        W43457  14.762   9.446  12.947  0.1392  0.1197  0.2936
24604W        W43458   6.233   5.992  11.787 -0.1746 -0.2437  0.0217
24605W        W43459   0.746  14.323  11.890  0.2087  0.1377  0.0341
24606W        W43460   2.806   9.122  11.573 -0.4680  0.1003  0.1297
24607W        W43461   7.673   5.093   2.168 -0.1710 -0.2187 -0.3233
24608W        W43462  14.227   5.411   2.778  0.3341 -0.0221  0.0567
24609W        W43463   7.433  10.639  12.072 -0.1091  0.1225  0.1475
24610W        W43464  16.386   9.001  14.379  0.0270 -0.1655  0.1986
24611W        W43465  15.969  13.896  14.669  0.0019 -0.2898  0.0353
24612W        W43466   7.376  11.976  14.244 -0.2640  0.0070 -0.0413
24613W        W43467  17.334  12.833   0.430  0.2576  0.0107  0.1199
24614W        W43468   2.334  12.068  10.956  0.0068  0.0157  0.3054
24615W        W43469  18.187   1.484   1.749  0.3753  0.2883 -0.1561
24616W        W43470   1.812   3.730  13.797 -0.1030  0.0179  0.0985
24617W        W43471  12.764  14.741   1.456  0.0371 -0.0890 -0.0208
24618W        W43472   1.806  17.150  12.421  0.0955 -0.1687 -0.1858
24619W        W43473   1.458   4.596  14.062  0.0483  0.0283  0.1249
24620W        W43474   9.367   5.042   4.176  0.1125  0.1834 -0.1757
24621W        W43475  17.436   8.179  15.316 -0.1641 -0.1349 -0.0767
24622W        W43476   2.856   0.973   0.853  0.2985 -0.0131  0.1349
24623W        W43477  15.207   1.337   3.895 -0.1361 -0.1903  0.0808
24624W        W43478  12.945  13.154   1.358  0.1304 -0.2097 -0.0445
24625W        W43479   8.443  11.793   4.341 -0.0620 -0.2609 -0.1169
24626W        W43480   8.048   2.546  13.213  0.0640 -0.0432 -0.0160
24627W        W43481   7.931   5.220  11.396 -0.0698  0.0990 -0.0242
24628W        W43482  17.448  10.229   2.062  0.0112  0.2140  0.0229
24629W        W43483   3.393   9.129  14.581  0.1577  0.0485 -0.1933
24630W        W43484   1.453  17.885   1.998 -0.2466 -0.0112  0.1964
24631W        W43485  15.811   4.450  14.734  0.1056 -0.2529  0.2710
24632W        W43486  14.270   4.754  12.533  0.0743  0.2706  0.1479
24633W        W43487   6.776  15.767   2.895  0.1865  0.0043  0.0488
24634W        W43488   1.231  11.088  12.818 -0.2221 -0.1794  0.2450
24635W        W43489  13.020  15.652   1.191 -0.2727  0.2453  0.3040
24636W        W43490  14.228  11.570   0.313  0.0264  0.2811  0.1743
24637W        W43491  13.466  12.372   2.386  0.2289  0.1153  0.0087
24638W        W43492   3.772  17.788  13.712 -0.2770 -0.3343 -0.0986
24639W        W43493  15.625   0.855   0.175  0.1527  0.1037 -0.0356
24640W        W43494   9.332  17.855   4.579 -0.1574 -0.2563  0.1552
24641W        W43495  17.382  15.482  12.539  0.1296 -0.1990  0.1793
24642W        W43496  12.499   7.924  10.285 -0.0384 -0.3588  0.3777
24643W        W43497  16.855   4.751  10.444 -0.2447  0.1266 -0.1731
24644W        W43498   8.040   1.156  14.055 -0.0158  0.1148 -0.0037
24645W        W43499  14.637   4.988   2.984  0.3829  0.0493 -0.2727
24646W        W43500  14.410   6.603   1.597 -0.0167  0.1272  0.1512
24647W        W43501  14.655   1.213   1.137  0.1931  0.1841  0.0749
24648W        W43502   3.624  13.340   1.030  0.4563 -0.2654  0.0355
24649W        W43503  12.741   7.556  11.322 -0.0145  0.0068 -0.0209
24650W        W43504   7.297   3.035   1.498 -0.2980 -0.0499  0.2232
24651W        W43505  15.502  16.605   4.035  0.0165  0.0859  0.0943
24652W        W43506  14.037   2.254   3.251  0.2227  0.1370  0.0412
24653W        W43507  10.052   3.334   0.438 -0.0561  0.0595 -0.1981
24654W        W43508   2.907  12.319   2.042  0.0431 -0.0567  0.2687
24655W        W43509   4.370  10.619  13.900  0.1497 -0.2730 -0.1856
24656W        W43510   7.530   5.059   1.308  0.0208 -0.0521 -0.1677
24657W        W43511   1.562   3.532  13.340  0.0382 -0.1268 -0.1064
24658W        W43512  15.472   5.449  12.229  0.0227 -0.2136 -0.0913
24659W        W43513  11.145   7.499   4.150 -0.1933 -0.2131  0.4487
24660W        W43514  12.707   4.348  11.870 -0.1217  0.1957 -0.0221
24661W        W43515   4.858   3.400  13.260 -0.0915  0.2155 -0.0840
24662W        W43516  12.561   9.343  13.119  0.2716 -0.2732 -0.2577
24663W        W43517   0.870   8.810  13.243 -0.1817 -0.0653 -0.0196
24664W        W43518   6.143  12.440  10.822  0.2887 -0.0029 -0.2682
24665W        W43519   1.949   2.481  11.249  0.1158  0.2067  0.1498
24666W        W43520   2.931  14.778   0.250 -0.0382 -0.1886  0.0167
24667W        W43521   2.778   3.572   4.171  0.2158 -0.2034 -0.4564
24668W        W43522   4.570  12.105   4.255  0.0366 -0.0750  0.0782
24669W        W43523  12.452   9.859   0.558  0.1512  0.0453 -0.2103
24670W        W43524   4.426   3.438  11.641 -0.2075  0.1795 -0.0378
24671W        W43525  15.051  13.047   2.837  0.1331  0.1020  0.1561
24672W        W43526  14.365  14.364   3.348 -0.3889  0.0590 -0.1683
24673W        W43527   5.197  12.475   1.495  0.3150  0.3044 -0.0018
24674W        W43528  12.384  14.977  14.360  0.1319  0.2525 -0.1116
24675W        W43529  12.995   6.534   1.658 -0.0266 -0.2504 -0.2400
24676W        W43530  13.091   6.863  13.788  0.0430  0.0036 -0.2887
24677W        W43531  15.760  15.521   3.889  0.1923  0.0220 -0.1224
24678W        W43532  16.973   0.735   0.490 -0.2877  0.0045 -0.0660
24679W        W43533   7.135   5.924   3.550  0.1121 -0.0600  0.0462
24680W        W43534   2.378  11.731   1.602 -0.2781 -0.1298  0.1252
24681W        W43535  18.109  16.495   5.119 -0.1093 -0.1060  0.0260
24682W        W43536   8.758   2.091  12.196  0.1484 -0.0530  0.1336
24683W        W43537  15.762   3.625  13.824  0.2544 -0.0943  0.1866
24684W        W43538  17.004  16.481   0.112 -0.1311 -0.1313  0.1183
24685W        W43539   9.240   0.036   0.499 -0.0833 -0.0780  0.0406
24686W        W43540  16.470  12.769   0.108 -0.0584 -0.0102  0.1946
24687W        W43541  16.613   7.618  12.083 -0.1748  0.2035 -0.3828
24688W        W43542   8.554  11.852  12.881  0.0934  0.0879  0.1879
24689W        W43543   8.321  16.449  13.537 -0.2085  0.0307 -0.3833
24690W        W43544   0.929   6.237   2.031  0.1066 -0.1195  0.2277
24691W        W43545   9.541   1.770  14.346  0.0171  0.0884 -0.0383
24692W        W43546  12.864  17.213  14.869 -0.1591 -0.0026  0.0264
24693W        W43547   8.307   7.774  13.339  0.0064  0.1154  0.1374
24694W        W43548   9.732   8.059   3.861 -0.1126  0.0456 -0.0216
24695W        W43549   5.307   4.379   1.153  0.2818  0.1429  0.0435
24696W        W43550   5.400   7.111   1.821 -0.0245  0.2546  0.0233
24697W        W43551   1.605  11.750  15.039  0.1606  0.2261  0.2400
24698W        W43552  10.035  15.067   0.619  0.1700 -0.4503  0.0703
24699W        W43553  16.267   2.137  15.098 -0.0327 -0.0729  0.3878
24700W        W43554   3.594   0.785   3.759  0.0655 -0.1689  0.1385
24701W        W43555  11.589  15.737   3.496  0.0925  0.0820 -0.1789
24702W        W43556  15.997  11.257  13.753 -0.0803 -0.0363 -0.0030
24703W        W43557   4.742  16.991  12.113 -0.0970 -0.0738  0.1764
24704W        W43558   6.109  13.326   3.941 -0.0400 -0.0090 -0.3656
24705W        W43559  13.365  12.473   0.923  0.1947  0.0266  0.1288
24706W        W43560  10.629  12.014   1.390 -0.0119 -0.1098 -0.0998
24707W        W43561   5.247   9.611   2.319  0.3013  0.0110 -0.0203
24708W        W43562  10.376  17.204  11.829  0.2207 -0.0398 -0.0082
24709W        W43563   0.984   2.445   3.304 -0.0323  0.1524 -0.1206
24710W        W43564  15.941   5.924   2.520 -0.1570 -0.0844 -0.2792
24711W        W43565  16.067   9.233   3.882  0.0794 -0.0318  0.3111
24712W        W43566  16.701   4.779  15.046  0.1882 -0.0229 -0.0822
24713W        W43567  15.160  11.397   0.172  0.0572 -0.0146  0.0248
24714W        W43568   1.064   3.830   2.271  0.1237  0.0596 -0.0191
24715W        W43569   5.262   4.785   3.262  0.2778 -0.0201 -0.1044
24716W        W43570  12.549   9.755  14.957 -0.0364  0.0987 -0.2197
24717W        W43571  11.130   3.965  13.297  0.0562  0.0448  0.2770
24718W        W43572   3.242   3.371   4.090  0.0842  0.0111  0.0302
24719W        W43573  18.526   7.649   0.783  0.3850  0.1487 -0.1233
24720W        W43574   7.602  14.413   3.986 -0.1064 -0.2160  0.0457
24721W        W43575  17.853  16.273   4.228  0.0599 -0.0384  0.3911
24722W        W43576   4.303   0.171  14.965  0.1189  0.3668 -0.0303
24723W        W43577   4.162  11.040  13.755 -0.3430 -0.0715 -0.2888
24724W        W43578   7.912   9.130  14.010  0.0349 -0.1937 -0.0000
24725W        W43579  10.259   1.041   1.948  0.1150  0.0147 -0.0860
24726W        W43580   8.998   8.280   0.449 -0.0759  0.0440 -0.0237
24727W        W43581  11.993   0.887   4.271  0.1267 -0.0911  0.2522
24728W        W43582   2.451   8.149   2.621  0.2744 -0.0743  0.3145
24729W        W43583  17.064  12.721  15.420  0.2583 -0.1551 -0.1742
24730W        W43584   5.580   4.580   2.960 -0.2071 -0.0507  0.0061
24731W        W43585  13.881   7.834   3.404  0.0269  0.3716 -0.3716
24732W        W43586  12.987  12.885   0.875 -0.0480 -0.2076  0.0187
24733W        W43587   9.458   5.150  11.325  0.0749 -0.0486 -0.1052
24734W        W43588   0.779  11.393   2.434  0.0208 -0.0043  0.0401
24735W        W43589   3.300   1.081   2.321  0.0020  0.0768  0.1915
24736W        W43590   9.168  11.885   2.721 -0.1354  0.1477 -0.2062
24737W        W43591  15.541   5.788  11.846  0.0940  0.5557  0.2636
24738W        W43592   6.567  13.317  14.799  0.1262  0.2900 -0.2786
24739W        W43593  11.010  16.931  11.094 -0.1055 -0.1034  0.0581
24740W        W43594  17.412   3.023  12.266 -0.0305  0.1154  0.0732
24741W        W43595   8.704   7.151  11.954 -0.1298 -0.0952  0.2364
24742W        W43596   2.182   2.405   3.195 -0.1346 -0.0678  0.1793
24743W        W43597  10.135   0.686   3.773  0.0529  0.1314  0.0029
24744W        W43598  13.383   1.595  13.947  0.0674 -0.1561 -0.0442
24745W        W43599  17.340   1.408  15.438  0.1929  0.2215  0.1748
24746W        W43600   5.989  17.970   4.751 -0.1114 -0.0893 -0.0044
24747W        W43601  12.938   3.563   3.663  0.1610  0.0536  0.2045
24748W        W43602  11.988   7.337  13.068  0.1650  0.4156  0.1052
24749W        W43603  15.200  10.492  14.148 -0.1146 -0.0139 -0.2245
24750W        W43604  16.833   1.504  10.926  0.1830 -0.1947  0.2243
24751W        W43605   6.902  11.187  10.672  0.0836  0.1466  0.2517
24752W        W43606   8.157  15.722  13.418  0.2219  0.1019  0.0293
24753W        W43607  12.477  11.386  15.200 -0.2262 -0.2624 -0.1805
24754W        W43608   1.189  10.584  13.622  0.3064  0.0316  0.3084
24755W        W43609  14.941   3.276   2.928  0.4243 -0.3491 -0.0950
24756W        W43610   8.657  18.448   0.684 -0.3326 -0.0363  0.1297
24757W        W43611  13.595   7.323   4.229 -0.0686 -0.3284  0.0491
24758W        W43612   2.363  15.556   0.047 -0.2121  0.1036  0.2285
24759W        W43613  17.047  18.137  14.504 -0.2879  0.0729 -0.0516
24760W        W43614  13.220  12.958   1.706  0.1158  0.0289  0.0777
24761W        W43615  11.418   1.231   1.546 -0.0796  0.0285  0.1813
24762W        W43616   8.901   1.827  11.634 -0.1718 -0.1582  0.2197
24763W        W43617   9.679   0.698  10.013 -0.0504 -0.2726 -0.2082
24764W        W43618  12.823   5.788   3.588 -0.0630 -0.0187  0.3847
24765W        W43619  15.011  11.343  13.625  0.0096 -0.1534  0.1395
24766W        W43620  17.961   2.675  12.435 -0.3668 -0.1828  0.2080
24767W        W43621   3.782  17.521   3.515 -0.0496 -0.2766 -0.0951
24768W        W43622   0.900  16.892  10.921 -0.1146  0.0926 -0.3516
24769W        W43623  17.327   6.647   1.750  0.2289 -0.2002 -0.2072
24770W        W43624   1.967   1.792  13.668  0.3353  0.1166 -0.1730
24771W        W43625   3.281  18.113   3.942  0.1621 -0.1971 -0.2729
24772W        W43626   6.673   7.879  13.250  0.2196 -0.0633  0.1281
24773W        W43627  13.185   7.226  13.518 -0.0325 -0.1487  0.2970
24774W        W43628   8.813  14.922  14.934  0.1781  0.0897 -0.0492
24775W        W43629  14.363  16.619  11.039  0.2166  0.1082  0.0359
24776W        W43630   2.417   0.778  14.377  0.2866  0.2438 -0.0501
24777W        W43631   8.667   3.440   0.266 -0.0924  0.2393  0.1955
24778W        W43632   4.460  14.579  14.461 -0.1003  0.1955 -0.0895
24779W        W43633  15.191   0.675  13.513  0.0960  0.1213 -0.0583
24780W        W43634   2.620   0.896   5.450 -0.1984 -0.0994  0.2822
24781W        W43635  13.317  11.817  14.913 -0.0981  0.0811 -0.1493
24782W        W43636  10.916  10.992   0.425 -0.1622  0.1455 -0.0372
24783W        W43637   4.148   6.467  12.351  0.0218 -0.6228 -0.0143
24784W        W43638  17.136   7.520  12.357 -0.1953  0.0542  0.2690
24785W        W43639  15.380   1.354   4.384  0.1793 -0.0157 -0.1408
24786W        W43640  16.282   9.985  15.272  0.1690  0.1260  0.1021
24787W        W43641  16.098   8.751  11.330  0.0362  0.1152  0.2352
24788W        W43642  15.680  12.879  14.312 -0.1996  0.0311 -0.3499
24789W        W43643  10.961   9.739   1.160 -0.1724  0.1209 -0.2072
24790W        W43644  16.001  11.452  12.285 -0.0068  0.2366 -0.0319
24791W        W43645   2.058  14.737  12.377 -0.1328 -0.0533  0.2189
24792W        W43646  11.692  18.295  12.110  0.1664  0.2875  0.2762
24793W        W43647   1.056   0.659  13.438 -0.0999  0.0204 -0.1911
24794W        W43648  13.264  13.575  12.261 -0.1044  0.1151  0.2988
24795W        W43649   2.455   0.189   0.638 -0.1738  0.1899  0.1269
24796W        W43650  17.268  16.085   0.330  0.2081  0.1503 -0.1314
24797W        W43651  17.145   1.550  11.914  0.3099  0.2621 -0.0976
24798W        W43652   8.970  17.749  14.777 -0.1646  0.1549  0.0189
24799W        W43653   9.318  14.528   0.189 -0.2746 -0.3511 -0.0180
24800W        W43654  15.938   8.938  13.675 -0.2641  0.1439 -0.1299
24801W        W43655   9.056  10.353   1.567 -0.2084 -0.1404 -0.2339
24802W        W43656   4.850   0.755  14.241 -0.1649  0.0780  0.0385
24803W        W43657  18.159   9.580  15.254 -0.2223 -0.3572  0.2315
24804W        W43658   5.779   1.313  12.537  0.2312 -0.1906 -0.0133
24805W        W43659  14.305  17.316  11.276 -0.0873  0.0565 -0.0325
24806W        W43660   7.672   1.896  15.009  0.0326 -0.0612  0.0917
24807W        W43661  10.248   4.863  15.419 -0.2393  0.0391  0.1678
24808W        W43662  14.716  13.530  11.424  0.0229  0.2920 -0.1802
24809W        W43663  17.709  16.674  11.623  0.3230  0.0796  0.2489
24810W        W43664   5.269  11.515   4.286  0.1796 -0.1428 -0.1450
24811W        W43665  16.719   6.325   2.643  0.1552 -0.0032  0.0370
24812W        W43666  18.001   4.560  10.969  0.1380  0.3308  0.3487
24813W        W43667  13.069  15.612   3.285 -0.0831  0.1795  0.1635
24814W        W43668   5.510   1.080   1.251 -0.0157  0.0072 -0.4315
24815W        W43669  14.566  16.688   0.650 -0.1730  0.0994  0.3051
24816W        W43670   4.339   3.678  15.186  0.1422  0.2022 -0.1413
24817W        W43671  12.931  12.898  11.792  0.3898  0.3134  0.1077
24818W        W43672   6.655   8.598  11.698 -0.1121  0.3221 -0.0667
24819W        W43673   1.551  15.083   1.235 -0.0407  0.0339 -0.3357
24820W        W43674  11.962  13.668   2.286  0.0104 -0.0621 -0.2351
24821W        W43675   5.958  18.442  13.687 -0.2695  0.0628  0.0783
24822W        W43676  14.701   9.653   0.279  0.2891 -0.0549  0.1513
24823W        W43677   7.472   3.474   1.220 -0.4026 -0.1051  0.2105
24824W        W43678  13.132   5.722   2.110 -0.1279  0.0025  0.5149
24825W        W43679   0.678  14.133   3.077 -0.0044  0.0522 -0.0911
24826W        W43680   8.350   6.254   0.394  0.0966  0.2270 -0.0227
24827W        W43681  10.437   2.249  13.414 -0.0412 -0.1980 -0.0747
24828W        W43682  18.134  10.325  12.080  0.4077  0.0731  0.0701
24829W        W43683   0.389   9.583  13.565 -0.0176  0.1074  0.0898
24830W        W43684  14.857  12.631  13.728 -0.0447 -0.1644 -0.3105
24831W        W43685  18.434   2.622  12.228 -0.0658 -0.1252  0.1264
24832W        W43686   1.260  12.356   9.723  0.1873 -0.0097 -0.0802
24833W        W43687   6.243  17.728   2.208  0.1264 -0.0096 -0.1901
24834W        W43688  18.252  15.918   1.551 -0.2088  0.1875 -0.1247
24835W        W43689   9.869  16.030  10.132  0.0652  0.0188 -0.2230
24836W        W43690  16.525   7.399   9.968 -0.2031  0.0922  0.1526
24837W        W43691   5.021   9.306   2.688  0.1843  0.0049 -0.0276
24838W        W43692   9.386   6.331   2.402  0.0172  0.1438 -0.2418
24839W        W43693  10.468   0.499   4.079  0.0774 -0.0410 -0.0568
24840W        W43694   3.477  17.443  12.899  0.1582 -0.1603  0.3752
24841W        W43695   9.425  14.550   4.347  0.2137 -0.1455  0.0595
24842W        W43696  17.995  13.265   4.284 -0.2245 -0.2316  0.1342
24843W        W43697   4.816   1.265  13.288 -0.2180  0.0087  0.0932
24844W        W43698  13.723   2.734  11.932 -0.0730 -0.1350 -0.0718
24845W        W43699   4.747   9.590  10.968  0.0466  0.1873  0.0844
24846W        W43700   4.501   6.386   3.211 -0.0478 -0.1160 -0.0994
24847W        W43701  18.215  16.703  10.226 -0.0864  0.0254  0.3680
24848W        W43702   4.642  11.030  12.316 -0.0462  0.0426 -0.1496
24849W        W43703  11.877   2.707   3.146  0.1309 -0.0249 -0.2640
24850W        W43704  12.800  17.284   0.223 -0.0772 -0.0923  0.3194
24851W        W43705  16.474  16.493  11.482  0.0316  0.0795 -0.0749
24852W        W43706   2.313   1.870  14.307  0.0136 -0.0979 -0.0283
24853W        W43707  12.021   4.119  13.946  0.3666 -0.2040 -0.1676
24854W        W43708  12.441   4.278   4.063  0.1581 -0.1519  0.0128
24855W        W43709   4.357   9.248  15.345  0.2776  0.2378 -0.1413
24856W        W43710  10.405   1.681  14.830  0.1589 -0.1588 -0.0316
24857W        W43711   3.495   1.579   0.851 -0.1268 -0.4556 -0.2724
24858W        W43712   8.489  14.442  11.804  0.1980  0.1099 -0.2108
24859W        W43713  11.431   3.601  13.046  0.1149  0.1686 -0.1777
24860W        W43714   3.490  14.590   2.808  0.3486 -0.2216 -0.2041
24861W        W43715   6.335  15.724  11.750  0.2569  0.0501 -0.3021
24862W        W43716  13.896  18.128  13.623  0.1333 -0.0355  0.1811
24863W        W43717  14.800  14.332   3.105  0.0412  0.1200 -0.1241
24864W        W43718   1.493   1.004  11.129 -0.1643 -0.1378 -0.1500
24865W        W43719   2.009  10.893  14.586 -0.3652 -0.1176  0.1566
24866W        W43720   6.678  10.471  13.656 -0.0355 -0.2604  0.2626
24867W        W43721  10.411   0.889   3.237  0.3098 -0.1881 -0.0357
24868W        W43722   0.389  13.508  13.253 -0.0949  0.3672  0.1444
24869W        W43723  15.912  12.836   2.938  0.0532 -0.0133 -0.0250
24870W        W43724   8.434  13.901  12.636 -0.1548  0.0740  0.2965
24871W        W43725  12.079  14.761  14.702  0.0135  0.1296 -0.1516
24872W        W43726  18.299   6.590  12.744 -0.0622  0.0550  0.3151
24873W        W43727   1.133  15.859   0.357 -0.1080 -0.3292 -0.0952
24874W        W43728   4.422  11.530   4.259  0.0943 -0.0559  0.4101
24875W        W43729   4.003   7.547   1.127 -0.1129 -0.0743 -0.2763
24876W        W43730  12.942  11.657   4.784  0.2834  0.0940  0.2360
24877W        W43731   7.240  12.803   2.813  0.1715  0.2254  0.0882
24878W        W43732  15.677  17.532   4.046 -0.0672  0.0980  0.0164
24879W        W43733   0.852  12.823  11.128  0.2787 -0.2329 -0.0396
24880W        W43734   2.303  14.360   1.379 -0.0475 -0.0386  0.1037
24881W        W43735   9.847   1.879  10.487  0.4123  0.2535  0.3183
24882W        W43736   1.148   3.551  11.155 -0.0369  0.1316  0.0724
24883W        W43737   2.392  17.533   0.892  0.2000  0.2053 -0.0313
24884W        W43738  17.917   1.488  10.130  0.0621  0.0215  0.0580
24885W        W43739   5.008  13.524  14.668  0.0818 -0.0583 -0.4524
24886W        W43740   8.745  14.744   0.635 -0.1852  0.0330  0.0344
24887W        W43741  18.246   0.277  12.384  0.0897 -0.1298 -0.0200
24888W        W43742  12.137   1.891  10.416  0.0831 -0.0153 -0.2967
24889W        W43743  10.379  17.160  14.008  0.1339  0.1442 -0.2468
24890W        W43744  11.931   5.115   4.465 -0.1149  0.1067 -0.2394
24891W        W43745  10.410   7.402  12.296 -0.0895  0.0911 -0.3838
24892W        W43746   7.567   1.827   4.040  0.2600  0.2539  0.0811
24893W        W43747  10.316   3.966   2.933 -0.0898  0.1621 -0.0137
24894W        W43748  17.288  14.862  15.150 -0.1217  0.3442  0.0994
24895W        W43749   2.764   4.120   4.338  0.1047  0.5634  0.0230
24896W        W43750   6.707  14.059   4.141  0.3314 -0.2521 -0.3642
24897W        W43751  11.819   3.217   1.080  0.0728  0.2600  0.1234
24898W        W43752  10.295  16.646  12.652 -0.0914  0.2566 -0.2899
24899W        W43753  15.470  16.057  15.114  0.0064 -0.0331 -0.0904
24900W        W43754  10.663  12.314   2.222  0.0220  0.0220 -0.0773
24901W        W43755  17.978  10.945   4.491  0.2490  0.4176  0.0851
24902W        W43756   8.287   7.025   3.949  0.2651 -0.0265  0.0942
24903W        W43757   1.497   1.044   1.086 -0.0858 -0.0422 -0.1089
24904W        W43758  13.950  10.767  10.999 -0.5025 -0.1934  0.0604
24905W        W43759  10.769   4.924   1.506  0.1569  0.1278 -0.2816
24906W        W43760   0.773   8.636  12.181 -0.1411  0.1303  0.0533
24907W        W43761   4.889  18.339   3.320  0.0589  0.3344  0.1265
24908W        W43762  10.709  18.180  11.874 -0.2926  0.1240 -0.0898
24909W        W43763  17.133   0.757  12.830 -0.1065  0.4578 -0.1617
24910W        W43764  11.086   1.748   3.630 -0.1465  0.0214  0.0559
24911W        W43765  13.627   5.217   4.557 -0.2238  0.0900 -0.1383
24912W        W43766   2.360   5.033  11.797  0.0710  0.0161  0.1140
24913W        W43767  12.646  11.214  14.380  0.0967  0.2072 -0.0889
24914W        W43768   1.853  12.997   1.359 -0.0230 -0.2194 -0.0186
24915W        W43769  12.307  15.998   1.770  0.1676  0.1998 -0.0485
24916W        W43770   5.106  16.979   0.360  0.0623  0.1007  0.3229
24917W        W43771   7.458  12.725  12.555 -0.0547 -0.2753  0.0137
24918W        W43772  13.915   8.344  13.896  0.2982 -0.1716 -0.0855
24919W        W43773   7.055   1.628  13.353  0.0074  0.0474  0.0889
24920W        W43774   0.805  18.162   2.753  0.0031 -0.0815  0.0887
24921W        W43775   1.878  16.511   9.762 -0.3835  0.1828 -0.1146
24922W        W43776   0.921   5.111  15.388  0.0529 -0.3096 -0.2080
24923W        W43777  11.296  13.432   1.159  0.2293  0.2731  0.0482
24924W        W43778  17.800   6.174   5.156  0.2123  0.0094  0.2314
24925W        W43779   7.925  14.150  11.142 -0.1375  0.2221  0.2624
24926W        W43780  13.579  17.560   4.807  0.2159 -0.2633 -0.0846
24927W        W43781   1.308  13.620   2.943 -0.3294  0.1001 -0.2837
24928W        W43782  15.102   6.124   0.578  0.2370  0.0850  0.0522
24929W        W43783   0.683   4.604  13.280 -0.0009  0.3387  0.2285
24930W        W43784  18.180  16.979   0.581 -0.1151 -0.2126  0.1021
24931W        W43785   0.018   2.704  14.680  0.3171  0.1489 -0.0545
24932W        W43786  17.401  11.084   1.687  0.1222  0.2506 -0.3493
24933W        W43787  15.431  10.492  11.417  0.0330 -0.0873 -0.1351
24934W        W43788   9.589  16.722  14.226  0.3635 -0.1129 -0.2022
24935W        W43789   2.097   5.719   4.314  0.0760  0.2472  0.1148
24936W        W43790   2.955   5.091  12.735  0.0086  0.1051  0.1174
24937W        W43791   6.688   1.211   0.889  0.1158 -0.1342  0.2635
24938W        W43792   5.191  10.944  13.649  0.1468  0.0606 -0.2129
24939W        W43793   9.307  18.494   3.561 -0.0658 -0.1603 -0.3462
24940W        W43794  16.921   1.204   0.228 -0.0468 -0.1151 -0.2250
24941W        W43795  11.324  17.503   2.034  0.2561  0.3978 -0.1885
24942W        W43796   2.224  16.118  15.318  0.2233  0.3905  0.0665
24943W        W43797  13.300   4.355  13.852 -0.0403  0.0130  0.0347
24944W        W43798  14.126   9.281  12.236 -0.1441 -0.5146  0.3344
24945W        W43799   1.454   7.613   4.231  0.0487 -0.3186  0.2981
24946W        W43800   8.244  11.411   4.672 -0.2412 -0.0662  0.0572
24947W        W43801   0.312   8.726  12.531 -0.0719 -0.0677  0.0927
24948W        W43802  14.280  11.915   3.008 -0.0075 -0.0606  0.0308
24949W        W43803  15.859   8.781  14.554  0.1159 -0.0797  0.2755
24950W        W43804   9.919  12.765  11.175  0.0123  0.2210 -0.0465
24951W        W43805  12.801  10.083   0.235 -0.3794  0.0836  0.2035
24952W        W43806   3.444  11.687   1.572  0.3824 -0.0298  0.1077
24953W        W43807   2.395   2.203   4.404  0.0698  0.0228 -0.1894
24954W        W43808   2.798  13.108  11.429 -0.0804 -0.3989  0.0687
24955W        W43809   3.423  12.390   2.969  0.2393  0.0882  0.0669
24956W        W43810  11.428  13.107  10.165 -0.0519  0.1071 -0.0749
24957W        W43811   9.000  11.535   2.417 -0.2625 -0.1460 -0.0743
24958W        W43812  15.489   6.363  14.755  0.1535 -0.3036 -0.1295
24959W        W43813  14.550   9.317   3.274 -0.2266  0.1014 -0.2731
24960W        W43814   3.318  16.696  12.685 -0.2135 -0.1179  0.1413
24961W        W43815  16.776   0.003  12.712  0.0039 -0.0503 -0.0254
24962W        W43816  10.383  13.454  13.465  0.0486 -0.2345 -0.0176
24963W        W43817  15.753  13.610   2.887 -0.1891  0.2316  0.0768
24964W        W43818   4.333  11.042  14.732  0.0202 -0.0781 -0.1590
24965W        W43819   1.197  12.815  15.437 -0.3517 -0.0551  0.1041
24966W        W43820   9.040  15.754   2.600  0.0631  0.2008  0.0286
24967W        W43821   3.401   4.291  13.082  0.0511  0.1973 -0.2170
24968W        W43822   6.731  16.776   3.996  0.0348 -0.3452 -0.1672
24969W        W43823  12.915  10.304   2.232 -0.1543 -0.1218  0.1611
24970W        W43824  12.481   9.283   4.139  0.0430  0.0772  0.0397
24971W        W43825   0.910  13.700   4.181  0.1599  0.0467 -0.1333
24972W        W43826   0.848   0.170  13.296  0.1559  0.0766 -0.4248
24973W        W43827   2.740   1.732  11.446  0.0735  0.2475  0.0856
24974W        W43828  16.968  12.452  13.165  0.0070  0.1581 -0.1009
24975W        W43829  14.871  11.276   2.780 -0.2323  0.1215 -0.1788
24976W        W43830   9.272  15.100  11.157  0.0586  0.1165 -0.0735
24977W        W43831   9.233   7.164  13.509  0.3796 -0.4961 -0.1194
24978W        W43832   3.295  17.717  13.882 -0.1755 -0.1025 -0.1565
24979W        W43833   2.592   6.177  14.661  0.0860 -0.1722  0.0707
24980W        W43834  10.803   3.551  14.109 -0.1386  0.2526  0.1625
24981W        W43835   1.720  13.151  12.005 -0.3114 -0.0115 -0.1771
24982W        W43836   9.976   5.126   0.943 -0.0995 -0.0950  0.0696
24983W        W43837  11.502   3.463   0.522 -0.0243 -0.0243  0.0648
24984W        W43838  14.651  15.854   4.569 -0.4792  0.2147 -0.1220
24985W        W43839  11.791  12.274   3.979 -0.0978 -0.0886 -0.1200
24986W        W43840  15.246  13.524  10.765 -0.1831 -0.2154 -0.1291
24987W        W43841  12.460   4.853  13.618 -0.1206 -0.0298  0.0254
24988W        W43842   2.240   9.630  12.080  0.0399  0.2044 -0.3522
24989W        W43843  17.591  15.342   5.292  0.0401  0.0697  0.0462
24990W        W43844  13.632  13.253  13.173  0.2290 -0.2011 -0.2186
24991W        W43845  17.858   9.332  10.947 -0.1633  0.0584  0.5469
24992W        W43846   1.697   9.893   4.042 -0.0178 -0.3243  0.2581
24993W        W43847   6.663  14.739   3.274 -0.0828  0.2443 -0.2096
24994W        W43848  11.089   7.066  13.474 -0.0375  0.2731  0.1110
24995W        W43849   2.588   0.325  12.343 -0.0999 -0.2734  0.3111
24996W        W43850   5.627   9.041   0.136 -0.0443 -0.0444  0.1098
24997W        W43851   4.000   3.054   0.218 -0.4067  0.2320  0.0161
24998W        W43852   0.906  14.061  12.718  0.0233 -0.1199 -0.2698
24999W        W43853  14.567   7.073   2.081  0.0355 -0.0707  0.0334
25000W        W43854   9.033   5.239  14.981  0.1110  0.1492  0.1406
25001W        W43855   5.966  12.212  10.330 -0.1038 -0.0157 -0.5127
25002W        W43856   5.879  13.744   0.127 -0.0554  0.2480  0.3016
25003W        W43857  14.053   5.619   2.327  0.4997  0.0156 -0.1673
25004W        W43858   7.034   9.683  13.152 -0.2749  0.1996  0.0740
25005W        W43859   9.176  11.418  11.593  0.0293 -0.0743  0.0436
25006W        W43860  16.896   1.398   1.662 -0.0227  0.0113 -0.0871
25007W        W43861   0.199   9.560   3.045  0.0180  0.1870  0.2219
25008W        W43862   0.557  17.936  14.822  0.2433  0.3099  0.1067
25009W        W43863   3.426  15.594   0.190 -0.0265  0.1296 -0.1731
25010W        W43864  18.502  12.130  15.367 -0.1603  0.0300  0.0726
25011W        W43865   8.658   5.727  12.560  0.2063  0.3196 -0.0197
25012W        W43866  12.897  13.837   4.588 -0.0119  0.2645 -0.1827
25013W        W43867   4.766   6.148   2.855 -0.1279 -0.0470 -0.0841
25014W        W43868  10.187  12.229   2.840  0.0749 -0.0751  0.2210
25015W        W43869  12.070  14.061   1.398 -0.0078  0.0696  0.1612
25016W        W43870  17.326   3.600  14.723 -0.0924 -0.1352  0.0939
25017W        W43871  18.316   6.946   1.311  0.0330 -0.2140  0.1624
25018W        W43872  13.021  12.962   3.459  0.1624  0.0236  0.1541
25019W        W43873   7.053  11.411   3.221 -0.0629  0.0799 -0.2248
25020W        W43874  17.811  11.827  14.148 -0.2745 -0.0827  0.1804
25021W        W43875   3.479  18.001   3.440 -0.0203  0.0506 -0.1311
25022W        W43876   0.811  11.345   1.329  0.2265 -0.1026  0.2482
25023W        W43877   5.644  15.325  13.451 -0.0403 -0.2560  0.1825
25024W        W43878  10.284   8.157  14.695  0.0685  0.0104  0.1618
25025W        W43879  13.397  17.892   5.504  0.2281 -0.4735 -0.0714
25026W        W43880  11.268   6.097  12.107 -0.1900 -0.1221  0.2459
25027W        W43881   6.262   5.396   1.076  0.1831  0.1374 -0.2550
25028W        W43882  15.097  18.303  12.154 -0.1258  0.1113  0.2642
25029W        W43883  17.311   7.817  10.188 -0.0033  0.1622  0.0938
25030W        W43884  14.256   3.990   4.999 -0.3951  0.1219  0.1472
25031W        W43885   8.485  16.843   1.399 -0.0382  0.2387 -0.3990
25032W        W43886   2.004  18.153   2.061 -0.0928  0.0748 -0.2457
25033W        W43887  12.587   3.834  11.980 -0.0453 -0.1169 -0.0361
25034W        W43888  15.256  12.957   3.859  0.3685 -0.2744  0.1035
25035W        W43889  11.395   2.568   3.327  0.2780  0.1931 -0.1261
25036W        W43890  14.314  13.887   2.600  0.1614 -0.2693 -0.0798
25037W        W43891   7.295  18.318  11.781  0.2811 -0.0187  0.2110
25038W        W43892   8.352   0.743   3.891 -0.3215  0.1864  0.3024
25039W        W43893  14.542  11.341  13.308  0.1854 -0.5910  0.3345
25040W        W43894   2.664  12.855  13.772  0.0983 -0.0100 -0.1467
25041W        W43895   9.672   7.300   0.630  0.1946  0.1576  0.1694
25042W        W43896  13.651   3.158   0.019  0.0784  0.1967  0.1915
25043W        W43897   0.399   8.385  11.919  0.1654  0.0253  0.1088
25044W        W43898  10.107   8.932   0.221 -0.1081  0.0046  0.0148
25045W        W43899   8.443  10.062  13.077  0.1259 -0.2898  0.1758
25046W        W43900   0.572   7.579  14.154  0.1725 -0.2316  0.1571
25047W        W43901  15.179   2.801   0.851  0.1695  0.3218 -0.0876
25048W        W43902   3.286  10.821   1.174 -0.2585 -0.2913  0.0449
25049W        W43903  12.413  12.961  11.014 -0.0288 -0.1708  0.3462
25050W        W43904   4.467   7.437  11.305 -0.3093  0.4176  0.1318
25051W        W43905  17.339   1.716  14.036  0.0486 -0.1568 -0.0625
25052W        W43906  15.824   4.332   0.681  0.0045 -0.2018 -0.0745
25053W        W43907   6.726  14.516   4.414  0.0526 -0.2096 -0.0940
25054W        W43908   0.732   7.270  12.457 -0.0005  0.0659  0.1486
25055W        W43909   2.093   8.555  12.139 -0.1097  0.0952  0.2669
25056W        W43910   3.630   8.073  14.859 -0.2568  0.1211  0.0859
25057W        W43911   6.625   4.969  11.784 -0.0699 -0.0992 -0.0301
25058W        W43912   7.808   2.762   4.673 -0.3883  0.0983 -0.0815
25059W        W43913   0.191  11.828  12.722  0.0769  0.2381  0.2812
25060W        W43914   3.619   5.945   3.495 -0.0293  0.0581  0.0225
25061W        W43915  12.787  16.495   2.254  0.0562 -0.4563  0.1888
25062W        W43916   4.210   3.645   2.726 -0.1706 -0.0579 -0.3858
25063W        W43917  13.444   9.337  13.262  0.0792  0.4851  0.0508
25064W        W43918   7.005  10.324  13.199  0.0619  0.0202  0.0212
25065W        W43919   8.823   7.427   0.389  0.1026  0.0220 -0.0718
25066W        W43920   6.804  10.121   3.822  0.1915 -0.2866 -0.3196
25067W        W43921  11.813  17.058  14.302 -0.1182  0.2498  0.3349
25068W        W43922   6.441   7.781  11.796  0.1520  0.2331 -0.1615
25069W        W43923  16.674  10.630   1.374 -0.0338 -0.1150  0.2083
25070W        W43924   3.591  16.798  13.534  0.3161  0.0654  0.4624
25071W        W43925  10.277  12.343  11.199  0.0568  0.1842 -0.0450
25072W        W43926  17.962   5.165  14.573  0.0444  0.0412 -0.0460
25073W        W43927   7.387   5.390  14.127 -0.1741  0.0383  0.0309
25074W        W43928  13.453  14.018   2.328 -0.2025 -0.0827 -0.4141
25075W        W43929  14.643   9.423  12.023  0.1222  0.1165  0.0699
25076W        W43930   3.828   5.197   1.665 -0.1614  0.1759  0.0407
25077W        W43931  10.527   3.881   0.350  0.4086  0.0892 -0.1374
25078W        W43932   2.428  12.886  15.044 -0.1440  0.3261 -0.0926
25079W        W43933   4.977   5.747  11.330 -0.1983 -0.1263 -0.0564
25080W        W43934  17.357  11.720   0.104 -0.2194  0.3242 -0.2043
25081W        W43935  11.270   4.285  14.226 -0.0447 -0.0353  0.0137
25082W        W43936   8.855  13.475  12.556 -0.0439 -0.2007 -0.0178
25083W        W43937   4.652   6.147  10.090  0.1709 -0.1558 -0.0674
25084W        W43938  18.518   7.923   2.306 -0.0591  0.1481  0.2765
25085W        W43939  14.712   1.835  11.213  0.1277 -0.0054 -0.1459
25086W        W43940   9.625   0.058   4.277 -0.0539  0.1175 -0.2140
25087W        W43941   4.540   5.661  13.826 -0.2254  0.1621 -0.1053
25088W        W43942  16.400   4.010   0.284 -0.1899 -0.1732  0.1236
25089W        W43943   7.067   5.667  15.326  0.0717 -0.0213  0.2663
25090W        W43944  15.312   9.639   4.432  0.0117 -0.1776 -0.1990
25091W        W43945  11.124   6.497  11.663  0.0898 -0.1518 -0.1819
25092W        W43946   7.173  15.110  10.103 -0.0194  0.2590  0.1393
25093W        W43947   4.206  10.907  12.854  0.0163  0.0008 -0.0796
25094W        W43948  18.344   4.119   3.593 -0.1827 -0.0643  0.0865
25095W        W43949  12.270   8.478  12.940  0.0849  0.1523 -0.2363
25096W        W43950   0.402   3.088  14.283  0.3493 -0.3367 -0.4764
25097W        W43951   1.403  14.164  12.881 -0.1013  0.4933 -0.0059
25098W        W43952  17.965   9.419   2.485 -0.0736 -0.4226  0.1612
25099W        W43953  12.877  17.980  13.687 -0.1164 -0.0314  0.2685
25100W        W43954   1.346   3.399   0.323 -0.0361 -0.3140  0.1665
25101W        W43955   5.941   4.468   4.159  0.2837 -0.2031  0.1450
25102W        W43956   5.186  18.472  15.344 -0.1875 -0.1064 -0.2026
25103W        W43957  12.185  15.531  15.243 -0.0049  0.0007 -0.0460
25104W        W43958  14.405  12.306   4.008 -0.1330 -0.2262  0.0125
25105W        W43959  16.324  15.510   3.991  0.1320 -0.1497  0.0912
25106W        W43960  12.320   5.701  13.305  0.0003  0.3306 -0.0575
25107W        W43961   4.704  12.095  15.358 -0.2720 -0.1635 -0.1714
25108W        W43962   5.228  12.596  10.763  0.1477  0.0104  0.0534
25109W        W43963  11.432   5.105   1.953 -0.0078 -0.2285 -0.2047
25110W        W43964  14.731   0.307  11.634 -0.0529  0.1176  0.1098
25111W        W43965  11.877  12.618  13.957  0.0043 -0.4318  0.1078
25112W        W43966   5.884  11.578   0.256 -0.2456  0.0979 -0.1214
25113W        W43967  10.427  17.678   0.231  0.0380  0.2587 -0.0450
25114W        W43968  16.297  16.074   0.668  0.0271 -0.0773  0.2464
25115W        W43969   0.590  16.691   2.016 -0.0145 -0.3518  0.1589
25116W        W43970  12.514   6.741  11.806 -0.0437 -0.1547  0.1390
25117W        W43971  17.105   4.007  12.313  0.2689  0.0148 -0.3879
25118W        W43972  13.481   1.418   3.028  0.2037 -0.0105 -0.2627
25119W        W43973   8.694   1.025  13.739  0.0471  0.0182 -0.1944
25120W        W43974   0.709   2.513   0.051 -0.4534 -0.2107 -0.1213
25121W        W43975   9.105  16.753  11.233  0.0234  0.2314  0.1316
25122W        W43976  14.626   4.028  12.764  0.1603  0.1290  0.2120
25123W        W43977  13.904   6.774  14.488  0.0295 -0.0825  0.2294
25124W        W43978  15.856  14.175  13.847  0.0446 -0.5127 -0.0333
25125W        W43979  10.246   6.721   0.237 -0.2290  0.1424  0.2507
25126W        W43980  11.489  17.233  13.403  0.0156 -0.3659 -0.1243
25127W        W43981   9.104   0.490  14.701 -0.0881 -0.0767  0.1086
25128W        W43982   2.419   8.952   3.263 -0.1535 -0.3262  0.4615
25129W        W43983  10.930   5.164  14.193 -0.1584  0.2299  0.0164
25130W        W43984  14.713  14.594  12.003 -0.0325 -0.2185  0.0309
25131W        W43985  11.322   2.046   0.321 -0.1210 -0.2635 -0.1087
25132W        W43986   5.514   7.445  12.276  0.2734  0.1187  0.0483
25133W        W43987   2.154   6.298   4.277 -0.0821  0.0350  0.0846
25134W        W43988  12.408  13.891   2.373  0.1243  0.3941  0.0123
25135W        W43989  17.373   4.543   2.919 -0.1711 -0.0906 -0.2104
25136W        W43990   0.205   1.438  13.635 -0.0706  0.1936  0.2511
25137W        W43991  10.503  14.628   4.336  0.1690 -0.0801 -0.0887
25138W        W43992   8.535  12.181  13.795  0.3026 -0.2334  0.1461
25139W        W43993  12.840   9.834  12.557  0.0538 -0.1785 -0.1909
25140W        W43994   4.979   9.674   1.056  0.0727  0.1042 -0.1129
25141W        W43995   7.368   6.459  14.032 -0.1016 -0.1312 -0.1325
25142W        W43996  15.429  11.684  10.809  0.0929 -0.1350  0.2412
25143W        W43997  12.986  11.776  13.285  0.4641 -0.1246 -0.1337
25144W        W43998  16.516   9.936   0.498 -0.0136 -0.0504 -0.0982
25145W        W43999   2.118   0.210   1.062  0.1595 -0.0125  0.1315
25146W        W44000  18.079   6.904   1.793 -0.3540 -0.0299 -0.3094
25147W        W44001   3.573   4.298   4.470 -0.0317  0.3832  0.1548
25148W        W44002  11.925  14.709   2.608  0.0890 -0.2041  0.0433
25149W        W44003   6.656  12.480   2.921  0.0348 -0.2223  0.0440
25150W        W44004   2.860  15.355   2.799  0.0454 -0.2157  0.1542
25151W        W44005  10.405  13.459  12.053 -0.0682  0.1161 -0.1511
25152W        W44006   8.913   8.209  11.515  0.1769 -0.2702 -0.2388
25153W        W44007   7.675  18.455  12.074 -0.1347 -0.0449 -0.0219
25154W        W44008   9.996   9.922   0.615  0.1402  0.0835 -0.0375
25155W        W44009   6.318   0.458   4.310 -0.0860  0.0612 -0.3110
25156W        W44010   1.309  15.498   1.118 -0.2583 -0.0374 -0.1538
25157W        W44011   1.935   0.228   5.235  0.2878 -0.0971  0.3757
25158W        W44012   9.433   8.591   2.002  0.1279  0.3953  0.1565
25159W        W44013  11.542   2.839   4.810 -0.0636  0.0892 -0.1163
25160W        W44014   4.496  15.516  11.383  0.0564  0.1246 -0.3745
25161W        W44015   3.615   1.740  14.860  0.1262  0.0428 -0.1709
25162W        W44016  15.045  14.531  12.419  0.1677 -0.1724  0.3061
25163W        W44017   3.589   9.080   3.638 -0.2105  0.2243  0.2107
25164W        W44018   5.189   8.136  12.791 -0.2547 -0.1137 -0.2505
25165W        W44019   8.149  11.007  14.489  0.0518  0.0060 -0.1715
25166W        W44020  11.871   7.168  11.339 -0.1179  0.1780 -0.3593
25167W        W44021   1.624  15.322  11.537 -0.0548 -0.0943 -0.0827
25168W        W44022  17.529   2.250  11.176  0.2232 -0.3356 -0.2258
25169W        W44023  17.904   1.643   1.290  0.0972  0.1420  0.1448
25170W        W44024  14.794   7.595   3.153 -0.1385 -0.0486 -0.0863
25171W        W44025  10.715  12.112  11.215  0.0397 -0.2781 -0.0477
25172W        W44026   7.683  10.423  14.998  0.0620  0.1800  0.1421
25173W        W44027   9.141  16.663  15.087  0.2013 -0.2112 -0.1559
25174W        W44028  10.947   1.856  14.628  0.0442  0.0227  0.1184
25175W        W44029  11.047  11.996   2.316 -0.0691 -0.0877  0.0357
25176W        W44030  10.070  17.639   1.136  0.1299  0.3245  0.3121
25177W        W44031  16.899   0.142  11.693  0.0824  0.1557  0.3533
25178W        W44032  10.439  17.162   1.777 -0.3026  0.2323  0.0448
25179W        W44033   0.650   6.336   4.414  0.2466  0.2653 -0.0664
25180W        W44034  16.979  10.822   0.454 -0.0217  0.1917 -0.1039
25181W        W44035  16.272  18.013   3.228 -0.1875  0.2535 -0.2367
25182W        W44036   7.548   0.342   2.029 -0.1209 -0.1596  0.0628
25183W        W44037  15.945  17.400   5.651  0.0643 -0.3574  0.1601
25184W        W44038   2.871   2.218   1.542 -0.3985 -0.1490 -0.0491
25185W        W44039   3.732  11.697  10.176 -0.0901 -0.1866 -0.1247
25186W        W44040   4.576  12.719   2.246  0.0934 -0.1910  0.2776
25187W        W44041  13.193  18.020   2.532  0.0750 -0.2879  0.0406
25188W        W44042   9.723   8.566   3.967  0.2361 -0.0294  0.4621
25189W        W44043   2.013   8.323   1.268 -0.0689 -0.2491  0.1707
25190W        W44044  17.220   9.200  14.255  0.1624  0.1322  0.0006
25191W        W44045  14.795  18.329   1.611 -0.1111  0.2041  0.2570
25192W        W44046   3.805  10.418   1.912  0.1553  0.2710  0.0536
25193W        W44047  10.986   1.113   1.243  0.0900 -0.0511 -0.0601
25194W        W44048   1.205  11.979  13.518  0.1850  0.1128 -0.0341
25195W        W44049   7.111   0.369   0.518  0.1265 -0.3707 -0.2124
25196W        W44050  10.931  18.255   4.456  0.0500 -0.2275  0.0544
25197W        W44051  13.960   0.913  13.222 -0.1812 -0.1022 -0.0266
25198W        W44052   7.125   2.860  15.067  0.2200  0.0069 -0.2286
25199W        W44053  14.881   1.117   4.212 -0.1237 -0.0350 -0.1073
25200W        W44054   3.837  18.401  15.005  0.0652 -0.1550  0.4091
25201W        W44055  15.747  14.078   2.715  0.0332 -0.1599  0.1575
25202W        W44056  12.965  10.997  13.832  0.1473  0.1274  0.1277
25203W        W44057  12.061  13.408   2.712 -0.2098 -0.0106 -0.0034
25204W        W44058  12.964   5.113   5.148 -0.0419 -0.1146  0.1656
25205W        W44059   4.683  14.214   4.214  0.1788  0.1114  0.0679
25206W        W44060  11.809   0.388  12.770 -0.3635 -0.1138  0.3288
25207W        W44061   7.807   4.494  14.046  0.0231 -0.1440 -0.0655
25208W        W44062   2.939   6.588  10.333 -0.0510 -0.1418 -0.0493
25209W        W44063  15.439   1.470  10.075 -0.1320  0.1069  0.0153
25210W        W44064   4.901  15.796   3.599  0.0119  0.2207 -0.2783
25211W        W44065   9.751  10.303   0.852 -0.0544  0.1203  0.2256
25212W        W44066   5.693  11.356   3.268  0.1613 -0.0821  0.2000
25213W        W44067   6.999   7.359  14.330 -0.0370  0.1367  0.2332
25214W        W44068  11.618   1.121  11.867  0.0625 -0.1306 -0.0753
25215W        W44069   3.311   6.192  14.356 -0.3831  0.0438  0.1972
25216W        W44070   6.460   8.435  12.563 -0.0997 -0.1346  0.0706
25217W        W44071   6.684  15.756  13.068  0.2378  0.2226  0.0575
25218W        W44072  13.590   4.520  10.391 -0.0820 -0.0676 -0.2155
25219W        W44073  15.491   9.757  15.397 -0.0458 -0.3208 -0.0181
25220W        W44074  13.530  15.923   2.032 -0.0436  0.1669  0.1122
25221W        W44075   6.376  15.904  12.227  0.0875 -0.1238  0.1918
25222W        W44076  17.884  18.498  12.093  0.0181 -0.0436  0.0104
25223W        W44077   9.201   0.166  13.504 -0.0901 -0.1022  0.0924
25224W        W44078   4.075  16.033  14.925  0.2683 -0.3610  0.2717
25225W        W44079   9.173  16.039   0.415 -0.0066  0.0035 -0.1902
25226W        W44080   5.666   1.707  12.896  0.2734  0.1586  0.3329
25227W        W44081  17.450   4.350   2.101  0.0328  0.4091 -0.1584
25228W        W44082   3.892   5.202  14.381 -0.3492  0.0847  0.0345
25229W        W44083   6.259  14.849   2.630 -0.2142  0.0876 -0.1208
25230W        W44084   2.111   2.691  10.786  0.0838 -0.0625 -0.0962
25231W        W44085  10.293   4.741   0.829 -0.0892 -0.2097  0.2745
25232W        W44086  17.695  10.719   1.378 -0.0526  0.1162  0.0068
25233W        W44087  12.641  15.768   3.443  0.2418  0.0917 -0.0549
25234W        W44088  16.708   9.583   1.843 -0.1675  0.0700 -0.0225
25235W        W44089   0.043   2.517  13.835  0.2241 -0.1824 -0.1353
25236W        W44090   5.100   6.243   0.487  0.2353 -0.1634  0.0953
25237W        W44091   1.279  12.923   4.521 -0.1619  0.0594 -0.1821
25238W        W44092   6.533   2.196   4.184  0.3180 -0.1065  0.0665
25239W        W44093   9.690  11.131  13.045  0.0993 -0.0529 -0.0297
25240W        W44094  18.419   8.420   2.442  0.2014  0.0107  0.1732
25241W        W44095  11.882   9.732  12.570  0.3849 -0.0704 -0.2713
25242W        W44096  12.332   2.886  13.200 -0.1302  0.1987  0.0818
25243W        W44097  17.201  15.111  14.720 -0.3752 -0.0282 -0.0687
25244W        W44098  15.048   7.168  15.007  0.0151  0.0511 -0.2655
25245W        W44099   6.711   5.866   3.220  0.4822 -0.1441  0.1669
25246W        W44100  16.516  13.345   1.926 -0.2263 -0.0832 -0.0175
25247W        W44101   2.851   8.400  10.919  0.1112 -0.0926 -0.1241
25248W        W44102   3.126  17.815  11.024  0.0893  0.1844  0.3156
25249W        W44103   3.322  10.210  13.516 -0.1072  0.0285 -0.0191
25250W        W44104  16.462  14.670  11.947  0.0569  0.2270  0.0671
25251W        W44105   3.366  15.042   0.912  0.2289  0.0650 -0.1712
25252W        W44106   0.112   7.255  14.769  0.1957  0.2405 -0.0516
25253W        W44107   0.673   4.634  12.746  0.0148  0.2554 -0.2328
25254W        W44108  12.630   7.689   2.841  0.1248  0.0741  0.3862
25255W        W44109   9.503   4.175   2.909 -0.0399 -0.0257  0.1616
25256W        W44110   2.427  10.304   1.644  0.0499 -0.0261  0.0240
25257W        W44111  11.327   1.247   0.868 -0.1709 -0.1334  0.1781
25258W        W44112   2.096   9.884  11.638  0.0773  0.2827 -0.0811
25259W        W44113   1.883   2.040  14.606  0.2276 -0.0898  0.0843
25260W        W44114   9.523   4.357   1.289 -0.0561  0.0160 -0.0285
25261W        W44115   3.749  15.086   0.534 -0.0180  0.1585  0.0576
25262W        W44116  15.344   1.058  14.489 -0.0760  0.1142 -0.2881
25263W        W44117  14.653   2.461   1.391  0.1697  0.0896  0.0986
25264W        W44118   0.931  11.643   4.177 -0.2296  0.1612 -0.3037
25265W        W44119   3.951  13.752  14.397 -0.3106  0.1818  0.2857
25266W        W44120  13.152   4.861  15.460 -0.2394 -0.1930 -0.0219
25267W        W44121   0.078   2.119   3.484  0.3035 -0.2539 -0.0240
25268W        W44122  12.252  16.755  15.135  0.0021 -0.1202 -0.1151
25269W        W44123   4.906   1.366  12.467 -0.0770 -0.0897 -0.0852
25270W        W44124  10.766  15.667   3.022  0.0038  0.1513 -0.0113
25271W        W44125  12.772  16.970  15.293 -0.0209 -0.0781  0.2194
25272W        W44126  15.498   5.354   1.338  0.0466  0.0510 -0.0094
25273W        W44127  12.945   0.486   4.186 -0.0653  0.2005 -0.4228
25274W        W44128  14.503  15.332  13.461 -0.0121 -0.1426 -0.0463
25275W        W44129   3.843  16.024   2.471  0.2649  0.0672 -0.1050
25276W        W44130  10.561   8.833  11.950  0.0568 -0.0844  0.0004
25277W        W44131   6.561   6.011   3.712 -0.0164  0.1906 -0.0765
25278W        W44132  16.816  11.349   2.708  0.2270 -0.0835  0.1031
25279W        W44133  16.518  16.321  10.699 -0.0440  0.0329  0.0838
25280W        W44134   2.798  18.343  11.537  0.2083 -0.2010  0.0333
25281W        W44135  11.999  16.327   3.485 -0.2028  0.2112  0.0544
25282W        W44136  15.780   3.798   1.872 -0.1440 -0.2840  0.2865
25283W        W44137   1.754   5.869   0.680  0.0340 -0.1020  0.0123
25284W        W44138   7.072   7.432   4.310 -0.0496  0.2752 -0.1680
25285W        W44139   2.349   3.563   0.856  0.1266 -0.0332 -0.3103
25286W        W44140  12.117   2.342  12.607 -0.1419  0.2573 -0.2189
25287W        W44141   4.403  12.680  11.108 -0.0835  0.1013  0.2620
25288W        W44142   0.695   2.358   5.273 -0.0075  0.2902  0.1135
25289W        W44143  15.766  18.254  14.061 -0.1046 -0.0463 -0.1569
25290W        W44144   9.276   7.879   3.989 -0.1374 -0.1053 -0.1211
25291W        W44145  16.004   0.096  10.018  0.0673 -0.1589 -0.3583
25292W        W44146   6.660   7.605   0.325 -0.0153 -0.0981  0.1303
25293W        W44147   7.785   3.443   3.719 -0.0836  0.1174 -0.3700
25294W        W44148   2.842   4.461  12.118 -0.2161 -0.3024 -0.1462
25295W        W44149  15.976   6.123  10.034  0.0472  0.1944 -0.0422
25296W        W44150   3.064  13.966  14.224 -0.1236  0.2054 -0.0039
25297W        W44151  10.762  12.806  15.094  0.1495 -0.0952 -0.0106
25298W        W44152   2.839  10.408   0.984  0.0411  0.0571  0.1920
25299W        W44153  12.047   1.958  14.674 -0.2071  0.0052  0.1276
25300W        W44154   3.654  11.726  14.700  0.1865  0.1724 -0.2473
25301W        W44155   0.490  15.267   3.887 -0.0583  0.2013  0.1044
25302W        W44156  16.226  18.538  10.940 -0.1276 -0.3478 -0.1944
25303W        W44157   4.315   1.248   3.135  0.2612  0.0919 -0.1973
25304W        W44158  12.117  16.239   2.784  0.2051 -0.0491  0.0677
25305W        W44159  12.692   7.931  15.280 -0.0463 -0.1250 -0.2716
25306W        W44160   6.898  15.680   5.424 -0.4408 -0.0600 -0.0437
25307W        W44161  15.036   2.615   0.023 -0.0346 -0.0419 -0.1213
25308W        W44162  10.319  14.282  13.527 -0.1070  0.2498 -0.0230
25309W        W44163   7.587  11.472   0.970  0.1910  0.1339 -0.3542
25310W        W44164  15.050  12.393  11.688 -0.0362 -0.2030 -0.0896
25311W        W44165  11.103  11.619   0.458 -0.2944  0.0699  0.2682
25312W        W44166  11.554   1.323  14.204  0.3210 -0.5266 -0.2342
25313W        W44167  10.338   4.398  14.483 -0.3491  0.1645  0.2754
25314W        W44168  13.556   4.623   2.466  0.3845 -0.0087 -0.0116
25315W        W44169  15.060   7.525   1.695 -0.1751  0.0195  0.0920
25316W        W44170   3.777  13.679  11.560  0.0240  0.2624  0.0416
25317W        W44171  17.379  14.750  10.689 -0.3211 -0.2080  0.1638
25318W        W44172  11.281  14.234   1.622  0.0045  0.1084  0.0107
25319W        W44173  17.899   7.273  13.295  0.0892 -0.1167  0.0715
25320W        W44174  16.642  15.219   1.696 -0.0032 -0.1610 -0.1254
25321W        W44175  10.339  13.519   1.519 -0.2812  0.0003  0.3502
25322W        W44176   5.870   6.270   1.112  0.0483  0.0083  0.1059
25323W        W44177   5.550   5.926   4.138 -0.0837 -0.1466  0.0178
25324W        W44178   1.033  14.605  12.720 -0.1106  0.0670  0.3100
25325W        W44179  15.498  11.562  13.305  0.2157  0.1312  0.0588
25326W        W44180   6.807  12.544  11.155  0.2671  0.2087 -0.1354
25327W        W44181   2.031  13.169   2.741  0.2263  0.0520  0.0071
25328W        W44182   1.145  11.957   4.485 -0.2588  0.1038  0.0763
25329W        W44183   4.483  12.867  13.540 -0.1200 -0.1908 -0.5113
25330W        W44184  16.067  16.888   3.410 -0.0979 -0.0712 -0.0513
25331W        W44185   9.005   8.933   4.412 -0.2454 -0.1321 -0.0927
25332W        W44186  15.787  14.534   3.652 -0.0383  0.0008 -0.1730
25333W        W44187  16.216  13.661  11.959  0.0934  0.0803 -0.1468
25334W        W44188  10.445   0.202   3.706 -0.2676  0.1633  0.3479
25335W        W44189   0.284  15.271   1.496 -0.1359  0.0721  0.0857
25336W        W44190   4.507  15.586   3.325 -0.0655  0.0541 -0.0863
25337W        W44191   6.601   4.916  12.281 -0.0003  0.3598  0.0800
25338W        W44192  10.650  15.840  12.606  0.3010  0.3068  0.1470
25339W        W44193  13.037  17.852   1.637 -0.0162  0.2257  0.0570
25340W        W44194   0.921  16.532  13.344  0.1008  0.1288  0.0380
25341W        W44195  16.555   7.437  10.901  0.2218  0.2022 -0.1913
25342W        W44196   5.903   1.089   0.755  0.1491  0.4739 -0.2227
25343W        W44197   8.862   1.934  14.727 -0.1670 -0.1415  0.0486
25344W        W44198  15.961   4.591   1.956  0.0394  0.0396  0.0056
25345W        W44199   5.463  10.612   4.409 -0.1011  0.2206 -0.0069
25346W        W44200  10.159  14.930  14.147 -0.0189 -0.1591  0.0887
25347W        W44201  14.253   2.864   3.157  0.0278  0.3112 -0.1631
25348W        W44202  12.644   3.693   3.267  0.3136 -0.2387  0.3020
25349W        W44203  13.385  10.639   0.867  0.0429 -0.0818  0.0441
25350W        W44204   4.190  13.470   1.070  0.2388 -0.1169 -0.0593
25351W        W44205   1.766   8.794   1.078  0.1002 -0.0641 -0.0343
25352W        W44206   7.930   0.155   1.793  0.0053  0.1810 -0.1819
25353W        W44207   8.142   6.666  13.993 -0.0105  0.1859  0.0429
25354W        W44208  10.915   3.032   3.375  0.3248  0.1631 -0.1793
25355W        W44209  14.770   0.951  12.816  0.0153  0.0272 -0.3108
25356W        W44210   3.517   1.061  15.432 -0.3351  0.1955 -0.1071
25357W        W44211  10.047  12.414  13.651 -0.0625  0.3089  0.1461
25358W        W44212  11.968   8.414  14.356 -0.0061  0.0196  0.0399
25359W        W44213   5.089   1.777  13.979  0.1866  0.1062  0.0468
25360W        W44214   2.713  11.320   1.426  0.0838  0.0349  0.1291
25361W        W44215  15.074   5.800   2.019 -0.0031  0.0191 -0.1269
25362W        W44216  13.303   5.353  11.882 -0.1873 -0.0991  0.3223
25363W        W44217  15.567   2.508   1.242  0.1866  0.0668 -0.2103
25364W        W44218  18.476  16.623   0.259  0.4261 -0.1121 -0.2103
25365W        W44219   0.438  15.819   3.681  0.1491  0.3249 -0.0591
25366W        W44220  17.351   9.403   1.155  0.3302 -0.0213  0.1544
25367W        W44221  11.405   2.070   3.344 -0.0376 -0.3398 -0.0615
25368W        W44222   6.833   5.712   2.242 -0.0260  0.1101  0.0254
25369W        W44223  18.268  15.890   2.072  0.0584 -0.0437  0.0780
25370W        W44224   9.284  14.732   9.845  0.0199 -0.2669  0.1201
25371W        W44225  15.367  16.979  14.878 -0.1002  0.1454  0.0867
25372W        W44226   8.116   1.572  14.445 -0.3643 -0.0417  0.0129
25373W        W44227   6.327   4.035  11.680 -0.1246 -0.0078  0.1869
25374W        W44228  17.805  12.000   0.972  0.2577 -0.1049  0.0046
25375W        W44229   5.650  14.065  15.306  0.0556 -0.1557 -0.2371
25376W        W44230  10.598   9.913   3.125 -0.2010  0.0794  0.1740
25377W        W44231   6.801   4.951  12.818  0.2263 -0.1475 -0.2818
25378W        W44232  16.857   8.369  10.769 -0.1037  0.0502 -0.6687
25379W        W44233  12.934   5.194  12.128  0.0281  0.0578  0.0513
25380W        W44234   7.273  12.629   1.226  0.0513  0.1176  0.1225
25381W        W44235  13.237   0.405  12.464 -0.1162 -0.1310 -0.0321
25382W        W44236   3.009   4.456  13.522 -0.0596 -0.0473  0.1564
25383W        W44237  13.850   6.659  13.116 -0.1702 -0.4333 -0.1903
25384W        W44238   0.388   1.034   0.780 -0.1318  0.0855  0.1266
25385W        W44239   6.988  14.920  12.764  0.1865  0.0492 -0.0325
25386W        W44240  10.484  12.325  14.036  0.1417  0.0245 -0.2267
25387W        W44241   0.961   8.679   0.374 -0.1139 -0.0307  0.1211
25388W        W44242   8.155   6.823   2.251 -0.0826  0.2549  0.1671
25389W        W44243   5.812  18.457  14.475 -0.1727 -0.2788 -0.2373
25390W        W44244  11.730   4.621   1.804 -0.1319 -0.0847 -0.0516
25391W        W44245  11.471  10.318   1.628 -0.1759 -0.1126  0.0683
25392W        W44246  12.017   0.107   1.975 -0.0420  0.1787  0.3197
25393W        W44247  11.349  15.146  12.319  0.0512  0.1365 -0.0363
25394W        W44248   7.815  10.885   0.944  0.0796  0.0731 -0.0406
25395W        W44249  11.076  10.490  13.773 -0.2187 -0.1093 -0.0459
25396W        W44250  13.861  12.641  13.415 -0.1095 -0.0619  0.2380
25397W        W44251  14.616   7.245  14.628 -0.3473 -0.0619 -0.0868
25398W        W44252  11.714  11.540   3.858 -0.1546 -0.0053  0.1344
25399W        W44253   3.032   1.323  13.233 -0.0665  0.0500  0.5409
25400W        W44254  11.984  18.190  13.692  0.1668 -0.0181  0.1860
25401W        W44255   8.700  13.911   0.538 -0.0589  0.2029 -0.3380
25402W        W44256   2.779  16.269   2.662  0.2291 -0.0785  0.2236
25403W        W44257   6.074   1.943   3.461  0.0700 -0.0870 -0.0307
25404W        W44258   0.485   3.058   1.820  0.1996  0.0498  0.2199
25405W        W44259   8.671   2.206   2.934 -0.0268 -0.3454  0.2470
25406W        W44260  13.646  18.258  12.531 -0.2610  0.0509  0.2848
25407W        W44261   5.661   6.582  13.332 -0.2058  0.1260 -0.1696
25408W        W44262  13.337  16.400   3.554 -0.3429  0.1024  0.1168
25409W        W44263  14.268  16.642   1.111  0.2167 -0.1438 -0.2645
25410W        W44264  14.590   2.097   3.881  0.3671 -0.2715 -0.0303
25411W        W44265   1.706   3.155  12.874  0.1180 -0.0641  0.1166
25412W        W44266  17.188  18.327  15.159 -0.0282  0.0956  0.0976
25413W        W44267   5.211   6.023  10.983 -0.3137  0.2020 -0.1493
25414W        W44268   7.271   8.716   4.188  0.1041  0.0838 -0.3300
25415W        W44269  11.265  12.217   3.175  0.0849  0.1081 -0.0694
25416W        W44270  18.421   1.022   1.607  0.0998  0.0573  0.0128
25417W        W44271  12.165  10.977  11.674  0.0099 -0.0155 -0.1473
25418W        W44272   1.382  18.571   1.543 -0.1736 -0.2154  0.2018
25419W        W44273  17.532  12.584  15.193 -0.3752  0.4237 -0.1312
25420W        W44274   4.456  10.234  11.767 -0.1154  0.0952  0.3988
25421W        W44275   9.422  14.319  10.887 -0.0818  0.0885  0.1236
25422W        W44276   9.745   5.706   3.672 -0.2301  0.1555  0.0836
25423W        W44277  16.715  12.214   4.383  0.1272  0.1354 -0.1527
25424W        W44278  13.344   2.031   4.092  0.1495 -0.0974 -0.1347
25425W        W44279  17.959   6.614  15.301  0.0632 -0.0026 -0.1361
25426W        W44280   6.038   4.015   4.333  0.0066 -0.3215 -0.3835
25427W        W44281   4.939  16.890   2.689 -0.5245  0.2633  0.1243
25428W        W44282  10.130  16.274   1.907 -0.0677 -0.4711 -0.0808
25429W        W44283   8.572   6.568   3.992  0.3280  0.0065 -0.1117
25430W        W44284   7.559   9.787   1.019 -0.0736 -0.1077 -0.0398
25431W        W44285   1.278  14.199   3.753 -0.0711 -0.1016 -0.0736
25432W        W44286  15.652   1.091  15.189 -0.0203 -0.0489 -0.1089
25433W        W44287   3.315  12.968  15.103 -0.0656 -0.1817  0.0496
25434W        W44288  17.271  11.770  13.673  0.0519 -0.3185  0.0302
25435W        W44289   2.137   3.027   2.263  0.0623 -0.3820  0.2171
25436W        W44290   7.618   0.649  14.333 -0.1124  0.0952 -0.2137
25437W        W44291   8.950   4.233   0.467  0.0155 -0.2112  0.0041
25438W        W44292   3.714   9.182  11.073 -0.3880 -0.1613 -0.0158
25439W        W44293   2.261   8.101  11.498 -0.2423 -0.2868 -0.2013
25440W        W44294   6.519   7.314   3.726  0.2759  0.4547 -0.0842
25441W        W44295  14.453  14.647  14.295 -0.2860 -0.0807 -0.1368
25442W        W44296  12.962   0.819  11.693  0.0321  0.1347 -0.3209
25443W        W44297  16.778   5.725   0.042  0.0437 -0.0555 -0.0784
25444W        W44298   2.751   5.320   3.554 -0.1085 -0.1613 -0.1650
25445W        W44299  15.784   2.272  14.956 -0.0608  0.0823 -0.1244
25446W        W44300  11.029   5.653   4.387  0.0349  0.3645  0.2004
25447W        W44301   9.801  14.193   3.120  0.2106 -0.2610 -0.0498
25448W        W44302   2.922  14.026  11.524  0.0253  0.2586  0.2128
25449W        W44303  18.325  11.621  12.449 -0.0611  0.1244 -0.2821
25450W        W44304  14.251   7.914   2.691  0.1135 -0.2286  0.2615
25451W        W44305   9.051  13.644   2.094  0.0034  0.3231 -0.0377
25452W        W44306   7.194  14.837   2.590 -0.0308  0.2054 -0.1442
25453W        W44307  17.325  15.616   4.284  0.3273  0.1238 -0.0540
25454W        W44308  14.717  14.649   2.446 -0.1624  0.1032 -0.0009
25455W        W44309   7.802  17.442  13.784  0.0929  0.1075 -0.0890
25456W        W44310  18.210  17.559  12.725  0.2372  0.0536  0.0771
25457W        W44311   2.903  10.675   2.822 -0.2105 -0.0539 -0.0032
25458W        W44312   1.062  10.782   3.964  0.0708 -0.0530 -0.3427
25459W        W44313  10.627  13.414  14.736  0.1296 -0.0820  0.0034
25460W        W44314   7.930  13.402   0.777 -0.1595  0.2273 -0.3674
25461W        W44315   9.828   4.315  14.525 -0.0857  0.3126 -0.3773
25462W        W44316   2.986   7.271   3.417  0.0565 -0.1112  0.2271
25463W        W44317   1.820  13.582  12.254 -0.2352  0.2222  0.1149
25464W        W44318   7.018  18.081  12.941 -0.1753  0.0606  0.0465
25465W        W44319   7.748   5.066   4.624  0.0778  0.0817 -0.0311
25466W        W44320  11.065   7.574   2.909  0.1767  0.0835  0.1789
25467W        W44321   0.629   7.781  12.485 -0.1632 -0.0689 -0.0272
25468W        W44322  13.721  16.132   1.617  0.0729 -0.0220  0.1752
25469W        W44323  14.593   0.764  14.825  0.0135  0.0464 -0.3793
25470W        W44324  12.071   1.558  11.976  0.0774  0.0178  0.0947
25471W        W44325   8.008  12.550  12.832  0.1629 -0.1247 -0.2534
25472W        W44326   7.676   2.670   1.343  0.1616 -0.0710 -0.1573
25473W        W44327   3.520  16.751  11.131  0.0289 -0.1260  0.1837
25474W        W44328  13.194   8.039  14.011 -0.1527  0.0821 -0.3448
25475W        W44329  18.253  14.911  14.986 -0.0173  0.0822 -0.3692
25476W        W44330  15.023  16.483   0.778 -0.0727  0.1016 -0.1046
25477W        W44331   2.740  15.512  14.987  0.0496 -0.0529  0.0719
25478W        W44332   1.850   6.977   2.535 -0.1704  0.2779  0.1723
25479W        W44333   9.103  16.751   4.418 -0.0729 -0.0647 -0.1000
25480W        W44334  17.681   1.334   1.848 -0.1168 -0.1293 -0.2781
25481W        W44335   9.545  15.508  10.917  0.1608 -0.4000 -0.0935
25482W        W44336   6.637   9.095  10.856  0.1651  0.1811  0.4595
25483W        W44337   1.846  11.518   1.618  0.1642 -0.0599  0.3301
25484W        W44338   4.630   5.002   4.557 -0.2552  0.2817 -0.2648
25485W        W44339   0.722   2.952   1.066  0.0791  0.0240  0.2922
25486W        W44340  17.959  11.068   2.939 -0.0151  0.2153 -0.1713
25487W        W44341  10.511   2.718   0.196 -0.0601  0.3239 -0.0985
25488W        W44342   3.215  11.815  10.135 -0.1609 -0.0887  0.0974
25489W        W44343  16.227  13.301   3.811 -0.2551 -0.2408 -0.1486
25490W        W44344   5.293   0.382   4.080 -0.0209 -0.3173 -0.0043
25491W        W44345   4.520   1.185  14.439  0.0634 -0.1325  0.0599
25492W        W44346  18.068   5.934   1.709  0.0027  0.2524  0.0398
25493W        W44347  17.831  14.325   4.095 -0.0205  0.4576  0.1675
25494W        W44348  16.274   1.739  12.949 -0.1433 -0.1092  0.1981
25495W        W44349  10.646  18.047  15.341  0.1057  0.0188  0.0280
25496W        W44350  13.058  11.310  13.064 -0.1575  0.1578 -0.0312
25497W        W44351   4.717   4.244   0.427 -0.4503  0.0161  0.0276
25498W        W44352  15.598  12.406   3.015  0.3061  0.1909  0.1777
25499W        W44353   5.479   7.315  12.749 -0.3217  0.0295  0.0125
25500W        W44354  11.916   6.781  12.763 -0.1803 -0.3241 -0.2438
25501W        W44355   5.367   3.539  11.195 -0.5270 -0.0131  0.1259
25502W        W44356   1.342  12.387   4.265  0.3610  0.2046 -0.0857
25503W        W44357   4.699  16.809   4.006  0.2309  0.1704  0.1559
25504W        W44358  18.069   1.232  12.753  0.2623  0.0455 -0.2401
25505W        W44359  11.858  16.890   3.389  0.1191  0.2476 -0.1146
25506W        W44360   6.572  14.240   0.539  0.1600  0.0677 -0.0372
25507W        W44361  17.871   0.795  14.096 -0.3276  0.2307  0.0667
25508W        W44362   6.448   7.799   4.609  0.3107 -0.3985 -0.1035
25509W        W44363  11.105   2.979  12.831  0.1221  0.1134 -0.3305
25510W        W44364  17.480   0.118  11.498 -0.0883  0.0654  0.0706
25511W        W44365   5.559   7.326   3.214  0.2740 -0.1685 -0.1077
25512W        W44366  17.839  11.734  13.589 -0.0262 -0.1161  0.2459
25513W        W44367  18.569  15.542  14.491  0.2282 -0.0263  0.0291
25514W        W44368   4.162   1.877  15.046 -0.1589  0.1256  0.1150
25515W        W44369  11.896   3.674  12.578 -0.3563 -0.3155 -0.0992
25516W        W44370   5.092   9.108  14.799  0.0936  0.0215  0.1125
25517W        W44371   5.024   4.261  11.969  0.1982 -0.1521 -0.0214
25518W        W44372   8.356   7.529  11.241 -0.0664 -0.4104  0.1362
25519W        W44373   7.817  14.665  11.165 -0.0137  0.1259  0.0446
25520W        W44374  17.337   6.314   4.257  0.0188  0.1846 -0.2979
25521W        W44375  16.829   0.234   9.981  0.0762  0.3188 -0.1609
25522W        W44376   8.480  12.646   4.543  0.1854  0.2139 -0.2825
25523W        W44377  16.936  15.626  13.517  0.3231 -0.3875 -0.0993
25524W        W44378   9.204  13.922  13.347  0.0062 -0.2311 -0.0981
25525W        W44379   3.935   8.597  13.021  0.2555 -0.0751 -0.0117
25526W        W44380  17.448  10.103  13.431 -0.1257 -0.0980 -0.2225
25527W        W44381   0.889   9.376   0.271 -0.2160 -0.3456 -0.1375
25528W        W44382   9.718  16.996   0.171  0.2043  0.2592  0.1208
25529W        W44383   5.548   1.949  14.688  0.3687 -0.0516 -0.0576
25530W        W44384   8.311  14.224   0.730  0.1296  0.1118  0.0347
25531W        W44385   8.358  13.580  13.157  0.1147 -0.0118  0.0501
25532W        W44386  14.214  13.447   1.991  0.0703  0.0308  0.1111
25533W        W44387   7.534   8.800   0.806  0.1473 -0.2772  0.0521
25534W        W44388   3.485  13.780   0.736  0.1869 -0.2103 -0.0298
25535W        W44389   0.188  16.069   4.046  0.1009  0.0002 -0.4454
25536W        W44390   3.757   4.412  11.459 -0.1573 -0.1377  0.2337
25537W        W44391  16.106  10.883  10.845  0.0334 -0.1715 -0.0731
25538W        W44392   2.979   0.438  11.986  0.2439 -0.4245  0.2323
25539W        W44393   2.393   3.246  14.314  0.1269 -0.0280 -0.3972
25540W        W44394  14.144   3.560  11.305 -0.0880  0.2525 -0.1701
25541W        W44395  11.043  13.827   3.017 -0.1460  0.0874  0.2827
25542W        W44396  13.870   0.369   1.172 -0.4458  0.0646 -0.2521
25543W        W44397  12.833  13.844   0.231 -0.0475  0.1470  0.1946
25544W        W44398  14.996  14.427   9.805 -0.0973 -0.0194  0.4191
25545W        W44399   7.377   6.763   2.644  0.2936  0.0921 -0.1808
25546W        W44400  12.910   0.126   1.844  0.0136  0.0318 -0.0184
25547W        W44401   7.450  13.940   0.076 -0.1049 -0.1535 -0.3415
25548W        W44402  16.520  14.701  13.398  0.0740  0.0059  0.0748
25549W        W44403  16.194  13.496  13.070 -0.0396 -0.1367  0.2749
25550W        W44404  15.703   5.812  14.719  0.1638 -0.1940 -0.1535
25551W        W44405   7.296   4.663   0.066 -0.4437 -0.0300 -0.0444
25552W        W44406   0.662   6.322  12.455 -0.4529 -0.2834  0.1355
25553W        W44407   7.527   8.400  11.623 -0.0193 -0.3453  0.1950
25554W        W44408  10.953   8.892  12.628  0.2593 -0.2349 -0.2528
25555W        W44409  16.290   4.950   2.267  0.2060  0.0850 -0.2483
25556W        W44410   0.319  14.574   1.878 -0.0261 -0.1184 -0.0304
25557W        W44411  15.466   5.589   4.517 -0.0069  0.1280  0.0728
25558W        W44412   4.734  12.164   2.292 -0.0831  0.0380 -0.0075
25559W        W44413   5.438  11.441  10.149  0.0519 -0.0429 -0.1214
25560W        W44414  15.971   6.286   1.587 -0.1408 -0.1184  0.2157
25561W        W44415  13.609  18.503  14.391 -0.0134 -0.1044 -0.0193
25562W        W44416  14.359   1.708  12.650  0.0907  0.0759 -0.0461
25563W        W44417   4.379   7.445  14.484 -0.0903  0.2963 -0.3251
25564W        W44418   6.091  14.365   1.428 -0.1813  0.3106  0.3874
25565W        W44419   1.973  14.487   9.708 -0.1159  0.1114 -0.0924
25566W        W44420   4.820   6.298   4.613 -0.1277 -0.1377  0.0215
25567W        W44421   7.996  15.440  11.112 -0.1202 -0.1817  0.1001
25568W        W44422   8.315  14.469   4.837  0.1284 -0.0185 -0.1511
25569W        W44423  16.764  16.246  12.656  0.0090 -0.0322  0.0479
25570W        W44424   4.652   3.240   3.433 -0.0532  0.1412  0.0807
25571W        W44425   3.508  18.549   0.734  0.2452  0.0896  0.3995
25572W        W44426  13.338  13.541   2.607 -0.3695  0.3327  0.0202
25573W        W44427   7.523   2.071  12.456  0.2419  0.1045  0.0550
25574W        W44428  11.755  17.552   1.073  0.0876  0.0837  0.0601
25575W        W44429  15.196  17.186   4.207 -0.1070 -0.2591  0.1200
25576W        W44430  12.355  12.103   2.596  0.1700  0.1734 -0.2003
25577W        W44431   4.052   9.736   2.661  0.0904 -0.0024 -0.0054
25578W        W44432   7.052  11.860   0.837  0.1612 -0.0287 -0.1228
25579W        W44433   4.793  17.633   3.676 -0.3006  0.1502 -0.0898
25580W        W44434   4.138  13.998  13.199  0.0262  0.0409 -0.0409
25581W        W44435  18.041   7.409   0.684  0.0095 -0.3201  0.3304
25582W        W44436   8.732  18.322   2.833 -0.1515  0.0833 -0.0154
25583W        W44437   1.500   7.004   1.704  0.1043 -0.0535  0.1184
25584W        W44438  13.490  11.911   1.664  0.1043  0.4146 -0.1192
25585W        W44439  15.258   4.545   2.364  0.1328 -0.1445  0.2638
25586W        W44440  16.354  16.273   2.613 -0.0720  0.2811  0.1392
25587W        W44441  15.358   7.435   3.191 -0.0344  0.2667 -0.1361
25588W        W44442  13.484   6.386  12.881 -0.2897 -0.3673  0.2072
25589W        W44443  13.180   9.860  14.794 -0.2411 -0.1330  0.2693
25590W        W44444   1.155   5.599   5.620  0.0017  0.1082  0.3486
25591W        W44445   2.056  17.898   1.590  0.0726  0.2334 -0.0804
25592W        W44446   1.892   4.096   4.282 -0.0296 -0.1181  0.0765
25593W        W44447  17.120  15.940   9.849 -0.2192  0.0982 -0.3413
25594W        W44448   2.111   0.010  12.289 -0.2440 -0.2248  0.1870
25595W        W44449   8.366   0.030   1.996  0.1289  0.2387 -0.2446
25596W        W44450   6.720  15.634  11.425 -0.1164  0.0724  0.2125
25597W        W44451  11.358  15.916  13.394 -0.2691  0.0678 -0.1468
25598W        W44452   8.925   4.093  12.357  0.1762  0.2897  0.0297
25599W        W44453  18.300   5.589   1.323  0.2131 -0.0765  0.0919
25600W        W44454   7.513   0.291  11.204 -0.0115 -0.0702  0.3805
25601W        W44455   5.668   9.683   3.314 -0.0808 -0.1715  0.0570
25602W        W44456   1.100   8.346   1.543  0.0406 -0.1453  0.1696
25603W        W44457   6.675   5.182   1.409 -0.1284  0.0030  0.0779
25604W        W44458  13.795   8.133  14.840  0.2206  0.0319  0.1693
25605W        W44459  16.564   6.818  13.517  0.0473  0.0159 -0.0162
25606W        W44460   4.728   6.101   5.496 -0.0020  0.0995 -0.1010
25607W        W44461  15.882   1.685  14.249  0.0118 -0.0834 -0.0373
25608W        W44462  17.603  16.106   1.101  0.3614 -0.2368  0.2897
25609W        W44463  14.446   1.998   3.161  0.0187 -0.0951 -0.2831
25610W        W44464   6.221   4.694   2.312  0.2071 -0.3845 -0.1123
25611W        W44465  16.822   4.621  10.908 -0.0123 -0.0702 -0.2643
25612W        W44466   3.663  15.093   3.750  0.2510  0.0185  0.0574
25613W        W44467   2.511  17.865  11.466 -0.2202  0.0772  0.0486
25614W        W44468  15.896  15.429   0.269  0.3662  0.1559  0.0007
25615W        W44469   8.863   3.518   2.597  0.1518 -0.4001 -0.1607
25616W        W44470   5.299  18.039   0.892 -0.0248 -0.1556  0.0400
25617W        W44471   0.502   4.320   0.458  0.1175  0.0138  0.3379
25618W        W44472  17.076   6.689  13.322 -0.0917  0.0793  0.0552
25619W        W44473  10.226   1.146  12.580  0.1097 -0.1355 -0.0935
25620W        W44474  12.745   4.525  13.884  0.1124  0.0164 -0.0909
25621W        W44475   8.418   6.098  12.741  0.3633  0.0281  0.0309
25622W        W44476   4.249  17.230   2.736 -0.1531  0.1487 -0.3194
25623W        W44477   5.335   9.972  13.989  0.4089  0.2814  0.1732
25624W        W44478  16.741   0.760  15.039  0.2713 -0.1337 -0.0047
25625W        W44479  10.567   5.905   4.474  0.1756  0.0096  0.2574
25626W        W44480   5.399  14.555  13.488 -0.2246 -0.0681  0.1779
25627W        W44481   3.179  10.446   0.194 -0.0737  0.3206  0.2630
25628W        W44482  15.735  10.614   1.547  0.0471 -0.3699  0.0850
25629W        W44483   6.995  17.030   2.830  0.0458  0.1818  0.1860
25630W        W44484   9.032   3.199  12.154  0.1650  0.0013 -0.0584
25631W        W44485  13.126   9.172  14.315 -0.2797 -0.3295  0.1026
25632W        W44486   8.458  11.052  13.903  0.1966 -0.0897  0.0078
25633W        W44487   5.016   0.430   2.292 -0.0583 -0.2458  0.0835
25634W        W44488   0.259   3.712   5.333  0.3516  0.0067 -0.0453
25635W        W44489  11.473   0.780   2.226 -0.2116 -0.1178  0.2329
25636W        W44490  11.394   6.343   4.698 -0.1231  0.1426  0.0205
25637W        W44491  14.132  11.715  15.307  0.1271  0.2605 -0.3275
25638W        W44492   8.919   6.233  13.530 -0.1745  0.0410 -0.1583
25639W        W44493  17.481  18.384   1.672 -0.5295 -0.0402 -0.0693
25640W        W44494  17.252   9.831   1.751  0.0386  0.1748  0.0946
25641W        W44495   0.462   8.893  15.111 -0.1746 -0.4933  0.1763
25642W        W44496   1.349   1.995   1.167  0.1257 -0.2791  0.1165
25643W        W44497   0.967  17.355   4.225 -0.3055  0.1793  0.2665
25644W        W44498   5.935  17.793   1.331  0.2893 -0.0981  0.0923
25645W        W44499   1.604  15.194   0.749  0.0013  0.2649  0.0733
25646W        W44500  15.429  15.886  12.706 -0.0564  0.0303  0.2649
25647W        W44501   5.812   0.774   1.595 -0.0784 -0.0353  0.0292
25648W        W44502  11.066  13.083  12.665 -0.1787  0.4117  0.1098
25649W        W44503   6.519  11.018   2.416  0.1327 -0.1865  0.1068
25650W        W44504  18.508   0.272  15.261 -0.1889  0.0785 -0.0458
25651W        W44505  10.208  15.757   5.162  0.1568  0.1576 -0.0472
25652W        W44506  17.530   9.504   2.664  0.1242  0.1161  0.0425
25653W        W44507   0.856   0.200   4.197  0.1815 -0.0607 -0.0635
25654W        W44508   3.950   3.976  14.508 -0.1849  0.0715  0.3382
25655W        W44509   6.156  13.384   0.632  0.0593  0.1401  0.0099
25656W        W44510   1.849   7.829  11.512 -0.0994  0.0030 -0.0453
25657W        W44511  16.583   0.124   1.587 -0.2632 -0.4041  0.0211
25658W        W44512  14.687   7.743  13.785 -0.0698 -0.0374 -0.2303
25659W        W44513   9.515  14.369   0.895 -0.0896  0.0682 -0.1319
25660W        W44514  11.951  18.228   3.620  0.1176 -0.0940  0.2955
25661W        W44515   0.975   0.444   3.777 -0.0097  0.1364 -0.1665
25662W        W44516   5.114   6.332   3.281  0.1839  0.0926  0.2808
25663W        W44517  13.928   6.808   0.831 -0.1456  0.1527 -0.1570
25664W        W44518   7.360  16.655   1.389  0.1098 -0.4042 -0.1080
25665W        W44519   5.722   3.824   0.287  0.1307  0.1096  0.2471
25666W        W44520  17.354  14.310  14.293  0.1801  0.0588  0.2396
25667W        W44521   7.355   2.277   3.694 -0.0709  0.0598  0.3491
25668W        W44522   0.024   6.736   2.233  0.1210 -0.0384  0.0136
25669W        W44523   9.354   7.363  14.690  0.1829 -0.0687  0.1797
25670W        W44524   0.989  17.840  12.974 -0.0005  0.2842 -0.2086
25671W        W44525   2.752  16.463  13.436  0.3373 -0.1738 -0.1850
25672W        W44526   1.232  10.527  15.437 -0.0920 -0.2624 -0.0833
25673W        W44527   2.290  12.822   3.525 -0.2204  0.1863  0.0890
25674W        W44528   7.332   1.724   3.628 -0.1948  0.0693 -0.3474
25675W        W44529  10.660  12.818  12.519  0.0455  0.5452  0.0376
25676W        W44530   9.885  17.957  13.291  0.0387 -0.1575  0.3177
25677W        W44531   4.952   9.564   3.686 -0.2267  0.0829  0.0076
25678W        W44532   4.906   1.353   2.465 -0.0625 -0.1357  0.1602
25679W        W44533   6.772  16.443   1.012 -0.1493  0.1428  0.0151
25680W        W44534   8.102  10.439  12.868 -0.0730 -0.2688 -0.1189
25681W        W44535   9.490   2.692  11.745 -0.5415  0.1817 -0.1808
25682W        W44536   6.536  10.352   4.231  0.0134 -0.1094  0.0025
25683W        W44537  14.657  16.795  13.472 -0.0678 -0.0258  0.1353
25684W        W44538  18.098  17.826   1.073 -0.2468  0.1727  0.1542
25685W        W44539   7.695  11.235   3.965  0.2074 -0.1108 -0.2313
25686W        W44540   1.294  15.922  11.485 -0.1010 -0.2422 -0.1983
25687W        W44541  15.171  15.604   4.467  0.1914  0.0288 -0.1273
25688W        W44542   7.727   1.960  12.905  0.1207 -0.0731 -0.0611
25689W        W44543   3.700   4.377  15.256 -0.0487 -0.0824  0.0053
25690W        W44544   8.154   8.295   2.448  0.0430 -0.0237 -0.0311
25691W        W44545   8.326   4.771   0.357 -0.5278  0.0514  0.1196
25692W        W44546   2.487  14.903  14.427  0.0779 -0.1760  0.0355
25693W        W44547   1.997   0.957  12.373  0.1601 -0.1678 -0.1167
25694W        W44548   0.186   5.113   1.992 -0.0411  0.2112 -0.1019
25695W        W44549   2.501   5.701  13.933 -0.1623 -0.2123 -0.0158
25696W        W44550   3.508   7.396   1.023  0.1620  0.0821  0.1274
25697W        W44551   9.081  15.722   3.468  0.1468 -0.3245 -0.0169
25698W        W44552   1.626   8.132  11.848  0.2713 -0.1102  0.0847
25699W        W44553  16.230   2.785   4.245  0.0790  0.2109 -0.1728
25700W        W44554  10.621   9.206  10.278 -0.1780  0.2694  0.1642
25701W        W44555   8.700  15.373  15.184 -0.2017 -0.1336  0.0072
25702W        W44556  13.214   9.342  13.852 -0.0601  0.2237  0.0966
25703W        W44557  18.443  17.664   2.663 -0.1313 -0.0536  0.0534
25704W        W44558   8.908   8.552   3.714  0.0313 -0.1062  0.2605
25705W        W44559  16.066   5.736  12.652  0.1681  0.0191  0.1863
25706W        W44560   1.125   1.465  12.614 -0.3736  0.1082 -0.2321
25707W        W44561   2.866   8.478   2.651  0.0345 -0.0771 -0.1529
25708W        W44562  18.241   3.414   3.968 -0.1715  0.2158 -0.0745
25709W        W44563  17.051   5.651   1.841  0.0012  0.0444 -0.3073
25710W        W44564   0.746   9.687   3.699 -0.0183  0.0871 -0.0319
25711W        W44565   8.443  18.465   1.529  0.1572  0.2114 -0.0521
25712W        W44566  18.153   9.821  12.282 -0.2914  0.1064 -0.2473
25713W        W44567   1.059   1.562  14.308  0.1184  0.0817 -0.0208
25714W        W44568   7.901   8.627  15.070 -0.3114  0.2094  0.2245
25715W        W44569   3.986  12.736  11.894  0.2697  0.0665  0.1676
25716W        W44570   2.757  13.545   2.809  0.1268  0.2255  0.0472
25717W        W44571  15.311  15.722  15.454  0.0420 -0.1719  0.4400
25718W        W44572  16.944  13.166   1.683 -0.2958 -0.2987 -0.2978
25719W        W44573   2.557   7.860  14.987 -0.0467 -0.3872  0.1135
25720W        W44574   5.308   5.187  11.638  0.0599  0.0419  0.2187
25721W        W44575   3.035   8.775   0.768 -0.2021 -0.1274  0.0456
25722W        W44576   4.987   4.515  13.849 -0.2047 -0.1081 -0.3398
25723W        W44577   7.189   1.447   1.286 -0.0223  0.2036  0.2278
25724W        W44578  15.807   1.201   0.575 -0.2102 -0.2793  0.0030
25725W        W44579  13.562  14.682   0.361  0.1506 -0.0996  0.2676
25726W        W44580   4.564  15.201  12.069 -0.0122 -0.2621 -0.2037
25727W        W44581   7.166   5.746  13.054  0.1653  0.0685  0.0196
25728W        W44582  11.071   1.789  12.828  0.1001  0.1103 -0.3338
25729W        W44583   4.099   9.061  14.944 -0.0139  0.0625 -0.1031
25730W        W44584   1.258   3.622   3.288  0.0801  0.1167 -0.0736
25731W        W44585   6.864   0.308   3.511 -0.1114  0.0001 -0.0739
25732W        W44586   7.599   4.364  13.119 -0.2904 -0.1942  0.3986
25733W        W44587   8.455   7.608   1.838  0.0805 -0.1217 -0.0145
25734W        W44588  12.978  16.822  11.076  0.0188  0.2442 -0.4113
25735W        W44589   2.790   0.781   2.243  0.2058 -0.1373 -0.1687
25736W        W44590  18.256   6.348  12.308 -0.0986  0.1130  0.2139
25737W        W44591  15.815   9.726   4.389 -0.3058 -0.0934  0.0861
25738W        W44592   2.051  10.429  14.221 -0.3274 -0.0687 -0.1439
25739W        W44593  14.998  10.422  13.357  0.0483  0.2853 -0.0452
25740W        W44594   4.885   0.825  10.881  0.0952  0.1254 -0.0297
25741W        W44595  14.798   9.088   1.979 -0.1366 -0.1052 -0.0939
25742W        W44596   8.863   6.868   3.022  0.1995  0.2286 -0.1395
25743W        W44597  13.109   0.601  15.436 -0.2249  0.0474 -0.0753
25744W        W44598   9.172   0.495   1.485 -0.1154  0.0063 -0.1199
25745W        W44599   3.645  10.412   3.286 -0.1429 -0.1105 -0.1728
25746W        W44600   5.509   1.726  10.341  0.0101 -0.0085 -0.2362
25747W        W44601  13.118  11.005   1.061  0.1258 -0.1910 -0.1403
25748W        W44602   9.602  15.552  13.282 -0.1634  0.0729  0.2785
25749W        W44603  13.801  17.985   4.664 -0.0468 -0.1932  0.0165
25750W        W44604  14.523   7.691   1.218 -0.0794  0.0682 -0.0807
25751W        W44605  13.154  10.236   1.686  0.1335 -0.1954  0.1266
25752W        W44606  15.513   1.410   1.290 -0.0636  0.2182 -0.0253
25753W        W44607   8.148  12.818   1.636 -0.0874 -0.1606  0.3561
25754W        W44608  13.254  11.928  12.002 -0.3757 -0.1766 -0.0710
25755W        W44609   4.601   9.825   3.479 -0.0810 -0.0054 -0.2638
25756W        W44610  14.855   8.101  14.098 -0.3914  0.3114  0.0166
25757W        W44611   1.148  12.689   0.458 -0.3813 -0.0550 -0.0479
25758W        W44612  13.791   4.257  14.106  0.1511 -0.0429  0.1426
25759W        W44613  11.872  11.597   2.538  0.0439  0.0709  0.2114
25760W        W44614   2.107   6.538   2.581 -0.2260  0.0268  0.0081
25761W        W44615   0.527  17.016  12.826  0.1620  0.1410  0.2445
25762W        W44616  17.447   8.091   0.337 -0.1549 -0.1246 -0.3365
25763W        W44617   9.315  13.275   1.837  0.2490 -0.2545  0.0170
25764W        W44618  15.915  15.503  13.386 -0.0057 -0.0308 -0.0200
25765W        W44619  12.564   5.193  12.541 -0.2231 -0.0320  0.2819
25766W        W44620   7.833   6.305  14.209 -0.4360 -0.0524  0.1720
25767W        W44621   9.375  11.214   0.221  0.3082  0.2237  0.3020
25768W        W44622   8.386   1.149  12.912  0.4423 -0.2263  0.2308
25769W        W44623  18.408   3.219  13.586 -0.0266 -0.0174  0.0145
25770W        W44624  14.420  18.217  11.413 -0.0580  0.2125 -0.2069
25771W        W44625   6.449  16.847  12.214 -0.0821  0.2279 -0.2976
25772W        W44626   3.249   0.331  11.117  0.1385 -0.0754  0.2023
25773W        W44627   5.386  18.398  12.165  0.0656  0.1227 -0.3049
25774W        W44628   8.390   9.966   1.068  0.2862 -0.0200 -0.2900
25775W        W44629   2.879  11.844  14.699  0.1840 -0.1399  0.1406
25776W        W44630   3.782  15.609   2.764  0.0856  0.1629  0.0024
25777W        W44631  14.020   1.343   1.253  0.2413  0.1552 -0.2171
25778W        W44632   2.032  13.424   2.014  0.1087  0.0720 -0.3725
25779W        W44633  11.494  16.876  14.600  0.1727 -0.1336 -0.2776
25780W        W44634  17.543   1.700   3.544 -0.0676  0.0514 -0.1463
25781W        W44635   3.482   5.439   1.953  0.0425  0.1219  0.0651
25782W        W44636   7.783   5.318   2.645 -0.1048  0.0464  0.0591
25783W        W44637  15.591   1.183  13.262 -0.0597 -0.1412 -0.0982
25784W        W44638  14.539   8.066   2.285 -0.0561  0.0533 -0.1601
25785W        W44639   9.930   3.764   4.052  0.1477 -0.2085 -0.0370
25786W        W44640  15.840   6.169  11.796  0.1234  0.0765 -0.1118
25787W        W44641   4.850  14.024  13.264 -0.2963  0.1307  0.0653
25788W        W44642   8.927  14.420  13.716  0.1040  0.2556 -0.2646
25789W        W44643  12.373  13.757  12.559 -0.0382 -0.1037 -0.1479
25790W        W44644  16.669  10.752   3.300  0.3305 -0.0339 -0.2626
25791W        W44645  16.433   0.747  11.011 -0.2917  0.1674 -0.3002
25792W        W44646   5.757   3.989   2.966 -0.1097 -0.1958  0.2350
25793W        W44647  12.289  12.538  13.111  0.2277  0.1153  0.0767
25794W        W44648  16.049   9.327  12.443  0.0180  0.2454  0.3101
25795W        W44649  17.631   2.361   1.877  0.0936  0.1681 -0.0435
25796W        W44650   0.514  17.565  12.687 -0.3158  0.0819 -0.0640
25797W        W44651  10.136  16.050   3.497  0.2666  0.0719 -0.0886
25798W        W44652  12.079   5.695  15.023 -0.5850 -0.2143 -0.2669
25799W        W44653   7.428  16.608  11.614  0.2690 -0.0221  0.0182
25800W        W44654  10.100   9.335   1.455 -0.4515 -0.4429 -0.2138
25801W        W44655   0.797   6.799  12.412  0.0927 -0.0722  0.1031
25802W        W44656   0.278   8.046   2.645 -0.0135 -0.0911 -0.0876
25803W        W44657   1.863  10.707  11.233  0.2030 -0.3125  0.1586
25804W        W44658  14.959  14.098  13.981 -0.0643 -0.0074  0.5454
25805W        W44659  16.443  16.948  11.214  0.1303  0.0459  0.0011
25806W        W44660  15.886  15.835  11.603  0.0300  0.1452  0.2606
25807W        W44661   6.631  16.317  13.595  0.0211  0.1624 -0.0790
25808W        W44662  14.720   8.693  13.529 -0.0296 -0.1124 -0.0623
25809W        W44663   3.767   5.880   1.859  0.0169  0.0491 -0.0136
25810W        W44664  12.458   8.498  15.072 -0.3118  0.2627 -0.1594
25811W        W44665   5.715   4.792  12.712  0.1371  0.0208 -0.3266
25812W        W44666   2.304   4.229  11.850 -0.1359  0.0871  0.0727
25813W        W44667   2.656   7.975   4.591  0.1578 -0.2256 -0.0139
25814W        W44668  16.528  11.032   0.660  0.1999  0.1183  0.0044
25815W        W44669   8.954   1.952   4.403  0.0197  0.1270 -0.0882
25816W        W44670  16.145  15.933   3.774 -0.0252  0.1665 -0.0971
25817W        W44671  10.582   2.733  14.246  0.1854 -0.0984  0.0290
25818W        W44672  11.929   1.500  13.905 -0.0116 -0.0461  0.1824
25819W        W44673   5.802  17.383  15.138 -0.2645  0.2089 -0.1395
25820W        W44674   7.774  10.271  13.197  0.0642 -0.1686  0.1611
25821W        W44675   6.377   8.324  14.222 -0.3155  0.1037  0.2135
25822W        W44676   9.425   0.136  13.024  0.1328  0.0166  0.0380
25823W        W44677  15.886   7.425   3.984 -0.1474  0.0877 -0.0861
25824W        W44678  15.708   3.630  11.261  0.0209  0.1098  0.1801
25825W        W44679  17.483   5.912   2.996 -0.1350 -0.0717 -0.1194
25826W        W44680   2.908  16.346  12.732  0.2916  0.1351 -0.0215
25827W        W44681   5.078  17.495   1.023 -0.0221  0.2066 -0.1395
25828W        W44682  15.129  12.401  12.683 -0.0627  0.1692 -0.4205
25829W        W44683   2.486   1.977   3.207  0.0692  0.1157  0.2052
25830W        W44684   7.508   2.385   2.224 -0.1552  0.0790 -0.0005
25831W        W44685   6.640  13.171  15.263 -0.0185 -0.0639  0.0884
25832W        W44686  17.593  15.904  12.244  0.1084  0.0702 -0.2913
25833W        W44687   2.254  14.928   0.095 -0.4952  0.0124  0.0513
25834W        W44688   2.893   9.057   4.332 -0.1123  0.0020  0.2115
25835W        W44689  14.604   2.441   2.800  0.1699 -0.1322  0.0532
25836W        W44690   4.600  15.025  11.262 -0.1251 -0.4611  0.0235
25837W        W44691   4.191  11.508  13.644  0.0969  0.0051  0.0811
25838W        W44692   6.594  17.288   0.880 -0.1014 -0.0563 -0.2342
25839W        W44693   3.965   6.271  13.275  0.0906  0.0664 -0.0982
25840W        W44694   1.206   1.356   0.401  0.1257 -0.3431 -0.0440
25841W        W44695  12.080   2.715  14.936 -0.0967 -0.2305 -0.1211
25842W        W44696  12.556  18.496  11.931 -0.2044  0.4153  0.1300
25843W        W44697   7.927  11.967   2.786 -0.2421 -0.0812 -0.1155
25844W        W44698   4.172  14.109  11.309  0.4909  0.0411 -0.3169
25845W        W44699  17.934  14.842  11.445  0.1858  0.0518 -0.0345
25846W        W44700   8.842   3.007  14.723 -0.2417 -0.0847  0.0303
25847W        W44701  15.744  13.133  13.723 -0.2459  0.0801 -0.1971
25848W        W44702   5.225  12.545  12.081  0.1652  0.3008 -0.1560
25849W        W44703  11.724  15.415   3.079 -0.2549  0.1052 -0.3767
25850W        W44704  10.456  11.819   0.117  0.1471  0.1488 -0.0673
25851W        W44705   6.551   3.003   1.266  0.2286  0.1065 -0.0252
25852W        W44706   7.444  15.740   4.971  0.4294 -0.0702  0.0406
25853W        W44707   3.678   2.905   2.353 -0.1767  0.1043  0.0604
25854W        W44708   3.902   1.067  11.749 -0.1910 -0.0270 -0.0929
25855W        W44709  14.307   5.627  15.109  0.0007  0.0022 -0.0289
25856W        W44710   7.596   9.830   2.268 -0.0481 -0.0634 -0.0410
25857W        W44711   0.089   5.020  13.636 -0.2699  0.0840 -0.4310
25858W        W44712  11.654   8.906  15.013  0.3781  0.1792 -0.1929
25859W        W44713  15.527  17.790  13.844 -0.2232 -0.2758  0.0817
25860W        W44714  13.208   5.478   3.792  0.1272 -0.0242 -0.1580
25861W        W44715  14.111   0.839  12.129 -0.0662 -0.2391  0.3327
25862W        W44716   4.451   9.999   2.985 -0.1403  0.2331  0.0462
25863W        W44717   5.290  18.419  13.501 -0.1023  0.0158  0.0305
25864W        W44718  16.738  12.853  10.906 -0.0021  0.1350 -0.3082
25865W        W44719  16.213  15.316  10.822 -0.0110 -0.2285 -0.1266
25866W        W44720  16.381  16.250   0.098  0.0784 -0.1231 -0.0188
25867W        W44721  15.471   9.683   0.803 -0.0141  0.2695  0.0850
25868W        W44722   5.801  13.779  13.479 -0.2347  0.1106  0.1186
25869W        W44723  15.197   1.803  15.461 -0.2499  0.2145  0.1311
25870W        W44724   0.900   4.056   1.841  0.2018 -0.3058  0.1246
25871W        W44725  14.324  17.760   4.043 -0.1185  0.0672 -0.0394
25872W        W44726  14.846  17.756  12.439 -0.0073 -0.1340  0.0999
25873W        W44727   6.650  16.223   2.686  0.0285 -0.0637  0.0475
25874W        W44728   5.461   7.053  11.323  0.4184 -0.1883 -0.0475
25875W        W44729   8.493   8.400   2.977  0.0949  0.2314 -0.1631
25876W        W44730   7.830   6.160   4.498  0.4661 -0.0145 -0.0787
25877W        W44731   6.882   6.218   2.273 -0.1194  0.2734  0.0049
25878W        W44732  14.902   3.860  11.719 -0.3271  0.1091  0.1646
25879W        W44733  14.463   6.203  13.246  0.1023 -0.1862 -0.1975
25880W        W44734  13.624   7.407   3.722 -0.1704 -0.0995 -0.1270
25881W        W44735  11.621   1.615   1.179  0.1772  0.3262  0.0330
25882W        W44736  16.085   1.498  11.354  0.3042  0.2130  0.0369
25883W        W44737  16.880   6.498   3.420 -0.0579  0.1792  0.2084
25884W        W44738   9.488   5.225   4.956 -0.4751  0.1982  0.1342
25885W        W44739   0.138  15.454  14.003 -0.0518 -0.2007 -0.1195
25886W        W44740  11.599  10.719   3.318  0.2473 -0.1437 -0.3638
25887W        W44741  12.970  13.824  13.915 -0.1889  0.0548  0.0660
25888W        W44742  18.468   9.910  14.968  0.0288 -0.0464 -0.2224
25889W        W44743   3.865   1.215  10.563  0.0944  0.1306 -0.3188
25890W        W44744   9.347  16.438  13.708  0.0891  0.0886  0.1377
25891W        W44745   1.720   5.880  11.640  0.1205 -0.1926 -0.2271
25892W        W44746   9.818   3.746  10.926  0.2503 -0.1169 -0.2152
25893W        W44747   7.419  18.057   3.889  0.0566  0.1134 -0.0039
25894W        W44748   8.996  16.380   4.736 -0.0419 -0.2332 -0.2141
25895W        W44749  11.436   9.134  13.872  0.0246 -0.0344 -0.2128
25896W        W44750  18.096   7.698   3.638 -0.0536  0.1548  0.0497
25897W        W44751   7.079  16.600  15.301 -0.4343  0.1826 -0.0667
25898W        W44752  16.354   5.412   1.339  0.1241 -0.2392 -0.1236
25899W        W44753   4.166   7.948  14.413  0.0690  0.2693 -0.3809
25900W        W44754  12.399   5.903  14.247  0.1303 -0.1295  0.0830
25901W        W44755  16.351   3.756  10.516  0.0601  0.2782  0.0698
25902W        W44756   9.044   3.585   1.678  0.1020  0.0225  0.0135
25903W        W44757  17.647   8.956  14.162 -0.0739  0.3493  0.0829
25904W        W44758   5.159   2.535   2.924 -0.3414  0.1131  0.1612
25905W        W44759  13.942   1.906   2.320  0.1514 -0.1850 -0.2360
25906W        W44760   4.374   8.791  12.220  0.0309 -0.0043 -0.0880
25907W        W44761  16.017  11.959   1.392 -0.1380 -0.0442  0.1366
25908W        W44762   0.713   9.011  14.217  0.0736 -0.1290  0.0886
25909W        W44763  11.559  14.251  14.000  0.0102 -0.0671  0.0336
25910W        W44764   6.453  11.149  14.270 -0.0187 -0.0063  0.1002
25911W        W44765  15.417   3.495  12.396  0.2955 -0.1234  0.1927
25912W        W44766   1.720  14.433  12.022  0.3832  0.0142 -0.0355
25913W        W44767  15.385  10.003  14.227  0.2395 -0.1000 -0.2649
25914W        W44768   5.992  11.360   4.622 -0.0325 -0.0005 -0.2008
25915W        W44769   5.111  16.026  11.821 -0.1424  0.0413 -0.3126
25916W        W44770   0.202   0.334  14.533  0.0694  0.0461 -0.1076
25917W        W44771   8.627   5.778   4.124 -0.2375  0.1071 -0.0478
25918W        W44772  17.201   9.284   2.349 -0.0505  0.0092  0.2219
25919W        W44773   8.028   2.996  11.699 -0.1029  0.1864  0.2016
25920W        W44774  16.257  18.090   0.076 -0.2786  0.1012  0.0868
25921W        W44775  17.109  16.734   3.846 -0.0961 -0.0433 -0.0912
25922W        W44776  14.790  16.317   4.934  0.1653 -0.0026 -0.1695
25923W        W44777   1.180   8.839  11.904 -0.4613  0.1557  0.2126
25924W        W44778   2.761   6.977  13.954  0.0647 -0.2068  0.2130
25925W        W44779   3.019   1.207   9.769 -0.1300 -0.1483 -0.1257
25926W        W44780   1.744  14.423  10.623  0.1376 -0.3400 -0.0866
25927W        W44781  11.873  12.220   3.474  0.2402 -0.1478  0.1355
25928W        W44782  13.781   9.606  12.344  0.1355 -0.3077 -0.0138
25929W        W44783  11.737   8.881  12.263  0.2592 -0.1021  0.2330
25930W        W44784   8.079   7.308   2.199  0.1935 -0.1080 -0.0245
25931W        W44785   2.720   6.900   0.763 -0.1127  0.2171 -0.0616
25932W        W44786  18.525   7.516  13.360  0.2720  0.0498  0.0559
25933W        W44787  17.949   9.273  11.501  0.2716 -0.0019  0.0134
25934W        W44788   2.422  10.831  12.767 -0.1666 -0.1045  0.1918
25935W        W44789   3.656  15.174  14.816 -0.1175 -0.0683  0.0809
25936W        W44790  18.253  11.495   2.972  0.2230 -0.1834 -0.0113
25937W        W44791   4.149   3.135  10.035  0.0177 -0.1573  0.0311
25938W        W44792  16.789   6.688  12.333 -0.0681 -0.2339  0.1406
25939W        W44793  14.352  14.440   2.826  0.3621  0.1974 -0.0475
25940W        W44794   8.104  10.106   4.515 -0.0158 -0.1597 -0.0885
25941W        W44795   2.049  17.777   2.475 -0.4000 -0.2424 -0.0213
25942W        W44796   1.618  12.837   1.800  0.0688 -0.4030 -0.0773
25943W        W44797  17.492  11.418   0.692 -0.0922  0.0378  0.0387
25944W        W44798   4.254   6.474  10.941 -0.0602  0.1539 -0.4259
25945W        W44799  14.527   3.091  12.950 -0.1430 -0.1077  0.1178
25946W        W44800   1.753  10.283  11.430  0.1019  0.1314  0.5180
25947W        W44801  13.882  13.243  11.642 -0.0197 -0.2498 -0.0421
25948W        W44802  14.162   7.356  13.631 -0.0929  0.3221 -0.0953
25949W        W44803  13.771  17.567  13.517 -0.0838 -0.0143  0.0664
25950W        W44804   7.475  13.097   3.548 -0.2048 -0.2366  0.2313
25951W        W44805   7.923   1.488  14.900  0.2908 -0.0740 -0.0618
25952W        W44806  10.802  17.885  12.288  0.1086 -0.0930 -0.2829
25953W        W44807  17.502   2.677   4.015 -0.0657  0.0585  0.1735
25954W        W44808   8.978   7.159   5.403  0.1939 -0.2639  0.0393
25955W        W44809   5.579   2.429  13.865 -0.0147  0.0334  0.1990
25956W        W44810   3.766   9.818   3.208 -0.3878  0.0442 -0.4124
25957W        W44811  12.779  16.741  13.097  0.1582  0.2096  0.1665
25958W        W44812  18.553   3.159  10.682 -0.0165 -0.2388  0.2391
25959W        W44813   5.409  14.493   2.744 -0.0119  0.0970 -0.3059
25960W        W44814   6.468   7.850   2.695 -0.0086 -0.0333  0.2075
25961W        W44815   0.422  10.017  10.987  0.1139 -0.0266 -0.0531
25962W        W44816   8.193  15.528   3.480  0.1115  0.3350  0.5184
25963W        W44817   3.928   7.314  13.354 -0.0020 -0.0362 -0.0796
25964W        W44818   4.077   8.066   3.665  0.0649 -0.2956  0.3807
25965W        W44819   0.455  17.238   4.304  0.1151 -0.0319  0.2147
25966W        W44820   6.722  18.327   0.035  0.0142  0.0924  0.2820
25967W        W44821   0.867   6.768   4.554 -0.0107 -0.1746  0.0098
25968W        W44822   9.864  11.960   3.581  0.0529  0.1041  0.0508
25969W        W44823   4.279   6.795   3.028  0.2178  0.0762 -0.1722
25970W        W44824  11.580  12.494  14.980  0.4341  0.0308  0.0941
25971W        W44825   7.004   6.414   3.666 -0.1893 -0.0715 -0.0145
25972W        W44826  13.768  13.673  14.549  0.1893  0.2500  0.1622
25973W        W44827   4.460  17.368  14.928 -0.4487  0.0106  0.1036
25974W        W44828   9.830   1.093   0.095  0.2342 -0.0704 -0.1619
25975W        W44829   4.981   2.165  13.469  0.0284  0.1439  0.0815
25976W        W44830  11.801   5.062   1.580 -0.1583  0.0643  0.1853
25977W        W44831  11.078   5.453  13.811 -0.1393  0.1513  0.1315
25978W        W44832  17.953  17.003  11.126  0.2428 -0.1063  0.2273
25979W        W44833  10.328   0.844   1.473  0.2449  0.0656  0.0564
25980W        W44834  15.627   4.395   3.503  0.1912 -0.0710  0.2250
25981W        W44835  18.219   2.257  12.473  0.2796  0.1407 -0.3196
25982W        W44836   6.267   3.751   1.121 -0.1330  0.0232  0.2436
25983W        W44837   0.460  12.223   2.478  0.0459 -0.1785 -0.2257
25984W        W44838  16.960   4.025   4.643  0.1966  0.0720  0.1288
25985W        W44839  10.477   5.761  11.736 -0.0135 -0.3884  0.2006
25986W        W44840   1.964   6.602   1.132 -0.0949  0.0627  0.0910
25987W        W44841  12.376  10.499  13.711  0.0277  0.2574  0.1356
25988W        W44842  11.222  14.369  14.830 -0.1051 -0.0825 -0.2523
25989W        W44843   6.838  11.265  11.632  0.1339  0.2245 -0.0036
25990W        W44844   3.076  16.805   2.137  0.0653 -0.1564  0.0613
25991W        W44845   3.497   9.528   0.913 -0.2266 -0.1248  0.0409
25992W        W44846   2.604   6.961   4.183  0.0735 -0.2404  0.1786
25993W        W44847   2.311  11.949  13.396  0.1142 -0.2090 -0.0281
25994W        W44848  13.559   2.970  14.998 -0.1648  0.0437 -0.3216
25995W        W44849  12.290  16.595  13.261  0.2093 -0.2385  0.1022
25996W        W44850  17.095   2.109  13.394 -0.0341 -0.1064  0.1798
25997W        W44851   6.104  15.129  14.958  0.2982 -0.1123 -0.4546
25998W        W44852  14.095   5.336   4.281 -0.0139  0.2474  0.0311
25999W        W44853   6.666   2.651   3.447 -0.0540  0.1005  0.1277
26000W        W44854   5.579   9.930  12.109  0.3282  0.3310  0.1537
26001W        W44855  18.182   7.753   1.906  0.1153 -0.2790 -0.1126
26002W        W44856  11.463   3.514   4.703  0.2844  0.2258 -0.1039
26003W        W44857  11.919  17.005   1.471  0.2177 -0.3785 -0.0320
26004W        W44858   3.508  15.506   1.930  0.0347  0.1543  0.0838
26005W        W44859  16.173  13.948  12.826 -0.0130 -0.1212 -0.1241
26006W        W44860  10.490  13.843  12.460 -0.0143 -0.1684 -0.0952
26007W        W44861   5.346   3.852   0.978 -0.1763 -0.2051 -0.2104
26008W        W44862   9.160   1.930   2.001 -0.0539 -0.2113 -0.3690
26009W        W44863   0.983  12.189  11.197 -0.0305 -0.0816 -0.0012
26010W        W44864   3.668   4.775  13.625  0.1549  0.0679  0.1148
26011W        W44865  12.482   4.397   2.385 -0.3589  0.1388  0.2414
26012W        W44866  17.534   1.363   3.218  0.2710  0.1476  0.3336
26013W        W44867  12.016   5.251   1.116 -0.3805 -0.2004 -0.0057
26014W        W44868  14.115  11.387  12.036 -0.3322  0.1991 -0.1258
26015W        W44869  13.368   8.259  13.223  0.0014 -0.2216  0.0200
26016W        W44870  14.305  16.224   3.468 -0.0529 -0.0996 -0.0195
26017W        W44871  14.094   2.982   0.172 -0.0610 -0.0395  0.1149
26018W        W44872  15.204   5.663   0.478 -0.0500  0.1960 -0.0581
26019W        W44873   5.586   9.551  12.817 -0.1921 -0.0582 -0.3124
26020W        W44874   0.668   6.447   3.195 -0.3202  0.2478  0.4154
26021W        W44875  13.237   1.423  11.216  0.1073 -0.0195 -0.5610
26022W        W44876  16.241   2.981  12.837 -0.0339  0.1763  0.0741
26023W        W44877  10.466  14.424   1.135 -0.0235  0.2587  0.1830
26024W        W44878  16.170  12.230  15.068  0.0751  0.0510 -0.2763
26025W        W44879   6.251  12.702  11.663 -0.4505 -0.0206  0.3013
26026W        W44880  13.069   7.297   0.566 -0.1132 -0.1002  0.0089
26027W        W44881   5.049  13.340  13.847 -0.0204  0.4819  0.0241
26028W        W44882   0.339  16.350  12.873 -0.2446  0.0015 -0.1820
26029W        W44883   3.496   9.191  12.564  0.1149 -0.2951 -0.2002
26030W        W44884  13.991   5.547   1.535 -0.1997  0.4270  0.0887
26031W        W44885  17.600   8.264   3.928  0.0274  0.1585 -0.2171
26032W        W44886  14.083  15.932  15.050  0.1648 -0.1764  0.3003
26033W        W44887   1.355   9.477  13.664  0.4278 -0.0579 -0.2416
26034W        W44888   8.719   4.020  10.285 -0.0643  0.1663  0.0263
26035W        W44889  15.412  15.105   2.116  0.0635 -0.0403  0.2595
26036W        W44890   5.952  18.566   3.280  0.1049 -0.1216  0.0683
26037W        W44891  14.601  16.345   2.043  0.1445 -0.1171  0.3329
26038W        W44892   3.746  12.035  12.951 -0.0880  0.0298  0.0529
26039W        W44893   6.279   1.607   2.533  0.2243 -0.1047  0.3782
26040W        W44894  16.740   4.837   1.642  0.1934  0.0896  0.2981
26041W        W44895   7.293   7.800   3.183 -0.3224 -0.0086 -0.0128
26042W        W44896   3.465  18.298   2.530 -0.0248  0.0700 -0.2043
26043W        W44897   6.087   8.567   1.031  0.3479 -0.4920  0.0235
26044W        W44898  12.368   8.728  14.138 -0.3027 -0.0612  0.2797
26045W        W44899  16.643   2.412   0.964  0.1795 -0.0529  0.0891
26046W        W44900   3.897   0.526   1.317 -0.1448  0.1548  0.0311
26047W        W44901   1.977  15.538   9.745 -0.1142 -0.0114  0.0926
26048W        W44902   5.291   3.238  11.576  0.0172  0.0627  0.0111
26049W        W44903   7.356   4.164  13.987 -0.1911  0.1501 -0.1826
26050W        W44904   9.616  17.860  11.393  0.4740  0.2026  0.2590
26051W        W44905  15.413   1.486  11.909  0.1374 -0.2107 -0.1979
26052W        W44906   2.287  16.720  10.773 -0.0875 -0.1870 -0.0889
26053W        W44907   9.455   8.188   4.402 -0.0241 -0.4169  0.0725
26054W        W44908  15.241   0.188  14.331  0.3287  0.0609  0.1451
26055W        W44909   5.377   9.080  13.751  0.0088  0.1661  0.1084
26056W        W44910  17.817   8.403   0.177  0.2267 -0.1497 -0.3413
26057W        W44911  11.515  18.483   1.716  0.0778 -0.3019 -0.2711
26058W        W44912   9.160   4.861  14.103  0.0390 -0.0537 -0.0969
26059W        W44913   0.500   9.929  14.280 -0.1136  0.2300  0.1287
26060W        W44914   9.347   4.631  12.957  0.3341  0.1209  0.1610
26061W        W44915   6.098  17.277   1.345 -0.1378 -0.1633  0.0278
26062W        W44916  17.168  15.493  13.086  0.0438  0.0452  0.1774
26063W        W44917   2.992  18.131  14.743  0.3281  0.2695 -0.0850
26064W        W44918   3.372  14.265   1.565  0.1024 -0.0982 -0.1107
26065W        W44919   8.063  18.303  10.718 -0.1087  0.0583 -0.0902
26066W        W44920   1.952   9.443   4.543 -0.1032 -0.1767 -0.3758
26067W        W44921  16.413  17.998  10.224  0.2676 -0.0238  0.1982
26068W        W44922  17.955  15.189   1.346 -0.0837  0.1399  0.1022
26069W        W44923  11.444   9.171  12.550  0.2600 -0.1347  0.3445
26070W        W44924   2.354  14.148  13.372 -0.1876 -0.1868 -0.0878
26071W        W44925   9.251  14.779   1.171  0.2455 -0.1862 -0.2540
26072W        W44926   3.571   9.009  15.081  0.3133  0.1201  0.0942
26073W        W44927   5.334  10.631   0.120 -0.1564  0.0174  0.0497
26074W        W44928  12.078  17.054   4.208 -0.0688  0.0313  0.4488
26075W        W44929  12.093  11.620  12.848 -0.3483 -0.1721  0.1302
26076W        W44930  15.201  17.669  11.036  0.0981  0.3362 -0.0103
26077W        W44931   5.211   0.610   3.153  0.1126 -0.2518  0.0905
26078W        W44932   4.536   5.404  13.296  0.3325  0.0796 -0.1721
26079W        W44933   5.852  13.707  14.678  0.2304  0.0321  0.2401
26080W        W44934   3.154   6.847  11.287 -0.3473 -0.0823 -0.1705
26081W        W44935   9.084  17.455   0.720 -0.0911  0.1250  0.1990
26082W        W44936  14.321   8.487   1.017  0.0799  0.1065  0.0118
26083W        W44937   1.888  14.854   3.927 -0.0878 -0.2098 -0.2085
26084W        W44938   5.352  16.598  11.066 -0.1893  0.2331 -0.0742
26085W        W44939   1.515  14.497  13.970 -0.0217  0.1521  0.0817
26086W        W44940   3.134   9.436   4.616  0.0441  0.1635  0.2311
26087W        W44941   5.446   5.070  13.122 -0.2922  0.0669  0.1515
26088W        W44942   9.823  11.439   3.212  0.1946  0.5336 -0.2765
26089W        W44943  13.396   5.393   3.040  0.3194 -0.1253 -0.3182
26090W        W44944  16.225   6.328   2.625 -0.0036  0.0026  0.0965
26091W        W44945   0.589  18.264   0.635 -0.0449  0.0785  0.0425
26092W        W44946  13.047   4.838  13.553  0.3905 -0.0204  0.1907
26093W        W44947   2.729   1.107   3.572  0.1486 -0.0545 -0.1590
26094W        W44948   6.475   2.680  12.469 -0.1323 -0.0540 -0.0272
26095W        W44949   6.991  13.986   3.711  0.0122 -0.1251 -0.1331
26096W        W44950   4.006  15.605   3.610 -0.3356  0.0174  0.0582
26097W        W44951   5.423   1.836   2.013 -0.1184 -0.2385 -0.2308
26098W        W44952   4.293   7.015  12.098  0.2524  0.1673 -0.1069
26099W        W44953   4.235   4.108  13.571 -0.1791  0.2031 -0.1772
26100W        W44954   1.976   4.581  13.828 -0.1349  0.1424 -0.2275
26101W        W44955  10.570   6.627  13.055 -0.0938 -0.3493  0.0127
26102W        W44956  16.215   7.038   3.795  0.2140 -0.2083 -0.0134
26103W        W44957   3.599   8.226   3.665 -0.1585 -0.0144  0.0213
26104W        W44958   5.377  17.292   1.345 -0.4841  0.0881 -0.0198
26105W        W44959   5.087  10.465   2.032  0.2806 -0.1201  0.0090
26106W        W44960   8.618  12.458   4.134  0.0669  0.1783 -0.0431
26107W        W44961  14.077   7.653   3.948  0.0196 -0.4266 -0.0072
26108W        W44962   3.446  15.806   1.513  0.2593  0.0559 -0.3203
26109W        W44963   3.961   5.303   2.801 -0.2549 -0.3729 -0.0319
26110W        W44964  13.526   1.716  11.555  0.0247  0.0787  0.0696
26111W        W44965  15.321  17.870  12.098  0.1064 -0.0438  0.0157
26112W        W44966   0.480  14.358  10.488  0.0648 -0.1374  0.0171
26113W        W44967   4.182  14.167   4.362 -0.1013  0.0340  0.0830
26114W        W44968  13.892  16.788  10.051 -0.0413 -0.0000  0.0538
26115W        W44969  10.088   6.895  15.168  0.1946  0.2906 -0.1410
26116W        W44970  12.182   0.410  15.105 -0.0681  0.0443  0.1340
26117W        W44971  17.339   6.082   0.843 -0.1045  0.0641 -0.0148
26118W        W44972   3.653   0.894  10.915  0.0856 -0.1272  0.2610
26119W        W44973  14.969   0.023   4.032  0.3294  0.0201 -0.2039
26120W        W44974  14.060  13.858   5.602 -0.1399 -0.1649 -0.0488
26121W        W44975  15.739   3.185  10.932  0.0112 -0.0242  0.0924
26122W        W44976   8.372   2.701   4.512  0.0592 -0.0948 -0.1877
26123W        W44977   2.001   9.417   4.057  0.0787  0.1197 -0.0308
26124W        W44978  11.492   8.738   3.767  0.2579 -0.2377  0.0513
26125W        W44979  13.355  10.903  12.334  0.1814 -0.1446  0.1648
26126W        W44980  12.265   2.669   2.311  0.0407  0.0784  0.1091
26127W        W44981   8.830   0.828   0.664  0.2701  0.2353  0.2974
26128W        W44982  11.919  13.679   5.745  0.0517  0.1846 -0.1432
26129W        W44983  11.326  14.691   5.288  0.2040 -0.1646 -0.1681
26130W        W44984  17.701   7.585   1.644  0.3279 -0.1032  0.1490
26131W        W44985  15.327   7.584   2.622 -0.0210 -0.1492  0.0284
26132W        W44986  18.018   8.116  13.945  0.2125  0.3462 -0.1222
26133W        W44987  14.941  17.140   1.488 -0.1179 -0.0517 -0.0494
26134W        W44988  15.832   0.630   1.851  0.1257 -0.0158 -0.1671
26135W        W44989  12.516  18.407  12.489 -0.3294  0.1751  0.1280
26136W        W44990   8.852   2.640  15.111 -0.3484  0.0742  0.0506
26137W        W44991  15.243   8.180   3.547  0.1098  0.0363  0.0812
26138W        W44992   3.861   5.853   2.822  0.1177 -0.0225  0.0812
26139W        W44993  17.803  11.509   1.092  0.3538  0.0689  0.1430
26140W        W44994  13.060   9.915   3.218 -0.1034  0.0454 -0.0403
26141W        W44995  13.496   4.818   4.238  0.2188 -0.0709 -0.0088
26142W        W44996  10.955  14.049  14.581 -0.0928 -0.1878  0.4071
26143W        W44997  10.540  11.394  12.261 -0.1221  0.1237 -0.0804
26144W        W44998  14.158   1.492  12.049 -0.1809 -0.0061 -0.1744
26145W        W44999  13.588  10.650   3.940  0.0980  0.0718 -0.1474
26146W        W45000  15.936   4.951  14.829 -0.3883  0.1071 -0.1034
26147W        W45001   0.432   6.213  10.945 -0.2545  0.1261  0.3092
26148W        W45002   7.212  10.140   0.990  0.0214 -0.2642 -0.1992
26149W        W45003  16.566  10.403  15.041  0.2803 -0.1582  0.2728
26150W        W45004   4.542   8.780   0.149 -0.5452  0.0815  0.0912
26151W        W45005   4.950  18.081   1.739 -0.2433 -0.1822 -0.0122
26152W        W45006   9.745   7.027   4.758 -0.0474  0.0204 -0.0981
26153W        W45007   8.881  13.966  14.479  0.0872 -0.2361  0.0546
26154W        W45008   0.969   7.027  11.022 -0.2702 -0.0934 -0.1969
26155W        W45009  15.205  15.119  14.776 -0.0795 -0.1261 -0.0851
26156W        W45010  16.193  13.799  14.113  0.2092  0.1143 -0.0307
26157W        W45011   7.616   0.674   3.242  0.1279 -0.3800  0.0504
26158W        W45012   0.980  15.736  11.936 -0.1733  0.0529  0.1362
26159W        W45013   2.450  15.550   4.405 -0.1439  0.0452 -0.0062
26160W        W45014   2.049  12.432   4.268 -0.1131  0.0259 -0.2580
26161W        W45015  15.254  14.035  12.459 -0.1172  0.2154 -0.1087
26162W        W45016   5.396  12.979  13.982  0.2963  0.0991  0.3633
26163W        W45017  14.725   2.661   0.945 -0.0997  0.0996 -0.0401
26164W        W45018   0.363   3.849  13.678  0.0112  0.3234  0.0846
26165W        W45019  17.766  12.581   4.346 -0.2146  0.0440 -0.2279
26166W        W45020   6.294   5.708   4.493 -0.2101 -0.0747  0.0987
26167W        W45021  14.031   3.291   3.377  0.4763 -0.1735 -0.1604
26168W        W45022  17.667  12.080   4.260  0.2062 -0.1041 -0.3976
26169W        W45023   3.521   4.772   1.687 -0.2724 -0.1035  0.0312
26170W        W45024  17.822   8.509  14.138 -0.0532 -0.1828 -0.3248
26171W        W45025   0.399  15.664   1.147  0.1336 -0.1603  0.1271
26172W        W45026   0.866   9.061  12.783  0.0642 -0.2563 -0.2402
26173W        W45027  10.417   0.345  15.216  0.1665  0.0134  0.0599
26174W        W45028  12.261  15.676   5.048 -0.0131  0.0170 -0.0344
26175W        W45029   1.272   6.086  11.819 -0.2409  0.0151 -0.1642
26176W        W45030   8.874   9.317  13.171  0.4094 -0.0832  0.2726
26177W        W45031  17.535   9.412  15.070 -0.0206  0.0421  0.0803
26178W        W45032  11.497   2.200   1.207  0.1830 -0.0120 -0.0728
26179W        W45033  13.598   7.560  11.655 -0.4846 -0.1110 -0.1275
26180W        W45034   5.916  15.983  14.665  0.1143  0.0125  0.2304
26181W        W45035  17.189  13.258  13.340  0.0419  0.1248  0.0062
26182W        W45036   5.303   0.711  12.200 -0.0586  0.2279 -0.0291
26183W        W45037   1.337   5.010  15.052 -0.1594  0.2468 -0.0563
26184W        W45038  11.275   3.666  14.055 -0.1660 -0.3891 -0.0238
26185W        W45039   0.488   3.562   4.487  0.0695 -0.2906  0.1209
26186W        W45040  18.097  11.796   0.135 -0.0893 -0.1120 -0.1148
26187W        W45041   7.926   0.509  15.317 -0.1760 -0.0351  0.0969
26188W        W45042   5.485   6.298   4.426 -0.0292  0.1780  0.0816
26189W        W45043   2.645   0.837  14.875 -0.2871 -0.2010  0.0688
26190W        W45044  15.471   2.738   9.785 -0.0951  0.0164 -0.1229
26191W        W45045  16.306   0.905   3.286  0.3846  0.0464  0.0420
26192W        W45046   3.815  14.308  11.020  0.0297 -0.2362  0.0974
26193W        W45047  10.908  13.942  11.569 -0.2941 -0.0832 -0.1036
26194W        W45048  15.864  12.440   2.160  0.2824 -0.3732 -0.0678
26195W        W45049   5.855   3.991  14.337 -0.2687 -0.1553 -0.0856
26196W        W45050   5.374   8.501   0.178  0.1548 -0.0315  0.1169
26197W        W45051  12.246  12.284  14.946 -0.4067 -0.1111 -0.1130
26198W        W45052  14.702  10.174   0.588  0.3656 -0.3292 -0.0465
26199W        W45053  12.201  10.284   5.194  0.0145  0.0597 -0.0646
26200W        W45054   1.982   7.763  13.147 -0.2499  0.0285 -0.0522
26201W        W45055  12.262   5.025  11.669 -0.0451 -0.3714  0.0397
26202W        W45056   6.120  13.161   1.150  0.0633  0.1731 -0.1628
26203W        W45057  17.908  17.866   1.551  0.1528 -0.2304 -0.3775
26204W        W45058  13.029   1.441   3.293  0.4684  0.1520 -0.0695
26205W        W45059   3.135  15.828   0.510 -0.0525 -0.1024 -0.3259
26206W        W45060   5.830   3.907  13.209 -0.0828 -0.0908 -0.2839
26207W        W45061   3.145  14.603   2.420 -0.1177  0.1174  0.0348
26208W        W45062   7.807   2.012  14.428 -0.0841 -0.0839  0.1027
26209W        W45063  18.407   8.345   0.047  0.0286 -0.2908 -0.0153
26210W        W45064   9.210  12.158   1.279 -0.0531  0.0952  0.3170
26211W        W45065   8.581   5.776  13.105 -0.1471  0.2241 -0.2210
26212W        W45066  12.356  13.903  13.983 -0.0702  0.1259  0.1646
26213W        W45067  18.092   8.836   0.087 -0.1778  0.1496 -0.0054
26214W        W45068   3.068  16.549  11.349  0.0333  0.1050 -0.0334
26215W        W45069   9.551  13.708   3.957 -0.0904 -0.1806 -0.1794
26216W        W45070   7.742   5.456   0.612 -0.0022  0.1053 -0.2073
26217W        W45071   7.691   4.710  14.584 -0.2160 -0.1612  0.0564
26218W        W45072   1.162  17.579  12.088 -0.1104  0.0822 -0.0658
26219W        W45073  11.973   7.815  13.620 -0.3008  0.0945 -0.0016
26220W        W45074  13.342   3.229  11.696  0.1642 -0.0650 -0.0324
26221W        W45075   8.092   6.551   3.736  0.0404 -0.1155 -0.0808
26222W        W45076  18.042   8.811  10.974 -0.1531 -0.0274  0.0003
26223W        W45077  11.493   6.694  12.911  0.0500  0.1689  0.1478
26224W        W45078  13.406   0.742  11.530 -0.4769  0.0650  0.1443
26225W        W45079   1.440  14.777   0.555  0.1069  0.0232  0.3313
26226W        W45080   7.876  12.295  14.260  0.0407 -0.2733 -0.1152
26227W        W45081   7.953   9.977  15.315  0.0608  0.2296  0.1862
26228W        W45082  12.282  13.644   3.955 -0.1077  0.4450  0.0328
26229W        W45083  11.603  10.938   4.494  0.1849 -0.0529  0.2289
26230W        W45084  12.807  16.031   1.975 -0.0014 -0.0371  0.0021
26231W        W45085  16.924  12.758   1.424  0.1035 -0.1917  0.1475
26232W        W45086   4.337   4.688   0.858 -0.1772  0.0325  0.4234
26233W        W45087  12.336   0.289   0.275  0.2080  0.1630  0.0699
26234W        W45088   6.796   5.941   0.158 -0.0334 -0.1546 -0.0238
26235W        W45089   8.287  14.085  12.209 -0.1124 -0.1748 -0.3993
26236W        W45090  10.600  12.530   1.536  0.0271  0.2255  0.0941
26237W        W45091  16.592   4.314  14.363  0.1811 -0.0434  0.0486
26238W        W45092   3.846   6.532  10.574  0.2665 -0.0688 -0.3247
26239W        W45093   1.564  12.288   5.324 -0.2707 -0.2794 -0.2922
26240W        W45094  18.165   1.927  15.426  0.2809 -0.1341 -0.0969
26241W        W45095   6.632   8.051  15.297 -0.1721  0.0056 -0.1157
26242W        W45096   6.771  11.966   2.239 -0.0185 -0.1522  0.1270
26243W        W45097   4.989   2.426  10.050  0.0981  0.0480 -0.1415
26244W        W45098   6.073  10.057   1.702  0.1106  0.2933  0.1469
26245W        W45099  12.114  18.080  12.448  0.0322  0.1769 -0.1871
26246W        W45100   2.336   9.681  13.619 -0.1119  0.0889 -0.0162
26247W        W45101   9.938   2.336   3.992 -0.0805 -0.0606 -0.1984
26248W        W45102   8.813   7.151   2.644  0.2525  0.3076  0.2485
26249W        W45103  11.287   2.840  11.446  0.0514  0.3484 -0.3365
26250W        W45104   8.948   6.939  13.068  0.0031  0.2301 -0.0285
26251W        W45105  15.814  12.666   3.409 -0.2457  0.1865 -0.0404
26252W        W45106   1.270  18.500  15.286 -0.0466 -0.2255 -0.0538
26253W        W45107   2.950   1.806  13.362 -0.0611  0.0133  0.0168
26254W        W45108   2.267  12.586  13.994 -0.1658 -0.1333  0.1085
26255W        W45109   4.821   9.215  14.394  0.3330 -0.0281  0.0553
26256W        W45110  17.617  16.610   4.537 -0.0434  0.0394 -0.0490
26257W        W45111   2.307  16.879   3.185 -0.3048  0.1354  0.1681
26258W        W45112   3.687   3.565   5.480 -0.0862  0.1118 -0.1294
26259W        W45113  17.268   5.841  14.374 -0.2626 -0.0349  0.0633
26260W        W45114   3.735   4.735  14.213 -0.0772  0.1674 -0.1120
26261W        W45115  15.967   1.588   4.460 -0.2125  0.0234  0.2522
26262W        W45116   1.613   1.587  14.259  0.1119  0.0053 -0.1080
26263W        W45117   3.533   7.240   3.423 -0.1540  0.0500 -0.2209
26264W        W45118  11.469  13.550  13.270 -0.2543  0.0721  0.0986
26265W        W45119  17.146  10.804   4.023  0.1124 -0.1264  0.0048
26266W        W45120  13.416   6.564  10.561  0.1870 -0.1088  0.2658
26267W        W45121  14.430   1.702   2.172 -0.3177 -0.0350 -0.0538
26268W        W45122  14.892   3.702  12.464  0.3236  0.0657 -0.2502
26269W        W45123   1.336   4.406   0.017 -0.0721 -0.1313 -0.3452
26270W        W45124   4.431   9.274  12.072 -0.0104  0.0682 -0.0563
26271W        W45125   7.363   1.151  13.249 -0.1892  0.1077  0.1304
26272W        W45126  18.177   3.528  14.684  0.1330  0.2678  0.0284
26273W        W45127   7.526  10.488   1.144 -0.0352 -0.0899 -0.1154
26274W        W45128  16.325   2.649  13.224 -0.1579 -0.0023  0.0122
26275W        W45129   3.100   1.415   1.651 -0.0750  0.2339 -0.0026
26276W        W45130   9.496  12.460   4.391 -0.0201  0.2547  0.0584
26277W        W45131  16.928  14.079   1.602  0.1616  0.3971 -0.0766
26278W        W45132  10.360   3.353   2.101 -0.0847  0.0037 -0.1059
26279W        W45133  13.470   1.507   3.537  0.0931  0.1610  0.0132
26280W        W45134   6.195   4.196  12.286 -0.1299  0.0541  0.1751
26281W        W45135   1.046   8.973  13.825 -0.2257 -0.0338  0.0663
26282W        W45136  17.642   6.419  14.800 -0.4005  0.1579 -0.0270
26283W        W45137   4.984   9.335   1.421  0.0374 -0.2021  0.1105
26284W        W45138  15.402   7.954   0.120 -0.0931  0.1877  0.0399
26285W        W45139  11.941   9.244  12.609  0.1001  0.0400 -0.3812
26286W        W45140  16.090  10.157  12.047  0.0104 -0.2106  0.2724
26287W        W45141   2.517   7.453   4.412 -0.0063  0.0525 -0.0340
26288W        W45142   7.697   2.230  12.000 -0.0119 -0.2711  0.0859
26289W        W45143  11.115  15.300   0.595  0.1776  0.2170 -0.0356
26290W        W45144  17.547  16.379  15.303 -0.1913 -0.0231 -0.0058
26291W        W45145   2.445  12.753  12.944  0.0954  0.0461 -0.2509
26292W        W45146  17.658   9.217  13.695  0.2308 -0.1402  0.3132
26293W        W45147   3.705   8.735   4.475 -0.1838  0.1933 -0.1311
26294W        W45148   8.152   3.541  13.133 -0.5915 -0.0236  0.0611
26295W        W45149  10.005   2.352   4.504  0.0069  0.0396  0.2606
26296W        W45150  18.429   4.832   4.192  0.1176 -0.0228 -0.0861
26297W        W45151   0.679   9.106  12.336  0.1807  0.4684 -0.1761
26298W        W45152   5.116   1.732   3.010 -0.1846  0.1530 -0.1837
26299W        W45153   0.779   3.574  13.625  0.0615 -0.0150 -0.0323
26300W        W45154  12.852   8.973  13.771 -0.2682  0.0483  0.0095
26301W        W45155   8.912  13.232  12.064 -0.4831 -0.0767 -0.1696
26302W        W45156   0.085  15.919  10.699 -0.2985  0.0915  0.3789
26303W        W45157  17.536  17.000  14.867 -0.0175 -0.1438 -0.2490
26304W        W45158  14.185   7.452  11.006 -0.0143  0.1783 -0.0025
26305W        W45159  15.139  13.325   2.331 -0.0661 -0.3165  0.3262
26306W        W45160  14.029  18.150  14.304  0.1095  0.2195 -0.2919
26307W        W45161   3.672  16.139  14.425 -0.1699 -0.2673  0.0268
26308W        W45162   5.522  13.531  12.814  0.1654 -0.0899 -0.1018
26309W        W45163   4.020  18.503   1.543  0.0769 -0.1082 -0.0720
26310W        W45164   3.548  18.007   0.402 -0.2853 -0.0314 -0.1419
26311W        W45165   4.838   0.310  11.385  0.3028  0.0751  0.0817
26312W        W45166   1.907  12.393  12.029 -0.1284 -0.0391  0.0814
26313W        W45167   9.456  16.253   1.295 -0.4564 -0.1276  0.0169
26314W        W45168   0.630   2.059   3.578 -0.0072  0.2217  0.3852
26315W        W45169   1.011  14.882   1.805  0.0194  0.2793 -0.0758
26316W        W45170   4.997   1.143  13.772 -0.0080  0.1051  0.2851
26317W        W45171   3.142   7.616   1.482  0.5951 -0.1378  0.2248
26318W        W45172  10.483   1.355   4.506 -0.0445 -0.3271  0.1071
26319W        W45173   9.796  10.196   3.858 -0.0699  0.2307 -0.0736
26320W        W45174   0.652   9.750   0.947 -0.0917 -0.3745 -0.0729
26321W        W45175  14.276   3.321   4.068 -0.0282  0.2079 -0.0170
26322W        W45176  17.630   2.765  15.097  0.2331  0.2418 -0.1013
26323W        W45177  15.347  13.639  15.379 -0.0470  0.0140 -0.0213
26324W        W45178  15.837   3.320  12.168  0.0134  0.1423 -0.0216
26325W        W45179  15.783   2.410  13.908 -0.1793  0.2838 -0.2369
26326W        W45180  10.777  17.006  15.287  0.0393  0.1556 -0.0677
26327W        W45181   1.438  17.864   1.156  0.3163  0.0893  0.4044
26328W        W45182   2.540   4.542  13.806  0.2233  0.2909  0.5922
26329W        W45183   0.063   8.698  14.848 -0.0257  0.5075 -0.2983
26330W        W45184  15.372  14.259  14.245 -0.0926  0.0888  0.3918
26331W        W45185  16.078   0.701   0.902  0.1191  0.0359 -0.0268
26332W        W45186   9.509  11.482   4.372 -0.2282  0.1889 -0.1635
26333W        W45187  13.179   2.613   4.814 -0.3768 -0.4355 -0.0808
26334W        W45188   5.770  10.701   0.348 -0.0700  0.1513 -0.0555
26335W        W45189   0.849   4.948   3.893  0.0485  0.2824  0.1484
26336W        W45190  16.703   7.792  15.337  0.1263 -0.3161  0.0706
26337W        W45191  13.565   3.664  11.451  0.1581 -0.2462 -0.2665
26338W        W45192   3.154   8.782  11.694  0.0578 -0.1698 -0.3964
26339W        W45193   8.519   1.316   4.180 -0.2266  0.1447  0.0985
26340W        W45194  14.765  13.748  13.003  0.1021  0.0066 -0.0979
26341W        W45195  15.744   6.722   1.804  0.0930 -0.2905 -0.1608
26342W        W45196  13.355  11.459   4.538  0.2261 -0.1912 -0.3300
26343W        W45197  13.655   5.225  14.340  0.1094  0.1469 -0.1488
26344W        W45198   2.624  11.395  11.084 -0.0540 -0.0381  0.0909
26345W        W45199   1.724  13.357   3.930 -0.2142  0.0311 -0.0979
26346W        W45200   0.682   1.988   4.830 -0.0954  0.1057 -0.1834
26347W        W45201  13.760  14.551   0.822  0.0611 -0.0063 -0.2956
26348W        W45202  11.543   0.029  14.055 -0.2512  0.1478 -0.2220
26349W        W45203  10.112   0.961   4.199 -0.0428 -0.0948  0.3796
26350W        W45204  11.960   8.998   2.982  0.0572 -0.1212 -0.0142
26351W        W45205  12.193   4.965   0.140  0.1358 -0.0888 -0.1571
26352W        W45206  18.390  18.412   0.438  0.0128 -0.2670 -0.1213
26353W        W45207   7.495  18.343   3.097  0.2813  0.0408  0.0997
26354W        W45208   6.352   3.668  12.377 -0.3506  0.0878 -0.1201
26355W        W45209  18.458   5.903  14.830  0.1635 -0.4085 -0.1891
26356W        W45210   0.143  15.026   2.532 -0.2272  0.0636  0.2794
26357W        W45211  10.062  10.622   3.777  0.0848  0.2599  0.1889
26358W        W45212  14.751   5.695  14.556 -0.1149 -0.0170 -0.0229
26359W        W45213   9.200  17.278  13.477 -0.3453 -0.0892 -0.0904
26360W        W45214   0.699  17.426  13.604 -0.1821 -0.3918  0.0929
26361W        W45215  18.026   6.591   1.452  0.2716  0.0385  0.0951
26362W        W45216  14.218  16.120  14.601 -0.0265 -0.0609  0.0099
26363W        W45217   7.961   1.434  13.608  0.2722  0.0867  0.0631
26364W        W45218  10.184   1.585   3.302 -0.0122  0.1145  0.1998
26365W        W45219  17.543   2.820  12.720  0.3126  0.1352 -0.0552
26366W        W45220   4.876   8.680   2.419  0.0996 -0.1988 -0.0718
26367W        W45221   3.355   0.433   1.169 -0.0655  0.0861 -0.0759
26368W        W45222  15.458  11.888   0.227  0.0728 -0.0409 -0.1860
26369W        W45223  10.979  18.125  14.906  0.0361  0.2383  0.1419
26370W        W45224   4.052  17.273   0.870 -0.1638 -0.1134 -0.4487
26371W        W45225   7.728   6.797   2.057  0.2070 -0.0913 -0.0147
26372W        W45226   0.095   3.113  12.058 -0.0142  0.0389 -0.1056
26373W        W45227   3.259   4.585  14.032  0.0733  0.0366  0.3925
26374W        W45228   6.813  16.080   3.279 -0.1425  0.1559  0.0171
26375W        W45229  16.456   9.210  12.248 -0.2255 -0.0342 -0.1370
26376W        W45230  13.702   4.424  12.852  0.0090 -0.2206 -0.0993
26377W        W45231   3.986   0.474   3.566 -0.2367  0.1497 -0.3422
26378W        W45232   6.401  14.689   1.164 -0.0901 -0.1278 -0.0053
26379W        W45233  11.192  13.743   5.079 -0.3583  0.2065  0.1650
26380W        W45234   5.525  17.026  14.194 -0.2437  0.1195  0.0095
26381W        W45235  15.758  18.186   0.101 -0.0744  0.1929 -0.0233
26382W        W45236   5.214  16.592  14.467  0.0783 -0.0344  0.0014
26383W        W45237   4.756  15.375   5.355  0.1931 -0.1970 -0.2142
26384W        W45238  12.867   6.007   1.670 -0.1627  0.1329 -0.1573
26385W        W45239  14.464   6.514  14.022  0.2705 -0.2096 -0.2130
26386W        W45240   8.885  15.419  12.667 -0.1979 -0.0192 -0.1413
26387W        W45241  17.414  15.913  13.263 -0.1291 -0.1401 -0.2124
26388W        W45242   7.364  15.279  13.538 -0.1345 -0.0282  0.1623
26389W        W45243  16.420   8.023  11.861  0.1634 -0.1710  0.0474
26390W        W45244  18.232   3.722  15.199  0.0103  0.1133 -0.1082
26391W        W45245  13.504  18.463  11.916 -0.2342  0.0223 -0.2031
26392W        W45246  13.123   9.214   2.225 -0.0908  0.0720 -0.1053
26393W        W45247  16.330   2.898   0.815 -0.2246  0.0698  0.0100
26394W        W45248  11.882   6.376   2.399 -0.2025  0.1751 -0.0498
26395W        W45249   0.668   1.134  14.992 -0.0576  0.0402 -0.0175
26396W        W45250  18.192   5.322  15.439  0.0058 -0.1335  0.4371
26397W        W45251  13.340   4.278   5.662 -0.1160 -0.3011  0.1143
26398W        W45252  14.929  12.342  13.324  0.3049  0.1312  0.0852
26399W        W45253  17.365   9.947  15.352 -0.1174  0.0314 -0.0485
26400W        W45254   5.096   6.643   0.896 -0.1280 -0.0971 -0.1981
26401W        W45255  12.698   5.367  11.616  0.0086 -0.1208 -0.2228
26402W        W45256   1.817  13.622   2.456 -0.1642 -0.1624 -0.0621
26403W        W45257  12.536   0.239   2.154  0.0550  0.0011  0.0745
26404W        W45258  10.904   8.456   2.466 -0.2521  0.0577  0.1498
26405W        W45259  13.155  16.411  12.995 -0.4568  0.1877 -0.1934
26406W        W45260   1.536  18.032   0.645  0.1268  0.0129  0.1026
26407W        W45261  11.821   9.455  11.433 -0.0280 -0.0494  0.0016
26408W        W45262  11.804   5.333  11.469 -0.0938  0.1382  0.0462
26409W        W45263   0.297   8.534   1.738  0.0292  0.1491  0.0822
26410W        W45264   7.626   6.401  11.900 -0.0868 -0.2695 -0.2392
26411W        W45265   5.333   7.216   2.337 -0.1022 -0.0370 -0.0425
26412W        W45266   7.935  15.046   2.876  0.2946  0.2253  0.3066
26413W        W45267  12.401   7.937  11.353  0.0009  0.1374 -0.5024
26414W        W45268   4.461   2.510   0.650 -0.2275  0.1649  0.1718
26415W        W45269   8.225   8.399  14.452  0.2067  0.0210 -0.0300
26416W        W45270   3.844   5.942  14.286 -0.2828  0.1570  0.0996
26417W        W45271   6.201   5.783  14.898  0.2913 -0.3277  0.1941
26418W        W45272   1.628  15.524   2.478 -0.1028  0.2302  0.0290
26419W        W45273   4.734  10.764  11.100 -0.1082 -0.1538  0.1845
26420W        W45274  11.019  18.080   3.954 -0.2202 -0.3722 -0.0025
26421W        W45275   5.564   6.831   5.035 -0.3099 -0.0191 -0.1922
26422W        W45276   7.083   9.276   5.407  0.2051 -0.0467  0.1624
26423W        W45277  11.516   8.067  14.621  0.1043  0.1754 -0.3994
26424W        W45278   6.630   4.884   2.127 -0.1795  0.0616 -0.1853
26425W        W45279  11.950   3.875  13.562 -0.1795  0.2829  0.1163
26426W        W45280   3.102  15.237   3.431  0.0250 -0.3810 -0.0700
26427W        W45281   8.906   2.170  13.047  0.1568 -0.1036  0.1425
26428W        W45282   6.321   2.212   4.672 -0.1462 -0.1801 -0.2209
26429W        W45283   8.907   3.685  13.770  0.2530  0.1169 -0.0901
26430W        W45284   9.271  10.870   4.266 -0.0309 -0.0381 -0.0606
26431W        W45285  10.715   2.103   3.856  0.0600 -0.4124  0.1146
26432W        W45286   7.991  11.267  13.126 -0.2434  0.2103 -0.3284
26433W        W45287   1.076   1.510   1.426  0.2931  0.1949  0.0578
26434W        W45288  12.539  13.792   2.873  0.0682  0.2233  0.1785
26435W        W45289  10.994  14.854   4.397  0.0601 -0.1642 -0.0695
26436W        W45290   8.739  13.386   0.354  0.0229 -0.0717  0.3452
26437W        W45291  16.377  14.089   0.762  0.4615 -0.0029 -0.0385
26438W        W45292  12.198   9.146   2.037  0.0123 -0.0987  0.2296
26439W        W45293  17.878   3.329   3.655 -0.1539 -0.1458  0.0009
26440W        W45294  11.439  15.219   2.638 -0.1362 -0.2432  0.2580
26441W        W45295   0.618   0.777  15.371 -0.0828 -0.0922  0.0423
26442W        W45296   0.900  11.988  12.148  0.0927  0.1869  0.0222
26443W        W45297  13.042   1.503   1.267 -0.1211 -0.0227  0.0293
26444W        W45298  17.956   5.257   1.262  0.0272  0.0820  0.1307
26445W        W45299   2.815   3.753   2.150  0.1086  0.1032  0.2340
26446W        W45300  11.020   0.385   5.314 -0.1547  0.0823  0.0265
26447W        W45301   8.649  16.210   0.227 -0.0726  0.2744 -0.0342
26448W        W45302   7.282   1.341  13.726 -0.0510 -0.0997 -0.0536
26449W        W45303  15.344  15.343  14.345  0.1978  0.2793 -0.1837
26450W        W45304  14.088   9.319  13.927  0.1592  0.1701 -0.2242
26451W        W45305  16.506  12.360  10.899  0.1914 -0.2451 -0.0185
26452W        W45306  15.259   7.501  11.406 -0.0406  0.3795  0.1835
26453W        W45307  10.545  17.687  11.867  0.1853 -0.0349  0.0889
26454W        W45308  13.546   2.928  14.507 -0.2870 -0.0216 -0.4278
26455W        W45309   0.068  10.138  14.464 -0.0643 -0.2635  0.0316
26456W        W45310  12.943  16.026  15.253 -0.2068 -0.0340  0.1312
26457W        W45311  13.276   0.272   3.142 -0.2537 -0.1906 -0.0474
26458W        W45312  11.389  16.932   4.420 -0.0306  0.1868  0.0821
26459W        W45313   0.759  10.849   5.376  0.0097 -0.0791  0.3011
26460W        W45314  17.211   5.442  11.953  0.1752 -0.1484 -0.1666
26461W        W45315   9.341   6.196  12.921  0.1323  0.0323  0.2656
26462W        W45316  11.251  14.415  11.989 -0.0628 -0.1619 -0.0499
26463W        W45317  13.634  12.319  12.070  0.1919  0.0225 -0.3156
26464W        W45318   7.733  10.627  10.606 -0.1471 -0.1952 -0.1058
26465W        W45319   2.461  10.665   1.243  0.0736  0.0762  0.2056
26466W        W45320   5.922  10.900  14.929 -0.1525  0.0043 -0.2399
26467W        W45321  10.089   8.105   0.755 -0.0189 -0.0017 -0.2598
26468W        W45322   0.011  11.116   0.350 -0.4020 -0.1226  0.0630
26469W        W45323  13.818  16.426   4.222 -0.0354 -0.2457  0.0799
26470W        W45324  11.738   3.354   2.231  0.3251 -0.0284 -0.1278
26471W        W45325  13.396   9.308   4.286  0.1079 -0.0706 -0.1923
26472W        W45326  11.357  17.982   1.784 -0.0422 -0.2330 -0.0907
26473W        W45327  10.498  13.638  11.490  0.0300  0.0814 -0.0065
26474W        W45328   2.676  12.700   0.389  0.2872  0.1027  0.1118
26475W        W45329   1.484   7.585  14.368  0.0739 -0.1801  0.0880
26476W        W45330   9.771   6.188  11.331 -0.3153  0.3962  0.1548
26477W        W45331   4.493  17.568  13.996 -0.2400 -0.0147  0.0929
26478W        W45332  16.782  11.503   1.321 -0.1971 -0.2601  0.1216
26479W        W45333   4.528   7.532  11.876  0.2215  0.2044 -0.1177
26480W        W45334   6.281   1.128   3.463  0.0648 -0.0488 -0.4310
26481W        W45335   7.947   1.531   0.543  0.0294 -0.2443  0.1371
26482W        W45336  13.890  10.402  14.727 -0.0470 -0.0020  0.0903
26483W        W45337   0.517  15.773  10.926 -0.1271 -0.2205 -0.1489
26484W        W45338   2.817   2.778  15.084 -0.3012 -0.1271  0.3153
26485W        W45339   5.606   4.579  14.335 -0.1331  0.1680 -0.0596
26486W        W45340   5.447   7.212  13.768 -0.0702  0.1155  0.2787
26487W        W45341   6.078  10.323  14.385 -0.0189  0.0414 -0.3589
26488W        W45342   0.166   8.943   3.929  0.1709 -0.0928  0.1321
26489W        W45343  10.633  11.433   3.608 -0.1307  0.1305  0.1495
26490W        W45344   4.814   8.282   1.209 -0.0316 -0.1373  0.0479
26491W        W45345   8.945   2.578   1.702  0.0517  0.0616  0.0919
26492W        W45346   9.084  16.296   2.720  0.0757 -0.0455 -0.0845
26493W        W45347   3.825   3.168  12.523  0.0066  0.3271  0.2625
26494W        W45348   7.171  12.877   2.335 -0.2354  0.1850 -0.3451
26495W        W45349   9.990   4.797  13.542 -0.1574  0.1687 -0.2548
26496W        W45350   3.114   8.709  15.149  0.1605 -0.2800  0.1108
26497W        W45351   5.761   2.118   2.996 -0.1362  0.1628 -0.3631
26498W        W45352   4.867   4.486   3.598  0.2475  0.1551 -0.2019
26499W        W45353  14.081   7.491   2.932  0.2694  0.1519 -0.0832
26500W        W45354  13.724  17.224  11.443 -0.3000 -0.0606  0.2196
26501W        W45355   9.556   6.906   0.876 -0.0371  0.2832 -0.3915
26502W        W45356   3.088   4.864  15.444  0.2023 -0.1379 -0.0371
26503W        W45357   1.132  12.519  14.812  0.0000 -0.0815 -0.1240
26504W        W45358  13.551   2.235   2.183  0.1471  0.2500 -0.0865
26505W        W45359   5.247   6.037   3.750 -0.0419  0.0986 -0.0452
26506W        W45360   7.715  10.515   0.607  0.3718  0.0368  0.1206
26507W        W45361   6.535   3.146  13.478  0.4308  0.1109  0.0372
26508W        W45362  15.575   6.029   0.359 -0.1579 -0.0704  0.1201
26509W        W45363   3.398  16.377   1.303 -0.1365  0.1671 -0.1453
26510W        W45364  15.284   3.041   0.026 -0.1667 -0.4191  0.2686
26511W        W45365   2.992   0.205   3.346  0.1262 -0.1900 -0.1760
26512W        W45366  14.830   8.936  14.469  0.0941 -0.2673 -0.0592
26513W        W45367  11.939   8.303  13.879  0.2474 -0.1343 -0.1003
26514W        W45368  10.936  17.805   2.967 -0.0532 -0.1697  0.0023
26515W        W45369   7.137  17.011   3.265  0.0124  0.1539 -0.0435
26516W        W45370   4.148   3.781   3.920 -0.0684  0.1343 -0.0548
26517W        W45371  17.049   6.568  10.642  0.1135 -0.2537 -0.1400
26518W        W45372  15.213   0.322   2.890  0.2822  0.1145 -0.2611
26519W        W45373   2.938  15.527   0.047 -0.0945 -0.0337  0.0981
26520W        W45374   2.670   5.256  14.099 -0.1367 -0.2278  0.1858
26521W        W45375   0.921   5.467  10.220 -0.0101  0.0241 -0.4117
26522W        W45376  18.079   8.914   1.272  0.1385 -0.0592  0.0410
26523W        W45377  17.155   3.420   4.249  0.2545 -0.1701  0.2366
26524W        W45378   2.393  14.108  14.264  0.0010  0.2539 -0.1467
26525W        W45379   9.933   2.413  15.034 -0.2398  0.2084  0.0362
26526W        W45380  12.914  10.780   5.355 -0.1333  0.0663 -0.1509
26527W        W45381  13.596   9.157   3.372  0.0775 -0.1200  0.0994
26528W        W45382   6.499  12.117  11.044  0.0072 -0.1867  0.1197
26529W        W45383  11.747   7.183  13.668  0.1403  0.0281  0.1250
26530W        W45384   6.856  10.853  13.290  0.0109 -0.1101  0.0268
26531W        W45385  18.367   5.316  13.327 -0.0464  0.2078 -0.0712
26532W        W45386   9.299  14.614  11.298 -0.0546 -0.1168  0.2836
26533W        W45387  16.413  15.154   3.327 -0.4547  0.0423  0.0462
26534W        W45388   0.252  17.500   3.489 -0.1194  0.2926 -0.3286
26535W        W45389  13.192  12.261  15.124  0.0892 -0.0749  0.1028
26536W        W45390   8.009   8.852  11.081 -0.0388 -0.0052 -0.1298
26537W        W45391  10.608   7.712   2.855 -0.0174  0.0091 -0.1511
26538W        W45392   9.839   3.896   3.530  0.0536  0.0223  0.0170
26539W        W45393   3.175   9.217  13.745  0.3156  0.1772 -0.2028
26540W        W45394   5.666   1.493  12.053  0.0558 -0.0085  0.0525
26541W        W45395   9.237   5.259  14.401 -0.0990  0.2067  0.0976
26542W        W45396   9.652  12.321  14.939 -0.1247  0.1364 -0.3639
26543W        W45397   4.865  12.810   3.106 -0.0505  0.0072 -0.0810
26544W        W45398   1.882   9.360  13.675  0.0386  0.0877 -0.1510
26545W        W45399   2.360   2.423  11.747 -0.0575 -0.1710  0.1600
26546W        W45400   6.156   1.555  12.203 -0.0106 -0.0726 -0.0512
26547W        W45401   3.489   6.510  13.627  0.5424 -0.0121  0.0505
26548W        W45402  12.660  14.851   0.596 -0.1591  0.0519 -0.1338
26549W        W45403  12.487   5.838  11.756  0.0302 -0.0689 -0.0343
26550W        W45404  10.701   6.115  13.039 -0.0718 -0.0899 -0.1034
26551W        W45405   7.494   9.315  12.405 -0.2406  0.0205  0.1589
26552W        W45406   8.261  10.559  11.603  0.1745 -0.0183  0.2283
26553W        W45407   4.916   7.822   0.085 -0.3074 -0.1473  0.1711
26554W        W45408  17.648   8.020  10.484  0.3442  0.1161 -0.4163
26555W        W45409  11.274   5.144  13.167 -0.0691 -0.4287  0.1431
26556W        W45410  15.633   0.318  12.818 -0.1797  0.0126 -0.0851
26557W        W45411  18.106  12.786  11.459  0.0879  0.0310  0.0416
26558W        W45412  12.009  10.134   4.342 -0.3807  0.0360  0.0143
26559W        W45413  10.382  13.150  11.678  0.0580  0.3497 -0.1109
26560W        W45414  17.037  14.012   3.973  0.0221  0.0272  0.5054
26561W        W45415  10.082  12.988  14.468  0.0004  0.1225 -0.4204
26562W        W45416   9.083  10.502   3.346  0.0429 -0.0613  0.0563
26563W        W45417   5.880  15.588   0.826 -0.0740 -0.1944 -0.1421
26564W        W45418   2.650  13.725  15.050  0.1794 -0.2509  0.2068
26565W        W45419  11.028  16.805   0.241  0.1571  0.4927 -0.0130
26566W        W45420  10.974   4.864  12.738 -0.1268 -0.1704  0.2263
26567W        W45421   0.196   3.849   3.484  0.2143 -0.1290  0.2245
26568W        W45422  12.231   6.936   5.322 -0.1731 -0.0331 -0.1814
26569W        W45423   4.298  17.205   0.402  0.4452  0.1112 -0.0709
26570W        W45424  14.762  14.487  13.696  0.2176  0.3634  0.0816
26571W        W45425  10.030  17.432  12.653 -0.0359 -0.0682  0.0866
26572W        W45426  16.300   3.177   3.829 -0.1411  0.1770 -0.0870
26573W        W45427   4.838   6.451  13.538  0.1759  0.2097 -0.0595
26574W        W45428   5.757   5.864   0.350 -0.3760  0.1996  0.3076
26575W        W45429  15.306  17.088   1.188  0.1913 -0.1899 -0.0202
26576W        W45430  15.408   6.322   1.721  0.2559  0.4181 -0.0544
26577W        W45431  17.294  13.268  12.814 -0.2574 -0.2301 -0.1515
26578W        W45432  11.204  17.024   1.913 -0.2533  0.0893  0.2449
26579W        W45433   7.215  12.709  12.033  0.2115  0.1411 -0.0020
26580W        W45434   6.597  18.498   1.851 -0.2170 -0.0298 -0.2545
26581W        W45435  16.384  12.224   0.192  0.0871 -0.0799  0.1352
26582W        W45436  17.708  14.759   3.790 -0.3589  0.2381 -0.3018
26583W        W45437   7.255  16.083  13.355 -0.3169 -0.2135 -0.1806
26584W        W45438   5.858   4.766   4.548 -0.2153 -0.0763 -0.0993
26585W        W45439   0.258  13.506  15.038  0.1672  0.1555  0.1392
26586W        W45440  15.069   0.558  12.617 -0.2456  0.0063  0.2765
26587W        W45441   0.648   5.663  11.096 -0.1213  0.0270 -0.0179
26588W        W45442  11.100  13.964  15.412 -0.1260  0.0167  0.2232
26589W        W45443   4.552   0.666   0.459 -0.2680  0.0560  0.1429
26590W        W45444   9.735   3.828  13.894  0.3202  0.0054 -0.2123
26591W        W45445  14.183  18.097   4.355 -0.0413 -0.0975 -0.0162
26592W        W45446   4.574   6.687  13.961 -0.1286 -0.0702  0.1478
26593W        W45447   7.433  11.478  14.212  0.1089  0.1936 -0.0324
26594W        W45448  17.759   5.923  14.183  0.2089  0.2090 -0.0044
26595W        W45449  16.157  10.548   1.872  0.1601  0.1856 -0.1304
26596W        W45450   4.227   2.281   4.625 -0.0730  0.0352 -0.1285
26597W        W45451  16.994   5.111   2.612  0.1025 -0.1408 -0.0358
26598W        W45452  11.007   4.478   2.429  0.0000  0.0940  0.3011
26599W        W45453   1.957  16.081  13.345 -0.0671 -0.1079 -0.1290
26600W        W45454  16.475   1.209  13.079 -0.0843  0.0276  0.2760
26601W        W45455  12.128  14.579   6.099 -0.3321  0.0596 -0.0621
26602W        W45456  17.104  14.822   4.702  0.1744 -0.2275 -0.3273
26603W        W45457  10.969  13.400   3.491 -0.3160  0.0081 -0.0033
26604W        W45458   3.418   9.141   3.197  0.2029 -0.0243  0.0175
26605W        W45459   6.837   0.541  13.960 -0.1568  0.2317  0.0190
26606W        W45460   6.236   0.970  12.465 -0.1576  0.0769  0.2028
26607W        W45461  10.015   9.770   2.260  0.0420 -0.1319  0.2277
26608W        W45462   5.016  17.014   0.849  0.1048  0.1505  0.0200
26609W        W45463   2.186   4.241   1.337 -0.1991 -0.0034  0.0819
26610W        W45464  12.997   2.764  12.537  0.2897  0.0516 -0.1739
26611W        W45465   4.478  14.626   2.384 -0.1911 -0.1090 -0.0955
26612W        W45466   1.746  14.896   2.961  0.1894  0.0270  0.0463
26613W        W45467  12.396   3.119   4.814  0.0101  0.3049 -0.1566
26614W        W45468  12.523   9.603   1.541 -0.1707 -0.1053  0.5024
26615W        W45469   7.209   1.377  14.208 -0.0895 -0.0173 -0.4227
26616W        W45470   7.520   6.459   3.584 -0.1397 -0.0213  0.0449
26617W        W45471   8.791   9.661   1.680  0.1244  0.0449 -0.1055
26618W        W45472   3.894   4.562   4.739  0.1076 -0.2339  0.0582
26619W        W45473  18.529  13.385   2.410 -0.2374 -0.0862  0.0073
26620W        W45474   9.727   2.819   2.769  0.0904 -0.1810  0.2418
26621W        W45475   8.738  17.360  13.281 -0.0460 -0.2228 -0.2913
26622W        W45476  12.370   1.745  15.060  0.0305 -0.3329  0.3797
26623W        W45477   0.625   9.267   3.293  0.5098 -0.3021  0.4156
26624W        W45478  15.502  12.573   5.361  0.4960  0.1672  0.0694
26625W        W45479  14.662   4.520  12.676 -0.1099  0.0077  0.1357
26626W        W45480   1.366  12.557  11.089 -0.0547  0.2326  0.0377
26627W        W45481  15.126  16.573   1.242 -0.0229  0.0152 -0.0130
26628W        W45482   4.640   7.242   0.357 -0.1177 -0.0523 -0.1723
26629W        W45483  14.028   2.934  14.592 -0.0809  0.1717  0.0915
26630W        W45484  12.850   7.217   1.046 -0.1174  0.2463 -0.0770
26631W        W45485  13.893   3.796   3.153  0.1563 -0.3551 -0.3871
26632W        W45486   7.326   3.778   4.584  0.2900 -0.0111 -0.1606
26633W        W45487  12.425  10.814   2.616  0.1078  0.0345 -0.0093
26634W        W45488   2.103   4.759  13.054  0.4863  0.1737  0.3069
26635W        W45489   0.201   3.980   0.260  0.0303  0.2840 -0.2866
26636W        W45490  12.836  12.618  13.146  0.1723  0.2749  0.1747
26637W        W45491  13.784   1.081   2.773 -0.1567  0.2294  0.0957
26638W        W45492   5.877  15.599  14.978 -0.1883  0.3290  0.1571
26639W        W45493  14.143   0.445  15.010 -0.1727  0.6237 -0.0544
26640W        W45494   1.292  11.520  11.401  0.1300 -0.0787  0.1366
26641W        W45495  12.975   3.232  12.732  0.0650  0.1491 -0.0096
26642W        W45496   8.389   5.396   3.344  0.1145  0.0213 -0.0262
26643W        W45497   5.583  10.227   0.038  0.1053  0.0721 -0.1199
26644W        W45498   9.386  14.654   1.907 -0.0384 -0.0563 -0.1586
26645W        W45499  16.077   8.717  13.231 -0.0376 -0.0539 -0.1570
26646W        W45500   5.356  14.124  13.046  0.0456 -0.3163  0.1048
26647W        W45501   7.983   4.179   0.912  0.2661 -0.1798  0.2106
26648W        W45502   5.951   6.332   0.173 -0.1849 -0.1113 -0.0000
26649W        W45503  14.290   0.099   0.603  0.0705 -0.3075  0.1307
26650W        W45504  16.239   6.735  13.069  0.1227 -0.1087  0.0382
26651W        W45505   2.722   3.633   1.647 -0.0317  0.2494  0.1751
26652W        W45506   3.369   6.876  12.544 -0.2376 -0.0960 -0.1691
26653W        W45507  14.995  15.662  10.072 -0.0173 -0.0382  0.1927
26654W        W45508  15.249  11.843   2.412  0.0562 -0.1425  0.0960
26655W        W45509   5.574  10.476  13.245  0.1801  0.0834  0.2309
26656W        W45510   2.487  18.447   4.117 -0.0169 -0.0788  0.0296
26657W        W45511  11.238   9.169  15.194 -0.1448 -0.2077 -0.0831
26658W        W45512  15.027   8.811   2.781 -0.0991 -0.1857  0.0832
26659W        W45513  16.666  12.990   3.573 -0.1594 -0.1970  0.1138
26660W        W45514  16.432   7.265  14.439 -0.1949 -0.0377 -0.0458
26661W        W45515  15.916  18.252   1.507 -0.2220 -0.1672  0.3540
26662W        W45516   1.167   8.966   2.721  0.2192 -0.1428 -0.1351
26663W        W45517   9.130   2.375   1.310 -0.0658 -0.1253 -0.1925
26664W        W45518  16.062  13.133   3.259  0.0647  0.2791 -0.0486
26665W        W45519   2.094  14.382   0.816 -0.1144 -0.2398 -0.0070
26666W        W45520  16.984   8.398   2.568 -0.1154  0.1648  0.0727
26667W        W45521  16.546   9.698  11.283  0.0094  0.1794  0.1280
26668W        W45522  15.904   9.159  14.244  0.0213  0.0922 -0.1095
26669W        W45523   9.656   0.056  13.927  0.1061  0.1492  0.2672
26670W        W45524  13.876   2.718  12.430  0.0647  0.2408  0.0319
26671W        W45525  18.015  16.020   0.735 -0.0657  0.4012 -0.0373
26672W        W45526  14.875  15.782  13.188 -0.0524 -0.2454  0.1933
26673W        W45527  13.481  16.608  11.831 -0.1501  0.1807  0.0016
26674W        W45528  10.150   4.264   3.989  0.1783 -0.1949  0.2798
26675W        W45529  13.822   3.270   3.819 -0.1245 -0.2582  0.0705
26676W        W45530   4.023  14.463  13.034  0.1808 -0.0304  0.1645
26677W        W45531   0.822   6.692  15.128  0.2394 -0.0826  0.0190
26678W        W45532   2.227   2.248  10.567  0.0819  0.2032 -0.2470
26679W        W45533   5.049  16.910  15.329  0.2213  0.2512  0.0249
26680W        W45534  11.839   9.772   3.576 -0.1037  0.0714 -0.2995
26681W        W45535   6.488   9.175   3.728 -0.0583 -0.3265  0.1260
26682W        W45536   5.112  13.566  15.182  0.1137  0.2338 -0.0970
26683W        W45537  12.401  11.416  11.654 -0.4607  0.1653 -0.0173
26684W        W45538   2.072   8.066  14.991  0.1857  0.1182 -0.0984
26685W        W45539   2.018   4.172  10.990 -0.0436 -0.0333 -0.0958
26686W        W45540   2.674   2.592   1.988  0.1118 -0.0783  0.0503
26687W        W45541   1.245  10.614   2.277 -0.0778  0.3225  0.2262
26688W        W45542  15.422  16.888   1.623 -0.2772  0.1498 -0.0668
26689W        W45543  15.766   0.801   2.356  0.1596 -0.0539  0.0939
26690W        W45544   3.607  17.262  11.188 -0.0925 -0.0764  0.1377
26691W        W45545  17.247   0.748   4.172  0.0011 -0.0332 -0.0092
26692W        W45546   8.068  10.468   3.686  0.0380 -0.0584 -0.1340
26693W        W45547  17.041   1.616   3.885  0.0234  0.0605  0.2948
26694W        W45548   7.232   3.872  14.485 -0.2888  0.2557  0.1698
26695W        W45549  16.121   4.022  14.657  0.0411 -0.2593  0.0865
26696W        W45550   3.192  11.507  11.176  0.0454  0.0616  0.0672
26697W        W45551   1.632  14.312   0.789  0.1464  0.3025 -0.0544
26698W        W45552   5.944  14.671   3.907 -0.2445  0.0056  0.1371
26699W        W45553  12.958  18.086  12.659 -0.1610  0.0580 -0.0069
26700W        W45554   3.539  14.148  12.655  0.1684  0.0075  0.0695
26701W        W45555   8.079   9.675   2.147  0.1560 -0.0980 -0.2458
26702W        W45556  12.086  18.222   3.125 -0.0517 -0.1870  0.3015
26703W        W45557   1.567  17.048   0.697  0.1460  0.3084 -0.3406
26704W        W45558  18.191  16.744   2.110  0.3018  0.3949  0.2072
26705W        W45559   0.688   6.034   4.008 -0.1323  0.1588  0.1088
26706W        W45560  13.892  15.177  13.987  0.0930 -0.1137 -0.0905
26707W        W45561  14.473   3.836   4.493 -0.1509 -0.1628  0.1547
26708W        W45562  12.505  17.361  12.115 -0.1107 -0.1411 -0.2354
26709W        W45563  13.098   1.059   3.004  0.2355  0.2731 -0.2279
26710W        W45564  13.650  11.575   2.062 -0.1645  0.1929 -0.0565
26711W        W45565  13.391   4.274   5.096  0.0367 -0.2304  0.3636
26712W        W45566  15.786   2.074   1.237  0.1137 -0.0806 -0.0929
26713W        W45567   7.101  14.332   4.112  0.0018 -0.5029  0.2952
26714W        W45568   5.661  12.953  11.942 -0.1402  0.2581  0.1338
26715W        W45569  11.919   5.478   3.297 -0.0393 -0.0282 -0.2162
26716W        W45570  13.552   6.441   0.600 -0.0642  0.1299 -0.3120
26717W        W45571  14.156   7.360   4.798  0.0088  0.1540  0.0412
26718W        W45572  16.593   9.515  11.751  0.0906  0.0895  0.2293
26719W        W45573  14.422  11.828  10.873  0.3849 -0.1009  0.1074
26720W        W45574   5.717   1.461   0.980  0.2341 -0.0676 -0.3396
26721W        W45575   1.748   7.540   3.301  0.0163 -0.1584 -0.1832
26722W        W45576  14.657  16.976   4.406  0.2956 -0.0456 -0.1520
26723W        W45577  15.058   2.263   3.750  0.2306 -0.0027 -0.0301
26724W        W45578  10.478   1.155  13.466  0.3345 -0.3227 -0.0288
26725W        W45579   3.252   5.549   3.445  0.1949 -0.0945  0.1783
26726W        W45580  14.881  18.339  11.691 -0.0905 -0.1737 -0.4934
26727W        W45581   6.703  13.193  13.233 -0.3525 -0.0718 -0.3656
26728W        W45582  13.574  11.365   5.001 -0.2567  0.0197 -0.3823
26729W        W45583   0.322  16.805   1.102 -0.2222 -0.0288 -0.1452
26730W        W45584   9.894  14.498   4.296 -0.1977  0.0516  0.1122
26731W        W45585  14.788  15.559  12.710  0.3811 -0.0058  0.0888
26732W        W45586   8.597   3.219  13.867 -0.3529 -0.0655 -0.2327
26733W        W45587  12.325   7.190   2.698 -0.3315  0.1393 -0.1762
26734W        W45588  15.472   9.140   1.458 -0.2927 -0.1300  0.0712
26735W        W45589  15.507  16.041  12.253 -0.2033 -0.2824 -0.1216
26736W        W45590   9.913  15.184  12.429  0.0992 -0.0307  0.0290
26737W        W45591   0.612  16.598  14.555  0.1686  0.1364  0.0609
26738W        W45592   9.784  11.020   2.353  0.0470 -0.1133  0.1020
26739W        W45593  10.454   4.041   4.274  0.5558  0.0968  0.1855
26740W        W45594   3.780  14.772  13.388 -0.0931 -0.0833 -0.0758
26741W        W45595  13.986  14.686  14.173  0.2035 -0.1525 -0.0812
26742W        W45596   7.780  12.355  11.117 -0.3000 -0.2558  0.3032
26743W        W45597  12.971  16.112   3.256  0.0514 -0.0288  0.0721
26744W        W45598   4.704  18.171   4.398  0.4987 -0.1141  0.0844
26745W        W45599  12.458  10.550   1.320  0.0955 -0.4206  0.1838
26746W        W45600   9.175  12.079  10.879 -0.1817  0.0051  0.0934
26747W        W45601  14.447  18.065   3.551 -0.2192  0.2349  0.0826
26748W        W45602   3.610   5.482  12.160 -0.1029 -0.1449  0.2813
26749W        W45603  12.365  15.269   1.679  0.6153 -0.1172 -0.2059
26750W        W45604   3.953   8.375  14.565 -0.0751  0.1226 -0.2478
26751W        W45605   6.227  17.722   4.372  0.0901 -0.0422 -0.0195
26752W        W45606  18.148   7.902   0.943  0.3237 -0.2483 -0.0324
26753W        W45607  10.145  13.528   4.719 -0.3004 -0.1617  0.0957
26754W        W45608  11.899   1.219   0.202 -0.0731 -0.0747 -0.2546
26755W        W45609   1.708   9.733  13.446  0.1588  0.0822  0.3448
26756W        W45610  16.676  12.044   1.984  0.0951 -0.2585  0.1423
26757W        W45611   5.189   4.952   2.787  0.2043  0.0125  0.2992
26758W        W45612  15.825  10.241  11.579 -0.1877  0.1463 -0.2095
26759W        W45613  14.717  16.192  10.961 -0.1662  0.2121 -0.2250
26760W        W45614  12.270  11.382   1.884 -0.0292  0.0672  0.0197
26761W        W45615  10.457   5.057   5.061 -0.0947  0.2605  0.0518
26762W        W45616  10.284   1.600  11.406 -0.0458 -0.0292 -0.0566
26763W        W45617   7.818   8.411   3.754 -0.1894 -0.2605 -0.3078
26764W        W45618   4.959   2.270  11.939 -0.1133  0.0035 -0.1947
26765W        W45619   3.385   9.898  11.788  0.1137 -0.3638 -0.0421
26766W        W45620   0.036   4.815   2.405  0.1065  0.1836  0.1568
26767W        W45621   9.813   2.912  15.172 -0.3277  0.2122 -0.3584
26768W        W45622  16.480   4.605  12.711 -0.1510 -0.2193  0.0277
26769W        W45623   1.723  14.001   2.811 -0.1618 -0.0764 -0.0610
26770W        W45624  14.677   9.616   1.203  0.1996 -0.2169  0.0732
26771W        W45625   0.079  10.427  14.982 -0.3296  0.0710 -0.1232
26772W        W45626  16.526   6.915  10.944  0.2794  0.0608  0.1195
26773W        W45627   5.763   9.404  14.845 -0.0028 -0.3026  0.0137
26774W        W45628   0.798  13.580  12.810  0.2937 -0.1211  0.2020
26775W        W45629   3.412  15.769  11.140  0.0303 -0.1780  0.3035
26776W        W45630  14.005   3.015  11.070  0.2054  0.0429  0.0853
26777W        W45631   6.482   7.724   4.085 -0.0826  0.1139 -0.2556
26778W        W45632   5.779  17.667  14.283 -0.1333 -0.1238 -0.0877
26779W        W45633   4.494  14.643   1.882 -0.0647 -0.0957 -0.1349
26780W        W45634   4.419  16.726   2.639 -0.0654  0.1919 -0.1210
26781W        W45635  12.802  16.546   3.569  0.0402 -0.2138  0.1156
26782W        W45636  16.118  15.951  11.182 -0.3118  0.0489 -0.3063
26783W        W45637  16.818  12.695   5.888  0.0540  0.1025 -0.3840
26784W        W45638  17.967  11.011  15.414 -0.0204 -0.0505 -0.0700
26785W        W45639   9.321   7.346   4.330 -0.1278 -0.1522 -0.2225
26786W        W45640  15.486   4.976  11.316 -0.0709  0.1674  0.1485
26787W        W45641   6.585  11.587   1.319  0.0856 -0.2959  0.0423
26788W        W45642  13.370  10.697  12.872 -0.0635 -0.4313  0.1918
26789W        W45643   1.421   6.114   2.561  0.0296  0.0271 -0.1575
26790W        W45644   7.971  18.064   5.076 -0.0410  0.0565  0.0251
26791W        W45645  13.919   5.235  15.234 -0.0317  0.1642  0.0717
26792W        W45646  12.974   5.448   4.740  0.3387 -0.3429 -0.4464
26793W        W45647   7.033  14.480  11.472 -0.1195 -0.1654  0.0409
26794W        W45648   0.079   3.318   3.233 -0.3159 -0.1308  0.0838
26795W        W45649  12.011  11.771  11.624 -0.2651 -0.0702  0.1011
26796W        W45650  15.863   3.520  13.309 -0.0930  0.2818  0.3895
26797W        W45651  18.488  13.764   4.218  0.1437 -0.4582 -0.0150
26798W        W45652  15.948  10.249  12.927 -0.0696 -0.0338  0.1000
26799W        W45653   3.595   7.300  14.792  0.5626 -0.1247 -0.0409
26800W        W45654   7.738   8.944   0.414  0.0438 -0.1838 -0.1234
26801W        W45655   9.682  14.607   3.795 -0.2081 -0.3297 -0.2533
26802W        W45656   3.586  14.691   1.494 -0.3029 -0.0402  0.3168
26803W        W45657  11.295   8.299   1.572 -0.1206 -0.1531  0.1001
26804W        W45658  12.974  13.629   1.736  0.3064  0.2018  0.2334
26805W        W45659  13.445  15.038   2.581 -0.0384  0.0702 -0.0070
26806W        W45660   5.704   3.338  15.020 -0.3827 -0.1043 -0.4106
26807W        W45661   3.470   0.680  14.037  0.0329  0.1438 -0.3682
26808W        W45662   1.708   9.366  15.006  0.0757 -0.1125 -0.0875
26809W        W45663   3.736  15.176  12.979 -0.3505  0.0291  0.1175
26810W        W45664  11.110   9.305   3.944 -0.0689 -0.3016 -0.0693
26811W        W45665  13.475  13.956  11.700 -0.1891 -0.2113 -0.2193
26812W        W45666   9.962   7.383  11.439  0.0994 -0.0419 -0.1093
26813W        W45667   9.842   9.404  13.380  0.0780  0.2098 -0.0841
26814W        W45668   4.927   4.372  14.671  0.1064 -0.1569  0.2839
26815W        W45669   8.066  10.474   1.331  0.1423  0.0443  0.0916
26816W        W45670  10.894  18.483   1.357 -0.0004  0.2292 -0.0921
26817W        W45671  10.868   5.276   1.950 -0.0583 -0.2723  0.1294
26818W        W45672   7.010   1.240  12.910  0.3890  0.2595  0.1034
26819W        W45673  12.971  15.611   2.178  0.1563  0.2418  0.0657
26820W        W45674   2.393   2.146   1.223 -0.0442 -0.2986 -0.0612
26821W        W45675   7.798   1.078   0.267 -0.1390  0.0694  0.1161
26822W        W45676   0.806  15.853  12.728  0.1998  0.1843  0.0308
26823W        W45677  14.623   4.804   5.636 -0.0031  0.3234 -0.1710
26824W        W45678  13.849  17.238  10.245  0.4337  0.3214 -0.0225
26825W        W45679  17.302   8.723   3.294 -0.1244 -0.2154 -0.1917
26826W        W45680   7.618   7.387  14.565 -0.2381  0.3293  0.0597
26827W        W45681  11.864  14.412   4.226 -0.0842 -0.0893  0.1151
26828W        W45682   7.917  13.004   2.034 -0.0317  0.0758  0.3691
26829W        W45683  11.294  18.362   2.146  0.0872  0.1672 -0.1702
26830W        W45684   4.033  10.463  11.702  0.2782  0.0354  0.1815
26831W        W45685   2.216   5.266  13.117 -0.1786 -0.0734 -0.2010
26832W        W45686   2.523  10.972   0.654 -0.1851 -0.2434 -0.3414
26833W        W45687   4.595   5.046   2.089  0.0781  0.3389 -0.1173
26834W        W45688  16.495   6.006   3.003 -0.0923 -0.4121 -0.0830
26835W        W45689   5.834   0.336  13.633 -0.0034  0.1378 -0.2821
26836W        W45690  11.378   5.324  14.596 -0.1702  0.0371 -0.0552
26837W        W45691   3.137  17.653   0.979  0.2990  0.1208  0.1568
26838W        W45692   2.270  13.764  13.653 -0.6070 -0.3409  0.0877
26839W        W45693  10.067   8.494   0.464 -0.1416 -0.1181  0.3069
26840W        W45694   8.657   7.624  11.680  0.0208  0.1341  0.1554
26841W        W45695   5.135  11.077   0.889 -0.0611  0.0668 -0.2121
26842W        W45696   0.283   5.746   3.940 -0.0225  0.3075  0.0651
26843W        W45697   4.219   5.811   2.441 -0.0369 -0.0128  0.0148
26844W        W45698   2.828  13.841  13.399 -0.1805 -0.0085 -0.0145
26845W        W45699  10.648   4.963   0.540 -0.1844 -0.1816  0.2768
26846W        W45700  18.234  18.040  13.358 -0.1760 -0.0888  0.1025
26847W        W45701  14.390   4.649  13.592  0.0472  0.1466 -0.0491
26848W        W45702  11.002   5.318   3.706 -0.2152 -0.0095  0.0154
26849W        W45703   7.153   2.643  11.806  0.1138 -0.0347  0.2089
26850W        W45704   1.433  16.797  14.218  0.1242 -0.1907 -0.1611
26851W        W45705  12.331  17.868   1.958  0.1145  0.1505  0.2254
26852W        W45706   7.517   2.691  14.648 -0.0894  0.1701  0.1463
26853W        W45707   3.312   6.109  13.281  0.1395 -0.0836  0.1571
26854W        W45708   1.564  12.438  12.769  0.2290 -0.1053 -0.1841
26855W        W45709   0.570  12.563   0.606  0.0013 -0.0253 -0.2847
26856W        W45710   9.011   0.922  14.316 -0.2958 -0.1570 -0.2388
26857W        W45711  15.583  12.287  12.074  0.0245  0.2313 -0.2502
26858W        W45712  11.848   2.788   5.885 -0.2062  0.3177 -0.0414
26859W        W45713   3.064  12.845  12.765 -0.1574  0.0304  0.0824
26860W        W45714   6.895   0.851   0.567 -0.0152  0.0848  0.0757
26861W        W45715  17.384   9.227  11.324  0.3299 -0.1726 -0.1126
26862W        W45716  18.347   5.533   2.798  0.0052  0.0472  0.1792
26863W        W45717   6.430   9.674   0.295  0.2438 -0.1428 -0.2969
26864W        W45718  10.764   8.167  13.231  0.1007 -0.0521 -0.0755
26865W        W45719   0.258   7.833  13.170 -0.1162 -0.0874 -0.1065
26866W        W45720  16.040  14.591   4.849 -0.4535  0.0305 -0.0375
26867W        W45721   3.245  12.209  14.609  0.0178  0.0750  0.3636
26868W        W45722   7.191   1.715   0.814  0.0109 -0.1063  0.1302
26869W        W45723  15.466  18.521   1.369  0.2392 -0.2451  0.2490
26870W        W45724   3.551  12.611  14.274 -0.1646 -0.4661 -0.1344
26871W        W45725  15.678   9.625   3.898  0.1687  0.0384  0.0789
26872W        W45726  14.867   3.945  13.221  0.2396 -0.0574  0.0893
26873W        W45727   4.363  17.116   1.357  0.1843  0.1958 -0.0231
26874W        W45728  11.940   6.213   0.339  0.1139  0.1540 -0.1857
26875W        W45729  13.964  15.615  12.517  0.1805  0.3588 -0.0211
26876W        W45730   1.875  16.950   1.214 -0.0987 -0.2928 -0.0695
26877W        W45731  17.163   1.986  10.914 -0.0033  0.0780  0.1244
26878W        W45732   9.063   5.846   3.221  0.1911  0.1845 -0.0036
26879W        W45733   2.012  14.510  11.635 -0.0234  0.0506 -0.0870
26880W        W45734   9.631  12.766   0.647  0.1017 -0.0394  0.1845
26881W        W45735  14.345  11.917  14.753 -0.1744 -0.0050 -0.3434
26882W        W45736   3.175  14.166   0.952 -0.0890  0.0700  0.3029
26883W        W45737   8.925  10.918   3.652 -0.0593 -0.0619  0.1596
26884W        W45738   2.079   1.179  14.264  0.0727  0.1486  0.2598
26885W        W45739   9.597   3.409  14.946 -0.3587  0.0554  0.4376
26886W        W45740   4.091   1.565   4.330  0.1451  0.0334  0.1971
26887W        W45741  17.527   8.419   4.485  0.0191 -0.0057 -0.1371
26888W        W45742  14.670   1.373   4.603  0.4325 -0.1665 -0.0596
26889W        W45743   0.395  12.325   0.971  0.1427 -0.2509 -0.2548
26890W        W45744  14.365   2.036   0.586 -0.2577  0.1054 -0.1587
26891W        W45745  10.029  14.421  14.960  0.0986 -0.0518  0.1717
26892W        W45746   9.082  16.260  15.459 -0.1086 -0.1540 -0.0100
26893W        W45747   4.467   1.687  13.267  0.4400  0.0165  0.1063
26894W        W45748  14.889  16.212   2.451 -0.2952 -0.1030  0.2756
26895W        W45749   8.047   4.958  13.779 -0.5584 -0.2013 -0.2703
26896W        W45750   0.482   5.482  13.901  0.0319 -0.0206 -0.2557
26897W        W45751  10.451  10.103   4.405 -0.2258 -0.0294 -0.0171
26898W        W45752  14.658  12.405  12.790  0.0530  0.0685  0.0259
26899W        W45753   1.620   2.654   4.168  0.0322  0.1243 -0.0250
26900W        W45754   6.888  13.610   0.207 -0.1363 -0.1068  0.1284
26901W        W45755  15.536  15.992   3.077 -0.2591 -0.1814 -0.4434
26902W        W45756   8.346  16.396   2.219  0.0390 -0.4816 -0.1077
26903W        W45757   8.174   6.520  12.971  0.1960 -0.3581 -0.0282
26904W        W45758  18.400   4.920  14.477  0.0847 -0.1633 -0.1434
26905W        W45759  16.747   4.051   5.557  0.0246 -0.3316 -0.1333
26906W        W45760  17.872   4.218  12.362  0.2795 -0.0104 -0.1704
26907W        W45761  10.345   3.543   2.594  0.0699 -0.1719 -0.2060
26908W        W45762  12.360   2.040  11.236 -0.1513  0.1154  0.1274
26909W        W45763   8.240   4.610   2.961  0.1669  0.0149 -0.2775
26910W        W45764  17.477  11.173   2.176  0.1821 -0.1300 -0.0810
26911W        W45765  17.076  17.372  10.602  0.1085  0.3550  0.0989
26912W        W45766  10.943   8.872   3.574 -0.1352 -0.1623  0.1517
26913W        W45767   3.778  14.570  11.997 -0.0809 -0.0901 -0.1441
26914W        W45768  13.820  13.439   4.720  0.2925 -0.2482  0.0141
26915W        W45769   5.560   5.747  12.275  0.1843 -0.2844 -0.2431
26916W        W45770  14.448  12.841  12.118 -0.1207 -0.0139  0.2232
26917W        W45771  13.438  18.335  11.463  0.1473 -0.0477 -0.0305
26918W        W45772  14.239  13.839  13.378  0.0329  0.0278  0.3665
26919W        W45773  16.319   4.450  14.842 -0.3312 -0.0491  0.1367
26920W        W45774  17.428   9.741  11.094 -0.0787  0.0842  0.1372
26921W        W45775   0.641   0.336  10.016 -0.0883  0.0972  0.1130
26922W        W45776   0.565  10.474  10.958  0.0601 -0.1988 -0.2355
26923W        W45777  16.690   5.779   1.374  0.2284 -0.3924  0.1063
26924W        W45778   9.226  18.200  11.346  0.3387 -0.0865  0.1386
26925W        W45779   2.759   2.882  13.537  0.0532  0.0180 -0.4958
26926W        W45780   0.591   1.428  10.185  0.0316 -0.3980 -0.0237
26927W        W45781  16.519  10.307   2.285  0.1774  0.0772 -0.2886
26928W        W45782  17.912  15.248  13.529  0.1215  0.0359 -0.0823
26929W        W45783  17.340  11.136   1.157 -0.0584 -0.3487  0.2264
26930W        W45784  15.373  12.366   2.407 -0.0862  0.2291  0.0287
26931W        W45785   3.968  10.311   2.885  0.1047 -0.0340 -0.0618
26932W        W45786   2.645  15.201   0.389 -0.0716  0.0248 -0.0720
26933W        W45787   0.459  12.650  13.761 -0.0188 -0.1060 -0.2788
26934W        W45788   2.977   9.366   2.949 -0.0519 -0.1510  0.0217
26935W        W45789   1.659  11.792  11.765 -0.0969  0.1539 -0.0006
26936W        W45790  16.380  14.332   2.363 -0.0818  0.0210  0.2671
26937W        W45791   6.128   4.298  12.801 -0.0809  0.0431  0.1051
26938W        W45792  18.505  18.563  14.788 -0.1034  0.0507 -0.0007
26939W        W45793   8.752   8.390  13.485 -0.1263 -0.2328 -0.1640
26940W        W45794   3.133   9.190  12.262 -0.1412  0.1043 -0.2677
26941W        W45795  16.261   2.075  13.361  0.0613 -0.0924 -0.0456
26942W        W45796   4.569  10.466   2.022 -0.1490 -0.0670  0.1662
26943W        W45797   9.101  17.656   3.304 -0.2636  0.0063 -0.1821
26944W        W45798  11.607   7.980   0.038  0.0101  0.1900  0.2573
26945W        W45799   8.821   7.466   1.354 -0.1321 -0.1520  0.1990
26946W        W45800   8.856  17.719   1.649  0.4251  0.1420 -0.0976
26947W        W45801  12.975  10.131  12.152  0.0648 -0.0465  0.4034
26948W        W45802  13.045  12.295  13.560  0.2956  0.1748 -0.1447
26949W        W45803  17.656   3.529   2.870  0.0327  0.0921 -0.0881
26950W        W45804   3.368   6.736  13.091  0.3530  0.1125  0.0678
26951W        W45805   2.247  11.128  13.579 -0.2617  0.1356  0.0070
26952W        W45806   8.832  15.549   1.169 -0.1832 -0.2360  0.1476
26953W        W45807   2.673   2.287  13.601  0.1099 -0.0751 -0.0501
26954W        W45808   0.725  17.082   2.651 -0.0287 -0.1150  0.1439
26955W        W45809   8.833   8.989  15.171 -0.2331  0.0822  0.0320
26956W        W45810   9.548  13.473   1.328  0.0064 -0.2322  0.0999
26957W        W45811   1.907  13.201   3.473  0.0041 -0.0382  0.2542
26958W        W45812   7.763  12.128   4.913 -0.1047 -0.0027  0.5037
26959W        W45813   5.633  13.990  14.306 -0.0020 -0.1284  0.1635
26960W        W45814   9.770  10.060   1.834 -0.0063  0.1760  0.1996
26961W        W45815  10.615  15.933  10.955  0.1923  0.1127  0.1707
26962W        W45816   0.658  13.654   1.457  0.0146  0.0407  0.0962
26963W        W45817   8.016   7.062   4.413  0.1717  0.0842 -0.1719
26964W        W45818   0.542  16.182  14.152  0.0210  0.1937  0.0205
26965W        W45819   8.956  18.126   4.692  0.3526  0.1353  0.2998
26966W        W45820   6.512  10.120   0.102 -0.1034 -0.2181  0.1465
26967W        W45821   2.611  14.045  11.986 -0.0214  0.2741 -0.1487
26968W        W45822  14.863   3.072   2.139  0.1693  0.1601  0.0043
26969W        W45823  11.208   4.734   2.913  0.0400 -0.2231  0.0418
26970W        W45824  12.608   7.592   0.634  0.1050 -0.0214  0.1871
26971W        W45825  14.168   9.736  13.577  0.0916 -0.0268 -0.1645
26972W        W45826  10.294   1.196   2.819 -0.2289  0.1166 -0.2694
26973W        W45827   9.946   2.314  12.087  0.1543  0.0218 -0.2238
26974W        W45828  18.132   2.959   0.147  0.0385 -0.0106  0.4096
26975W        W45829   0.458   2.313   3.239  0.2416 -0.3038  0.0216
26976W        W45830  11.041   3.948  14.993 -0.0841  0.1033 -0.0372
26977W        W45831  17.293  16.958   4.250  0.1864  0.0822 -0.0557
26978W        W45832  17.611  15.463   3.790 -0.0564 -0.0929  0.1742
26979W        W45833  10.581  12.546  13.590 -0.1494  0.0480  0.2319
26980W        W45834  16.115   4.985   3.981  0.0789 -0.0578  0.0651
26981W        W45835   4.811  10.141   3.809  0.0401 -0.2845 -0.1233
26982W        W45836  11.025   0.754  12.891 -0.0936  0.0991 -0.0037
26983W        W45837  17.686  15.144   2.029  0.1439 -0.0257 -0.0029
26984W        W45838  10.644  10.642   0.789 -0.2257  0.0841 -0.2836
26985W        W45839   7.451   9.522   1.426  0.4339 -0.2374 -0.2929
26986W        W45840  14.600   6.208   1.299 -0.1157  0.2526  0.2950
26987W        W45841  15.228   9.322   3.910 -0.0710 -0.0248 -0.2717
26988W        W45842   8.163   0.246   3.825  0.0263  0.0114  0.0874
26989W        W45843  17.512  12.440   3.937  0.0554 -0.1326 -0.3610
26990W        W45844   6.451  17.837  13.286  0.2978  0.0477 -0.0873
26991W        W45845  18.380   7.266  14.357 -0.1006  0.1259 -0.1161
26992W        W45846  18.322   7.649  14.755 -0.2668  0.1349  0.3477
26993W        W45847   5.199   7.728  14.623  0.0446  0.0843 -0.0207
26994W        W45848  17.611  17.797  15.270 -0.1273 -0.1554  0.1728
26995W        W45849  13.448   8.258   3.149 -0.0310  0.1958  0.0809
26996W        W45850  15.362   8.767   3.562  0.1361 -0.0429 -0.1152
26997W        W45851   6.393  11.777  13.893 -0.0594 -0.0124  0.2028
26998W        W45852  18.569   7.868   3.711  0.1163 -0.0833  0.0049
26999W        W45853  15.844  16.091   1.454 -0.1482 -0.2518  0.1759
27000W        W45854  15.745   6.451  11.289 -0.0405 -0.2317  0.2843
27001W        W45855  11.665   3.210  12.838  0.1130  0.0228  0.0506
27002W        W45856  12.443   2.023   1.356  0.3453 -0.0546  0.0517
27003W        W45857   2.743   4.708   2.220 -0.1291 -0.0011  0.1481
27004W        W45858   8.312  18.222  13.115 -0.1732  0.2093 -0.2508
27005W        W45859   5.160  12.107   1.157  0.0342 -0.0391  0.1165
27006W        W45860   1.530   1.621   2.976  0.2758 -0.2786  0.0172
27007W        W45861   4.841  10.158   1.195 -0.0686  0.3336  0.0391
27008W        W45862   7.661  17.712   0.256 -0.0533  0.0779  0.2888
27009W        W45863  14.240   4.329   4.555 -0.1519  0.0086 -0.0151
27010W        W45864   3.603   4.021   0.886 -0.3065  0.1740 -0.0235
27011W        W45865  13.313   1.864   1.465  0.0689 -0.0506 -0.1407
27012W        W45866  12.243   1.131   3.084 -0.2987  0.3978  0.0038
27013W        W45867   2.756   3.251   2.093 -0.3262 -0.1358 -0.4801
27014W        W45868  13.577   7.491   1.654  0.0727 -0.0028  0.0928
27015W        W45869   8.105  15.842   3.799 -0.2152  0.2318  0.1254
27016W        W45870  15.323  17.347   0.690  0.1399  0.0245  0.0423
27017W        W45871   7.131   3.889  12.406 -0.2418  0.0664  0.2751
27018W        W45872   5.223  14.695  12.187  0.3490 -0.0188  0.0544
27019W        W45873  11.161  14.964  13.771 -0.0838  0.2136  0.1529
27020W        W45874   6.254   0.259   2.881  0.1582  0.1668  0.1432
27021W        W45875  10.691   0.599   3.640 -0.1105  0.1627  0.4103
27022W        W45876   5.283  16.391  12.946  0.0856 -0.0155  0.0502
27023W        W45877  13.212  18.264   1.124  0.1200 -0.2061  0.2403
27024W        W45878   9.831   0.530  12.086  0.2399  0.0731  0.0853
27025W        W45879   7.996   3.400  11.355  0.2702 -0.0484 -0.0087
27026W        W45880   2.584  14.309  12.473  0.0458 -0.1184 -0.2133
27027W        W45881   2.385   1.922  10.872  0.2889 -0.0063 -0.2258
27028W        W45882  12.882  12.913   4.894 -0.1988 -0.1690 -0.0187
27029W        W45883  11.972  16.747  11.890 -0.0845 -0.4083  0.0763
27030W        W45884  15.125  14.537  10.274 -0.1355  0.1162 -0.1920
27031W        W45885  11.180  15.750  11.659  0.1445 -0.1512  0.0333
27032W        W45886  14.654   8.284  11.373 -0.1028 -0.2394  0.1727
27033W        W45887   9.638   3.898  12.282  0.3508 -0.2127 -0.0181
27034W        W45888  15.403  16.766  12.960  0.0014  0.0784  0.0798
27035W        W45889  14.091   5.067   1.304  0.0332 -0.2147  0.2357
27036W        W45890   2.831   9.939   4.186  0.0431  0.0674 -0.0719
27037W        W45891   5.331   2.037  12.695  0.1829  0.0339  0.1967
27038W        W45892  10.346   3.206  14.237  0.1706  0.3763  0.0119
27039W        W45893  12.790  13.373  13.769 -0.2305  0.0048  0.2808
27040W        W45894  13.900   8.588   1.826  0.2363  0.0619 -0.1058
27041W        W45895  12.930   7.270  13.078  0.0937 -0.2768 -0.0872
27042W        W45896  17.006   8.656  13.629 -0.1695  0.0413  0.0713
27043W        W45897  10.483   3.064  11.393  0.1608 -0.0104 -0.1225
27044W        W45898  13.997   1.850   0.919 -0.2429 -0.1402  0.1649
27045W        W45899   8.721   9.046   3.917 -0.2441  0.1201 -0.1705
27046W        W45900   4.831   0.972   0.754 -0.1243  0.0984  0.2645
27047W        W45901  13.793   9.136  13.589  0.1237  0.2347  0.0557
27048W        W45902  11.471   9.443   1.690 -0.3446  0.2645 -0.1750
27049W        W45903  16.243  12.754   2.004 -0.0508 -0.1263 -0.0365
27050W        W45904   7.989   3.842  12.740 -0.1571 -0.0424 -0.1098
27051W        W45905  10.611  17.356   4.751  0.1393  0.1168  0.0187
27052W        W45906   4.236  13.314   1.581 -0.3115 -0.0065 -0.0654
27053W        W45907  13.769   1.031  11.791 -0.0894  0.1914 -0.0561
27054W        W45908   6.704  18.516   3.801  0.0827 -0.1275 -0.0123
27055W        W45909   8.002   6.259   0.054  0.0045  0.5484  0.1151
27056W        W45910   0.691   1.892  12.479 -0.1001 -0.2573 -0.0142
27057W        W45911   7.859   8.525  13.988  0.0687  0.3865 -0.2093
27058W        W45912   5.016  14.147  11.943 -0.0691  0.0353 -0.0643
27059W        W45913   0.757   1.057   1.559  0.1336 -0.3612 -0.2403
27060W        W45914  15.381   6.353  12.075 -0.3596 -0.1876 -0.0123
27061W        W45915   6.102  10.391   2.119  0.1535  0.2232  0.2084
27062W        W45916  14.665  12.291  15.361 -0.1908  0.0257  0.0436
27063W        W45917  14.850  11.941  13.010  0.1626  0.2627 -0.2236
27064W        W45918  17.638   2.797  13.744 -0.2880  0.1045 -0.1506
27065W        W45919  11.238  16.499   2.049  0.1069 -0.3060 -0.0519
27066W        W45920  11.836   2.082  11.229 -0.0707  0.5383 -0.0963
27067W        W45921  14.727   9.953  12.162 -0.0869  0.1695 -0.0319
27068W        W45922  15.739   4.817  13.305 -0.0303 -0.0571  0.1638
27069W        W45923  13.897   8.013  14.348  0.0508 -0.0643 -0.1853
27070W        W45924  13.344  12.290  14.628  0.1760 -0.0242 -0.4735
27071W        W45925  17.566   6.775   1.219  0.2641  0.0189  0.2471
27072W        W45926   0.954   8.982  15.441 -0.2667 -0.1230 -0.0827
27073W        W45927  18.413   9.208  10.130  0.1382 -0.1919 -0.0547
27074W        W45928  10.998   3.952  11.950 -0.0453  0.2120 -0.1644
27075W        W45929  15.852   7.644  15.457 -0.1110 -0.1809  0.1067
27076W        W45930   6.548   4.430   1.671 -0.1001 -0.1198  0.1606
27077W        W45931  10.411   2.098   2.514 -0.0210  0.0170  0.2071
27078W        W45932  14.297  13.662  11.698  0.2262  0.2766  0.0999
27079W        W45933   1.515   3.325   1.348 -0.2239 -0.1144  0.1763
27080W        W45934   5.088  13.455  12.475 -0.0324 -0.1168 -0.0831
27081W        W45935  13.601   3.389   1.856  0.0178 -0.1725  0.1740
27082W        W45936   2.434  13.263   4.253 -0.0143  0.1893 -0.3656
27083W        W45937   4.117   5.739  13.489 -0.2496 -0.2110 -0.0664
27084W        W45938  14.612  13.922   4.406 -0.0792  0.0064 -0.1216
27085W        W45939  14.263  10.621   2.727  0.0215 -0.1540  0.0284
27086W        W45940   0.644   1.669   1.560  0.1881  0.1006 -0.0898
27087W        W45941   9.321   4.925  13.370 -0.3274 -0.3053  0.0484
27088W        W45942  16.514   5.994   0.491  0.1096 -0.0759  0.1958
27089W        W45943   8.285   6.365   4.643  0.3464 -0.0281  0.1891
27090W        W45944  17.305  10.188  12.445  0.2810  0.0275 -0.2236
27091W        W45945  16.145   6.835   4.349  0.1676 -0.1256  0.1482
27092W        W45946   9.293   1.057   4.197 -0.1070 -0.1941 -0.0654
27093W        W45947  17.751   7.798   0.559  0.1918  0.2691 -0.0258
27094W        W45948  15.529  13.898   3.853  0.2598 -0.1069  0.0405
27095W        W45949  17.611   0.236   3.153  0.1342 -0.0860 -0.1969
27096W        W45950  17.893  12.586   1.681 -0.3439  0.0782 -0.3515
27097W        W45951  12.335   5.082  14.301 -0.2960 -0.0745  0.0232
27098W        W45952  16.661  15.181   0.778  0.2127 -0.0398  0.0076
27099W        W45953  11.951   9.155   3.946  0.0966  0.0373 -0.1561
27100W        W45954  10.593  15.740  14.608 -0.0361  0.1641 -0.1498
27101W        W45955   8.030  10.150   1.992 -0.3576 -0.0147  0.0520
27102W        W45956  12.470  13.758   1.247 -0.0582  0.0307  0.0782
27103W        W45957  16.428   5.970   4.356  0.1998  0.2200 -0.0068
27104W        W45958  14.761   0.556   1.229  0.1126 -0.1218  0.1157
27105W        W45959   9.817  15.008  13.062  0.2349 -0.2350  0.1582
27106W        W45960   0.727   4.096  13.977  0.3951  0.2401  0.0460
27107W        W45961  13.940  17.429   3.849 -0.4763  0.2008 -0.0530
27108W        W45962   8.884  14.279   2.676 -0.0081 -0.1730 -0.0061
27109W        W45963   6.458  17.400   5.248 -0.2180  0.0886  0.0808
27110W        W45964  14.342  14.907  15.002 -0.1896 -0.0088  0.1471
27111W        W45965   1.985  10.373   3.920  0.0733  0.1874 -0.0719
27112W        W45966  17.108   2.994   2.466 -0.0358 -0.1043  0.1632
27113W        W45967   3.483  12.977   4.118  0.0851 -0.2294  0.3128
27114W        W45968  11.547   2.697  14.781 -0.3381  0.0665  0.1867
27115W        W45969   4.320  15.452  14.165 -0.0072 -0.0892 -0.0440
27116W        W45970   0.741   0.377  13.792 -0.0365 -0.1626  0.2148
27117W        W45971  10.890  16.170   3.996  0.0698  0.3138 -0.1453
27118W        W45972  12.364   2.707   1.703  0.2183  0.0949  0.1502
27119W        W45973   9.889  16.436  13.606  0.0044 -0.0412  0.0634
27120W        W45974  10.536  12.569   3.077  0.1274 -0.0962 -0.0052
27121W        W45975   6.074   6.292   2.999 -0.2721  0.2142 -0.2056
27122W        W45976  12.537  13.460   4.424  0.0719  0.0499 -0.1239
27123W        W45977   5.656   9.339  13.302 -0.1805 -0.0932 -0.0695
27124W        W45978   5.972   5.329   4.642  0.1895  0.1340  0.0201
27125W        W45979  17.453  13.667  13.578  0.0207 -0.3123 -0.0451
27126W        W45980   1.248   2.889   1.058 -0.2778  0.2326  0.0073
27127W        W45981   1.887   3.399  12.480 -0.1019 -0.0025 -0.4751
27128W        W45982   0.237   0.621  10.296 -0.2003  0.2368 -0.0723
27129W        W45983   7.752   7.197  12.146 -0.0927 -0.0027  0.3751
27130W        W45984  15.061   1.075  10.771 -0.2164 -0.1763  0.0315
27131W        W45985  12.741   2.688  14.195 -0.1006  0.1652 -0.0600
27132W        W45986  14.107  16.717   2.031 -0.1210 -0.1139  0.3724
27133W        W45987   8.755  13.731  13.538  0.4853  0.0015  0.2228
27134W        W45988   8.872   0.932   2.254  0.1769  0.0056  0.1509
27135W        W45989   8.954   5.328   2.965  0.2949 -0.1078 -0.1599
27136W        W45990   3.954   0.403  14.042  0.1763 -0.0889  0.1329
27137W        W45991   6.037  10.485  12.830 -0.3713  0.0417  0.0591
27138W        W45992   3.707   6.960  13.763 -0.1138 -0.0541 -0.0751
27139W        W45993  13.301   3.604  12.867  0.1540  0.0306 -0.2454
27140W        W45994  16.909   9.150  15.118  0.0652 -0.0290 -0.4677
27141W        W45995  13.263   6.862   1.358  0.1257  0.1405  0.0863
27142W        W45996   8.686   6.131  15.324 -0.1513  0.3197 -0.1302
27143W        W45997   1.483  13.003  11.336  0.3111 -0.1508  0.0843
27144W        W45998   2.828   7.480  12.778  0.3212 -0.0833  0.0754
27145W        W45999   2.749   3.056  11.059  0.0305 -0.1123 -0.2236
27146W        W46000   6.326  11.282  12.037  0.2052 -0.0673 -0.4432
27147W        W46001  17.765   2.336  12.728  0.0317  0.0633 -0.3646
27148W        W46002   5.273  13.929  11.082 -0.0294 -0.0876 -0.1611
27149W        W46003  12.377   6.826  14.496  0.1323  0.2454  0.2429
27150W        W46004   8.781   1.819  13.389 -0.1293 -0.1020  0.0360
27151W        W46005  14.280  16.384   1.627 -0.2685 -0.4290  0.2546
27152W        W46006  12.214   6.130   4.270  0.1323  0.0241 -0.0257
27153W        W46007   8.835   6.178  13.008  0.2760  0.0930  0.0952
27154W        W46008  12.249   9.214  12.189  0.0745 -0.1587 -0.1515
27155W        W46009  11.768  14.828   6.381 -0.0530  0.2740  0.0705
27156W        W46010  11.743  16.620  14.972  0.1036 -0.2662  0.0187
27157W        W46011  17.025  17.906   4.348 -0.1151 -0.2549  0.2819
27158W        W46012  17.474   8.761   9.854  0.2786 -0.0154 -0.2258
27159W        W46013  10.278   8.049  13.842 -0.0811 -0.2256  0.4311
27160W        W46014  11.670   2.487  11.506 -0.1624 -0.0324  0.0458
27161W        W46015  11.487  17.992  13.887  0.0437  0.1969  0.1297
27162W        W46016  10.408   5.265   1.738  0.1222  0.1804 -0.0037
27163W        W46017   1.759   1.642  15.457 -0.0481 -0.0699 -0.0283
27164W        W46018   4.608  16.863   3.082 -0.1776 -0.1104  0.2184
27165W        W46019  17.079  11.358  13.489  0.0616  0.1293 -0.1386
27166W        W46020  13.966  13.185  12.626 -0.1797 -0.0375  0.0598
27167W        W46021   3.142  16.499   0.116 -0.3667 -0.1838 -0.3252
27168W        W46022  14.853  17.252   3.786 -0.0091  0.0075 -0.1424
27169W        W46023  12.992   7.626   1.988  0.0804  0.1058 -0.4613
27170W        W46024   9.547  12.308   0.822  0.2303  0.2000  0.1072
27171W        W46025  11.256   4.329   1.893 -0.1353  0.0668 -0.0977
27172W        W46026   6.671   3.939   2.428  0.1876  0.0596 -0.1100
27173W        W46027   0.087   8.750  15.431 -0.2160 -0.1271  0.2718
27174W        W46028  15.434  13.923  13.731  0.0738  0.1012  0.3813
27175W        W46029   3.218   9.226  11.369 -0.0839 -0.0911 -0.0613
27176W        W46030   2.394   9.729   3.531  0.2782  0.1426  0.2198
27177W        W46031   7.115  17.119  10.712 -0.0713  0.1373  0.2789
27178W        W46032   6.908   5.342  14.370 -0.1944 -0.0250 -0.1252
27179W        W46033  15.324  12.099   0.708  0.0042  0.2035  0.0249
27180W        W46034   6.381   7.770  12.408  0.4306  0.0855  0.0683
27181W        W46035   0.945  16.105   2.834 -0.1458 -0.1031 -0.0620
27182W        W46036  16.140  12.147  14.554  0.1842  0.3438 -0.1109
27183W        W46037   8.150   6.962  15.256 -0.1326 -0.1394 -0.0928
27184W        W46038  13.485  16.082  13.723 -0.0102 -0.0782  0.2131
27185W        W46039  16.279  12.817   4.795 -0.0617 -0.1487 -0.0404
27186W        W46040  13.856   9.774   2.777  0.4526  0.0250 -0.2660
27187W        W46041  13.212   9.457   3.516  0.0919  0.2139 -0.2563
27188W        W46042   6.780   3.051   2.270 -0.0442 -0.0759  0.2663
27189W        W46043  17.002  12.344  10.945 -0.1660 -0.2473 -0.2184
27190W        W46044  14.663  12.254   2.992  0.1347  0.1723 -0.3200
27191W        W46045   2.095   9.145   2.842  0.1573  0.1769  0.2788
27192W        W46046   4.687  14.448  15.344 -0.0081  0.1006  0.2189
27193W        W46047   3.987   2.884  12.912  0.2567 -0.2253 -0.0104
27194W        W46048   4.314  17.502   2.192  0.2009  0.1139  0.0189
27195W        W46049  14.211  17.299   4.400  0.2742 -0.2214 -0.0548
27196W        W46050   1.487   8.600   2.898  0.1605  0.0323  0.1300
27197W        W46051   9.135  10.986  14.648  0.0501  0.1306  0.0090
27198W        W46052   8.973  13.370  14.736 -0.0650 -0.0153  0.0114
27199W        W46053  12.530   0.791   0.304 -0.0400  0.2752 -0.0695
27200W        W46054   6.656   3.544  13.807 -0.4055  0.0441 -0.1377
27201W        W46055  17.218  12.813  11.076  0.4088  0.2516 -0.3479
27202W        W46056  17.696  14.361   3.339 -0.1197  0.0423 -0.0773
27203W        W46057  12.196   8.801   2.462 -0.0610  0.0337 -0.1701
27204W        W46058  15.646  13.305  10.100  0.1781 -0.1512  0.1129
27205W        W46059  17.308  15.702   1.221 -0.0899  0.0800  0.1176
27206W        W46060   9.115  16.720  13.060 -0.1668 -0.1207  0.2667
27207W        W46061  17.223  17.320  10.039  0.2885  0.3131 -0.4263
27208W        W46062   5.244   1.255  12.083 -0.0694 -0.1047  0.3883
27209W        W46063   1.005   9.259  11.056  0.1665  0.0438 -0.0788
27210W        W46064   5.786   3.550  14.176  0.1044  0.1786 -0.1193
27211W        W46065  18.009  13.821  12.894  0.1446 -0.0515 -0.1883
27212W        W46066   1.820   5.782  12.572 -0.3755 -0.0931  0.0451
27213W        W46067  15.290  16.961   3.764 -0.5150  0.0577 -0.0731
27214W        W46068  15.768  18.041  12.246 -0.0909 -0.1151  0.3453
27215W        W46069   0.955   4.840  11.764 -0.1559 -0.2365 -0.0282
27216W        W46070   4.314  10.280   0.198 -0.2995  0.2035 -0.4074
27217W        W46071   6.197  11.415   2.085 -0.1433 -0.0578  0.0857
27218W        W46072   8.507  10.188  13.756  0.0015  0.0760 -0.0821
27219W        W46073   2.467  14.794  11.492  0.0051  0.3541  0.2348
27220W        W46074   2.989  12.245  11.335  0.2892  0.0009  0.1117
27221W        W46075   6.110   3.279   1.062  0.0179  0.1686 -0.0787
27222W        W46076  14.902  17.977  14.031  0.3240  0.2066 -0.0928
27223W        W46077   9.446   9.645  14.636 -0.0864  0.1736 -0.0471
27224W        W46078  16.238   5.345  11.036 -0.2019  0.0464 -0.0081
27225W        W46079  17.407  10.078   3.740  0.3095  0.1346 -0.2560
27226W        W46080  13.502   4.847  12.653 -0.4698 -0.0051  0.0104
27227W        W46081  12.203  13.798  11.244 -0.0572  0.0406  0.2801
27228W        W46082   3.850  11.871  13.555  0.0041 -0.0934  0.0035
27229W        W46083  14.732  14.770   4.119 -0.1463  0.1188  0.0116
27230W        W46084   0.958   9.379   1.925  0.1747  0.0989  0.2592
27231W        W46085  14.242   4.147   0.834  0.2896  0.1089 -0.1641
27232W        W46086  16.754   7.874  12.530 -0.1418 -0.0722  0.1430
27233W        W46087   3.675   5.445   3.772  0.1063 -0.0884 -0.1574
27234W        W46088  15.261  13.597  12.750 -0.1297 -0.1099 -0.1277
27235W        W46089   8.031  10.467   4.142  0.2084 -0.1084 -0.1299
27236W        W46090   2.095   5.392  14.887  0.0610 -0.2560  0.5266
27237W        W46091   6.296  17.568  15.137  0.2706  0.1308 -0.0893
27238W        W46092   6.444  16.515   3.160  0.1807  0.0863  0.1934
27239W        W46093  11.236  11.930  11.829 -0.2928  0.1057  0.0870
27240W        W46094  11.216  18.243  11.343  0.3428 -0.1487 -0.3633
27241W        W46095  18.539  16.501   1.293  0.2119  0.2954 -0.3411
27242W        W46096   1.324   3.847   0.136  0.1311 -0.2017  0.3013
27243W        W46097   0.069  14.380   0.972  0.1344 -0.3073  0.0075
27244W        W46098  14.996   5.536  12.203  0.1101  0.0410  0.1279
27245W        W46099  11.221   1.330  14.695 -0.1022 -0.1201 -0.1855
27246W        W46100  12.285  17.855   0.375 -0.3047  0.0544  0.1770
27247W        W46101  12.533  15.178  13.383 -0.0482 -0.0840  0.0800
27248W        W46102   8.248  13.419  11.851  0.0644  0.1912 -0.0211
27249W        W46103   7.605   1.462  12.763  0.0578 -0.1489  0.0562
27250W        W46104   0.576   3.447   3.534 -0.0905 -0.1965  0.0890
27251W        W46105  15.264  10.645   1.727 -0.0565  0.0196  0.4428
27252W        W46106   2.860  12.736  15.334 -0.0136 -0.2111 -0.1626
27253W        W46107   2.164   5.995  13.692 -0.0150 -0.0951 -0.1472
27254W        W46108  13.173  17.345  12.715  0.0745 -0.2035  0.0766
27255W        W46109   0.317  16.226  11.435 -0.0465  0.0986 -0.0428
27256W        W46110  11.428  10.753   0.410  0.0215 -0.0326 -0.2707
27257W        W46111   9.978   7.487   4.554  0.0811 -0.0184 -0.3512
27258W        W46112  14.107   2.847  11.630 -0.0103 -0.0203  0.1763
27259W        W46113  18.348   2.969   3.522  0.0709  0.1887 -0.0491
27260W        W46114  13.449   8.900  14.519  0.2026  0.0911 -0.0124
27261W        W46115  15.768  15.276  11.038  0.0517 -0.1452 -0.0379
27262W        W46116   8.562  17.197   1.015 -0.1420 -0.2160 -0.1345
27263W        W46117  13.975  16.597  12.979  0.3159 -0.1537  0.3045
27264W        W46118  16.938  17.785   3.823  0.3005  0.3649 -0.0584
27265W        W46119  11.110  17.654   2.555  0.1977 -0.0260 -0.0263
27266W        W46120   7.398   1.973  14.170  0.1903  0.0718 -0.0073
27267W        W46121   4.102   3.251  12.101  0.0529  0.3089 -0.2016
27268W        W46122  17.131  10.319   0.122  0.1213 -0.1877 -0.0904
27269W        W46123  16.835  16.926  11.504  0.1014  0.4084  0.2823
27270W        W46124   7.105   0.119  14.165 -0.0799 -0.0873  0.1539
27271W        W46125  18.248  17.113  12.934  0.1132 -0.2317 -0.0058
27272W        W46126   5.018  15.417   1.467  0.0306 -0.2524 -0.0915
27273W        W46127   9.871  15.070   3.623  0.2151 -0.1484  0.1452
27274W        W46128   9.217   5.356   0.060 -0.0584 -0.1819  0.0951
27275W        W46129   8.882   6.199   2.517  0.0184 -0.1637  0.5197
27276W        W46130   7.224  12.719   0.477 -0.0563 -0.1801 -0.0344
27277W        W46131   6.139  10.306   3.038 -0.1859  0.1313  0.0123
27278W        W46132  18.056  16.440  15.376 -0.2242 -0.0927 -0.1832
27279W        W46133   1.603   4.726  13.560  0.2828 -0.1845  0.1042
27280W        W46134   2.870  16.695  14.185 -0.0873  0.1563  0.0968
27281W        W46135   1.417  17.963  12.438  0.1950  0.0508  0.1852
27282W        W46136  16.120  10.446  12.455  0.3800 -0.0285  0.0634
27283W        W46137   8.349   9.197  14.572 -0.0307  0.1082  0.0036
27284W        W46138  12.251   4.772  12.682 -0.2257 -0.0759 -0.1192
27285W        W46139  11.201   2.483  11.744  0.2249 -0.1398 -0.1928
27286W        W46140   6.493   5.107  13.150  0.1235  0.1002 -0.1768
27287W        W46141   5.822   2.941  13.542  0.1542  0.2786 -0.1416
27288W        W46142   7.908  15.177  15.014 -0.0467  0.2290  0.0999
27289W        W46143   8.312   1.103   4.727 -0.2200 -0.0386 -0.0983
27290W        W46144   9.127   3.634   4.545  0.2109  0.0660  0.1615
27291W        W46145   4.586  11.500  11.448 -0.0136 -0.2533 -0.0678
27292W        W46146   6.439   3.183   4.715 -0.1615  0.3272 -0.1070
27293W        W46147  10.698  10.492   2.279 -0.0543 -0.1812 -0.1899
27294W        W46148   5.279   5.256   3.288 -0.1979  0.0574  0.3066
27295W        W46149  15.914   4.230   1.605 -0.0296 -0.1608  0.0482
27296W        W46150  18.260   1.039  15.087  0.0546  0.0974  0.0959
27297W        W46151  10.520   9.299  13.863 -0.0477 -0.2714  0.0200
27298W        W46152  14.381   3.782  13.836 -0.2624 -0.2414  0.2334
27299W        W46153   9.924  17.546   0.204 -0.0580 -0.0740 -0.1595
27300W        W46154  18.052  11.205   3.547  0.3391  0.2079 -0.0904
27301W        W46155  16.701  16.457  13.167 -0.3111 -0.0360  0.2452
27302W        W46156  10.089   3.401   3.650 -0.0623  0.0906 -0.1091
27303W        W46157   4.391   8.597  13.299 -0.0687 -0.3338 -0.1703
27304W        W46158   2.901  12.200   2.956 -0.3201  0.1934 -0.0179
27305W        W46159   8.423  15.160   0.721  0.1382  0.0183 -0.1777
27306W        W46160   9.823  14.332  12.113  0.1575  0.1443 -0.1579
27307W        W46161   5.642   3.845   3.457  0.3728 -0.1144  0.1787
27308W        W46162  14.181  14.856   0.133 -0.1463 -0.0581 -0.1450
27309W        W46163  10.439  10.824  13.736 -0.5046  0.2356  0.0251
27310W        W46164  13.766  16.181   0.530  0.0209  0.1384  0.1024
27311W        W46165   1.624  10.824  12.975 -0.2492 -0.0217 -0.0652
27312W        W46166   4.272   5.063  11.879  0.1129  0.2631  0.0023
27313W        W46167  13.939   8.315  15.293  0.2057 -0.1832 -0.3514
27314W        W46168  11.252  12.117  12.315  0.2768  0.0605  0.0639
27315W        W46169  18.408   8.100  11.838  0.0278 -0.1435  0.1227
27316W        W46170   7.406   7.184   2.992 -0.1588 -0.1147 -0.1090
27317W        W46171  15.392   8.019  14.941  0.1492  0.2275  0.0237
27318W        W46172   0.040  15.319  15.055  0.2040  0.3267 -0.1007
27319W        W46173  15.444  17.364   1.643 -0.4693 -0.3281  0.0869
27320W        W46174   0.534   7.980  15.337 -0.0945 -0.3493  0.2375
27321W        W46175   0.256   5.538  12.569  0.0231 -0.1158  0.0618
27322W        W46176  17.480   3.641  15.270  0.0249  0.2804 -0.0111
27323W        W46177  16.085   5.245  13.475  0.2933  0.0185  0.1193
27324W        W46178   6.085  10.063   2.497  0.1147  0.2837 -0.4251
27325W        W46179   1.972   5.746  13.027 -0.2212  0.0085 -0.2558
27326W        W46180  13.245   6.917   4.761 -0.0720 -0.0049  0.3381
27327W        W46181  13.668  12.922  14.066 -0.1535  0.1415  0.0475
27328W        W46182  12.446  11.055  12.926 -0.2638  0.1649  0.0462
27329W        W46183  15.537   7.079  11.268  0.1502 -0.0651  0.1988
27330W        W46184   2.489   9.136   0.952  0.0091 -0.1945  0.0765
27331W        W46185   0.130  17.911  14.372 -0.2033 -0.1322  0.3845
27332W        W46186   4.520   0.640  10.621  0.1942 -0.2375 -0.1007
27333W        W46187   4.019   5.865  11.411  0.0183 -0.0082 -0.0827
27334W        W46188  16.006  12.067  13.992  0.0766  0.3257  0.1103
27335W        W46189   5.938   1.784   2.012 -0.4041  0.1823  0.2517
27336W        W46190  17.204   0.310   2.426 -0.1021 -0.2656 -0.2848
27337W        W46191   2.809   3.377  15.168 -0.1380 -0.2919  0.1394
27338W        W46192   3.551   8.937  12.131  0.1282 -0.3694 -0.1775
27339W        W46193   3.594  17.724  11.025 -0.0790  0.1317 -0.1643
27340W        W46194   9.121   6.135   1.741  0.2017  0.0596 -0.2028
27341W        W46195   7.094  12.765   3.292 -0.0757  0.3286  0.1775
27342W        W46196   7.233   0.346   3.829  0.3619 -0.0365  0.2252
27343W        W46197  17.248   2.151   2.192  0.4359 -0.1072  0.0762
27344W        W46198   3.651   5.865   1.005  0.0950 -0.0292 -0.1387
27345W        W46199   7.355  12.332   1.685  0.0891  0.4312 -0.1996
27346W        W46200  13.689   8.936  13.099 -0.0851 -0.0502  0.1674
27347W        W46201  16.914   2.394  10.840  0.1484 -0.1104 -0.2149
27348W        W46202   1.220   1.950  12.512 -0.1364 -0.5715  0.1979
27349W        W46203  11.328  11.853   0.819  0.1201 -0.0582  0.0313
27350W        W46204   2.206   7.252   3.947 -0.0282  0.0003  0.1697
27351W        W46205  13.002  12.391   4.146 -0.3210  0.0942 -0.0969
27352W        W46206   7.953  13.059  14.844  0.0279  0.1465  0.0309
27353W        W46207   6.257   2.745  13.617 -0.2484  0.1453  0.0082
27354W        W46208  18.466  18.342  15.258 -0.2454  0.0238  0.1506
27355W        W46209   6.728   6.610  12.599 -0.2328 -0.3031  0.0942
27356W        W46210   7.645   3.112  12.478 -0.3105  0.0845  0.2413
27357W        W46211   1.262   5.983  15.038 -0.0699  0.3761 -0.0954
27358W        W46212   1.087   8.089  15.142 -0.0611  0.2229  0.4299
27359W        W46213   5.533  11.920   0.300 -0.0423  0.0707 -0.1202
27360W        W46214   7.074  17.545   2.645 -0.1459 -0.2476  0.0031
27361W        W46215   5.869  11.156   0.592 -0.2695  0.2544 -0.0790
27362W        W46216  12.255   9.398  11.763 -0.2490  0.1367  0.2384
27363W        W46217   5.802  18.053   3.722 -0.3884  0.0657 -0.1844
27364W        W46218   9.110   1.184   1.764  0.0793  0.5679 -0.3231
27365W        W46219   0.962   0.932  12.718  0.1819  0.0063  0.0556
27366W        W46220   3.784  16.434  12.223  0.2274 -0.0539 -0.2116
27367W        W46221  14.903   5.296  13.701 -0.1478  0.2560 -0.0634
27368W        W46222  16.092  14.119   4.409  0.0209  0.0777  0.0817
27369W        W46223   9.741   9.398  12.659 -0.2301 -0.2186  0.2536
27370W        W46224  17.864   2.161   1.331 -0.3604  0.0800 -0.0584
27371W        W46225   8.613   3.538  13.393  0.2177  0.4213  0.3691
27372W        W46226   5.177   5.972   4.556 -0.2897  0.5456 -0.2002
27373W        W46227   6.742   1.412  15.153  0.0748  0.0464 -0.3018
27374W        W46228   6.756  10.108  14.373 -0.1815 -0.0249  0.0023
27375W        W46229   2.188   5.117   5.131  0.0175  0.2284  0.0064
27376W        W46230   6.878   9.104   2.662  0.0075 -0.0328 -0.0419
27377W        W46231  14.727   1.664   0.782  0.0749  0.1354 -0.0088
27378W        W46232  10.089   3.333   4.160 -0.0296  0.0767  0.3487
27379W        W46233  16.904   9.185   1.558  0.3376 -0.0163  0.0014
27380W        W46234   4.373  16.311   3.968  0.1204  0.0488 -0.2716
27381W        W46235   0.525   4.756  15.181  0.1852 -0.1203 -0.0456
27382W        W46236   1.174  11.809  11.752  0.1230 -0.3727 -0.0014
27383W        W46237   7.836  10.036  14.740 -0.0499 -0.0373  0.1558
27384W        W46238   5.527  15.039   4.055  0.0138 -0.2616 -0.0028
27385W        W46239  14.932  15.289  13.088  0.1255  0.1447  0.0582
27386W        W46240  18.275   3.623   3.506  0.0295 -0.1912  0.0049
27387W        W46241   1.207   9.993  13.673 -0.2902 -0.1601  0.1393
27388W        W46242   0.688   6.354  13.541  0.1159 -0.0068 -0.0372
27389W        W46243  16.819   7.366   1.222  0.2282 -0.1118  0.2608
27390W        W46244   9.098   0.885  13.344 -0.0257  0.0645 -0.0476
27391W        W46245  14.050   7.016   2.861 -0.1066  0.1667  0.1951
27392W        W46246  16.325   2.125   1.263 -0.0666  0.1068  0.1089
27393W        W46247  11.357   7.477   3.308 -0.0313  0.2245  0.1133
27394W        W46248   6.795  12.282   3.985 -0.0430  0.0339  0.2007
27395W        W46249  14.352  15.416   0.327  0.1005 -0.1593  0.0692
27396W        W46250  14.178   4.756  14.184 -0.2438  0.0501  0.2938
27397W        W46251  10.483   8.336  14.182 -0.1065  0.1040 -0.2037
27398W        W46252   4.051   7.908   0.348  0.1244 -0.2587  0.2454
27399W        W46253   3.958  15.562  13.281 -0.0045  0.0119  0.0987
27400W        W46254   9.748  11.740   4.738 -0.4846 -0.2208 -0.0604
27401W        W46255  16.879   8.316  13.341  0.1352 -0.0451 -0.1025
27402W        W46256  14.008   4.945  13.430  0.3036 -0.0186 -0.1035
27403W        W46257  14.896   4.170  12.336 -0.0054  0.2951  0.0997
27404W        W46258   3.734  18.348   3.942  0.1226  0.1868 -0.1734
27405W        W46259  16.399   7.922  11.148 -0.1857  0.1920 -0.1829
27406W        W46260   2.812   7.898   1.336 -0.0740 -0.2522 -0.1463
27407W        W46261  14.677  17.506   1.839  0.1920  0.2084 -0.1604
27408W        W46262  14.946  13.268  12.192 -0.0687  0.0102  0.2346
27409W        W46263   2.145  12.566  13.330 -0.1109 -0.3151 -0.0256
27410W        W46264  17.134  12.261  15.256 -0.0110 -0.2202 -0.0172
27411W        W46265  10.390  11.892   3.723  0.0056 -0.1441 -0.0767
27412W        W46266   6.301   6.487   2.218 -0.0373  0.0949  0.0480
27413W        W46267  14.116  16.252  11.222 -0.0805 -0.0398  0.0629
27414W        W46268   8.916  13.491   0.777  0.0289  0.0896  0.2282
27415W        W46269  15.224   9.878   4.013  0.1615  0.1008 -0.0303
27416W        W46270   6.920  17.251  11.545 -0.1680  0.0731 -0.0195
27417W        W46271  12.382  15.611   1.306  0.0830  0.1327  0.1662
27418W        W46272  12.532  13.643   1.961 -0.0148  0.2525 -0.2206
27419W        W46273   0.267  17.642   3.992 -0.1857  0.0287  0.0930
27420W        W46274  12.187   5.956   2.399 -0.1785 -0.1125 -0.1515
27421W        W46275  17.378  11.883   3.864  0.2372 -0.1499 -0.1286
27422W        W46276   2.216  13.912  14.854 -0.0316  0.0145 -0.2559
27423W        W46277   7.409   2.295   1.667  0.1094  0.0096  0.0336
27424W        W46278   0.145  10.950  14.926  0.0581  0.0948  0.0353
27425W        W46279   4.322   0.507   2.721 -0.3089 -0.0286 -0.2730
27426W        W46280   1.394  17.461  12.575 -0.2672 -0.2480 -0.2943
27427W        W46281  16.364  13.775  11.038 -0.0757 -0.0428 -0.2167
27428W        W46282   6.950  14.908  12.253 -0.0856  0.3083  0.1897
27429W        W46283   6.385  10.790   4.377  0.1833 -0.0195  0.1156
27430W        W46284   1.194   1.543  12.119  0.1252  0.0153  0.0944
27431W        W46285  17.560  18.554  13.542 -0.0561  0.0591  0.1185
27432W        W46286   9.348   3.862   1.339 -0.1720 -0.0016  0.1335
27433W        W46287  13.240  12.755  14.275 -0.2965  0.1997 -0.0559
27434W        W46288  16.137  17.808   3.987 -0.0684 -0.0384  0.2901
27435W        W46289  17.230   5.106   0.806 -0.1052 -0.0447 -0.1927
27436W        W46290   6.490   2.293  13.679  0.2851 -0.0621 -0.0238
27437W        W46291   8.538   2.069   3.822 -0.2046  0.0320  0.3649
27438W        W46292   7.476  17.257   0.166  0.1628 -0.0485 -0.0790
27439W        W46293   6.150   0.055  15.042  0.0929 -0.3346  0.1246
27440W        W46294   4.159   4.155  12.434 -0.0958  0.1329 -0.0182
27441W        W46295   1.912  14.542  13.565  0.3147 -0.0110  0.0794
27442W        W46296   4.688   2.859   9.888  0.1941 -0.2194 -0.0441
27443W        W46297  18.196   9.747   1.263 -0.0973  0.0062  0.1492
27444W        W46298  17.668   5.964   5.695 -0.2171  0.1035 -0.2301
27445W        W46299  12.963  13.979   1.318 -0.2452  0.1701  0.0820
27446W        W46300  14.298   0.331  13.970  0.0115 -0.0474  0.2343
27447W        W46301   5.478  11.186  12.585  0.0931 -0.1512 -0.1213
27448W        W46302   9.432   2.421  12.219  0.0941 -0.1073  0.0781
27449W        W46303  11.605  17.834  12.701  0.0738  0.1196 -0.0633
27450W        W46304  15.992   8.053   1.561  0.3838 -0.1292 -0.1118
27451W        W46305   7.650   9.097   4.306 -0.2356  0.3113  0.0982
27452W        W46306  17.497  16.390   1.477 -0.0641  0.0578 -0.1126
27453W        W46307   8.700  15.723  13.118  0.0292  0.0362  0.1651
27454W        W46308  10.488   5.799   1.185  0.0471 -0.0570 -0.1756
27455W        W46309  14.778   4.065   3.058  0.0479 -0.0313  0.2000
27456W        W46310   6.253  14.209  12.899  0.0159 -0.1700  0.2652
27457W        W46311   1.239   0.648  14.439 -0.1202  0.1049 -0.2107
27458W        W46312   6.212   9.519   3.981  0.0183  0.1258 -0.0388
27459W        W46313   0.932   5.988   1.491 -0.0099 -0.1731  0.0853
27460W        W46314  12.145  15.333   3.991 -0.3707  0.1736 -0.2519
27461W        W46315   1.851   1.865   5.302 -0.0860  0.2247 -0.1228
27462W        W46316   2.313   1.014   3.314  0.2182 -0.0324  0.3279
27463W        W46317   3.945   2.582   2.595  0.0423 -0.0783  0.3869
27464W        W46318  10.438   3.485  12.723 -0.0214 -0.1092  0.4529
27465W        W46319   0.409  11.422  11.108  0.1751  0.1603 -0.3679
27466W        W46320   8.068  14.527   1.612  0.1238 -0.0610  0.0167
27467W        W46321   8.482   3.187  14.409 -0.1816 -0.1446 -0.0058
27468W        W46322   9.090  15.511   3.921  0.1232 -0.2596  0.0510
27469W        W46323  13.152   3.944  12.059  0.1287 -0.0208  0.3704
27470W        W46324  10.112   0.972  14.823 -0.0240  0.0366  0.0322
27471W        W46325   4.813  15.018   2.246 -0.0574  0.0445 -0.1063
27472W        W46326   6.282   9.026   3.257 -0.1039  0.2414 -0.0918
27473W        W46327   6.357  10.880   2.879  0.3965 -0.1660 -0.0404
27474W        W46328  10.866   8.580  11.733 -0.1500 -0.2362  0.0019
27475W        W46329   9.480   9.129   2.086 -0.2027 -0.2778 -0.0391
27476W        W46330  16.347  16.504  12.006  0.1096 -0.0667 -0.0966
27477W        W46331   1.250   3.228  15.299  0.2346 -0.0879  0.1066
27478W        W46332  17.710  17.721   3.587  0.1085  0.2397 -0.1690
27479W        W46333   1.497   4.913  12.429  0.0053  0.1637 -0.0448
27480W        W46334  15.492  15.902  14.554 -0.1144 -0.0605  0.1691
27481W        W46335   4.229   2.047  11.507  0.0269 -0.0511 -0.0773
27482W        W46336   1.207  13.591  10.709  0.0308  0.0626 -0.0970
27483W        W46337   1.816  12.357  10.978  0.3577 -0.1151 -0.4523
27484W        W46338   1.213   0.194  13.647 -0.2181 -0.2381  0.0493
27485W        W46339  14.963  16.695   1.934  0.0870 -0.1790 -0.0973
27486W        W46340   7.315   2.072  14.677 -0.1586  0.1162  0.2008
27487W        W46341   2.329   1.283   2.867  0.1807 -0.1006 -0.0162
27488W        W46342   2.729  12.500  12.581  0.0318  0.0437 -0.0177
27489W        W46343   2.101   7.106   3.421 -0.0561 -0.3483  0.0817
27490W        W46344  13.514  12.521  13.817 -0.0612  0.1255  0.2028
27491W        W46345  18.496   4.368  14.473  0.0355 -0.0840  0.1389
27492W        W46346  11.230  16.640   2.650 -0.0596  0.1973  0.0124
27493W        W46347  10.535   5.189  11.240  0.3593 -0.1502 -0.3420
27494W        W46348   9.817  12.028  13.343  0.1357 -0.0820 -0.0621
27495W        W46349   7.267  15.024   0.419  0.0331 -0.3684  0.3785
27496W        W46350   6.216   5.080  15.070 -0.3993 -0.0680  0.0649
27497W        W46351  15.535  13.089  10.945  0.1970 -0.0051  0.1721
27498W        W46352  12.172   8.620   1.063  0.2016 -0.0138 -0.0886
27499W        W46353   1.404   7.957  13.350 -0.2226 -0.2836  0.4095
27500W        W46354  17.258   6.921  11.531 -0.2372  0.0715 -0.0290
27501W        W46355  17.080   4.465   3.959 -0.0221  0.2725 -0.0268
27502W        W46356  17.517  14.173   0.214 -0.1904 -0.1584 -0.0347
27503W        W46357  17.740   7.782   3.932 -0.0072  0.2297  0.3523
27504W        W46358   6.924  10.858  15.092 -0.2479 -0.0412  0.1015
27505W        W46359  15.028  18.230   3.652  0.1339  0.1521  0.1229
27506W        W46360  16.511  12.971  13.689 -0.4708  0.0074 -0.1152
27507W        W46361   6.521   5.863  13.864 -0.0001 -0.1953 -0.3708
27508W        W46362  12.600   1.250  12.158  0.3465  0.0252 -0.0644
27509W        W46363   9.424   1.509   4.582  0.0061 -0.1551 -0.0627
27510W        W46364  10.190  16.730   0.868  0.2032 -0.0887 -0.2993
27511W        W46365  18.429  11.247  11.697  0.0862  0.3594 -0.0119
27512W        W46366  13.418  10.968   4.722 -0.2760 -0.0510  0.0100
27513W        W46367  12.880   7.677   0.195  0.1989 -0.1987  0.0565
27514W        W46368   3.709   1.977   1.064 -0.3761 -0.0263  0.1799
27515W        W46369  13.949   0.714   4.109  0.3526 -0.0905 -0.4282
27516W        W46370   7.457  12.847  13.984 -0.2885 -0.0380  0.2309
27517W        W46371  11.539  17.502  10.077 -0.0536 -0.0206  0.1586
27518W        W46372  10.461  15.295   3.101  0.0224  0.0325 -0.1719
27519W        W46373   3.190  16.318  14.105  0.2701 -0.0613 -0.0713
27520W        W46374   5.225   4.647  12.794  0.1466 -0.3745 -0.2634
27521W        W46375  13.218   5.284   1.929 -0.1997 -0.1112 -0.1193
27522W        W46376  15.300  12.942  13.949 -0.0971  0.0927 -0.1993
27523W        W46377   9.788   4.422  12.235  0.0472  0.2284 -0.0346
27524W        W46378   7.626   4.827   1.731 -0.1751  0.1095 -0.0535
27525W        W46379   4.004   5.383  13.130 -0.2031  0.4709 -0.1117
27526W        W46380   5.876   8.603   4.028 -0.3971 -0.0002 -0.1564
27527W        W46381   8.476   7.155  12.686  0.0345 -0.0513  0.0480
27528W        W46382  16.731   2.000  15.206  0.2590  0.0272  0.1241
27529W        W46383   5.754  10.346  14.782  0.2009 -0.0392 -0.2286
27530W        W46384  14.545  10.101   1.200 -0.0399  0.0961 -0.1817
27531W        W46385   9.083  12.127  13.800  0.0240 -0.2676 -0.2712
27532W        W46386  17.170   9.785  12.757  0.1819 -0.2572 -0.3611
27533W        W46387   1.594   5.991  13.825  0.1208 -0.0421 -0.1072
27534W        W46388  15.328   2.259  15.258 -0.3930  0.1556  0.2062
27535W        W46389   8.132   9.262   0.451 -0.0088  0.0066  0.1824
27536W        W46390  15.780   3.988   0.138  0.2011  0.1782  0.0101
27537W        W46391  18.275   0.107   2.489 -0.1546  0.3114 -0.0370
27538W        W46392  15.796   3.923  12.437  0.1995 -0.0787  0.2184
27539W        W46393   4.020   8.742   0.460 -0.3426  0.0757  0.1341
27540W        W46394   3.720   9.066  11.553 -0.4855  0.0020  0.0783
27541W        W46395   9.034  10.487  12.607  0.2555  0.0391 -0.1563
27542W        W46396  16.313   0.024   2.825  0.1450  0.0132  0.2491
27543W        W46397  14.406   2.046  12.258 -0.3935  0.1971  0.3362
27544W        W46398   0.887  12.904  12.071 -0.1896 -0.0131  0.2093
27545W        W46399   2.991   5.416   3.036  0.2844 -0.0988 -0.3384
27546W        W46400   5.021   9.083  11.123  0.0594  0.0930  0.2879
27547W        W46401  16.951  10.302  12.765  0.2995 -0.2935 -0.1423
27548W        W46402  12.851   7.679   3.459  0.2848 -0.2793 -0.1067
27549W        W46403   4.057   2.802   0.758  0.2724  0.0986  0.1297
27550W        W46404   6.368  11.070  15.126  0.4408  0.2166  0.1363
27551W        W46405  17.349   1.022  11.005 -0.2086  0.3134 -0.0659
27552W        W46406   1.785  18.279  11.513 -0.0431 -0.1462  0.4053
27553W        W46407  12.976  11.644  12.682 -0.0937 -0.1339  0.2848
27554W        W46408  11.769  15.259   1.979 -0.0010  0.0299 -0.2515
27555W        W46409   4.062  16.821   1.091 -0.0144  0.1264  0.2439
27556W        W46410  14.801   0.206   0.830  0.0830  0.2469 -0.0874
27557W        W46411   1.693   0.195  10.704  0.2996  0.0013 -0.0513
27558W        W46412   8.099   0.691   3.447  0.0656 -0.0453 -0.0843
27559W        W46413  15.382   4.252  12.460  0.1603 -0.2744 -0.0891
27560W        W46414  12.856   0.199   2.931 -0.0611 -0.0924 -0.1660
27561W        W46415  13.017   3.484  11.225  0.1686 -0.0706 -0.0935
27562W        W46416  14.943   9.182   1.478 -0.2073 -0.3673 -0.1218
27563W        W46417  13.289   2.091   0.681 -0.2294 -0.0794  0.3582
27564W        W46418   6.511   6.300  12.288 -0.4402 -0.0156  0.0123
27565W        W46419  17.339   5.542  10.895  0.2305 -0.0236  0.0206
27566W        W46420   5.667   1.698   2.816  0.0090  0.0360 -0.1654
27567W        W46421   9.073  11.098   0.577  0.0904 -0.0277  0.0273
27568W        W46422   1.685   2.963   2.841 -0.2079 -0.0344 -0.1916
27569W        W46423  13.443   1.710  10.755  0.2990 -0.0912  0.1899
27570W        W46424  18.153  16.806  11.693  0.1647 -0.1484 -0.0744
27571W        W46425  16.814  14.577   1.687 -0.1011  0.1359  0.0499
27572W        W46426   6.839   7.067   2.957 -0.2488  0.2142  0.3121
27573W        W46427  18.060   7.233   9.999 -0.1641  0.1137 -0.1571
27574W        W46428  14.971  15.181   4.239  0.1188 -0.1351 -0.1456
27575W        W46429  10.012  15.898   1.281  0.0425  0.0614  0.1410
27576W        W46430   5.774   7.440   4.391 -0.2573 -0.3134 -0.0806
27577W        W46431   9.997   5.381  13.043 -0.1396  0.3035  0.0561
27578W        W46432   7.664   1.007  13.643  0.3802  0.1440  0.1301
27579W        W46433  12.788  11.434   1.044  0.2454  0.1256 -0.1406
27580W        W46434   1.653   5.138   0.441 -0.1194 -0.1455 -0.0593
27581W        W46435   7.437   5.503  11.466  0.0243 -0.1682  0.3747
27582W        W46436  14.846   7.547   2.218 -0.0400 -0.0042 -0.2720
27583W        W46437   8.898   7.107   4.219 -0.2497  0.2200 -0.1961
27584W        W46438  16.103   2.270  10.370 -0.1423 -0.1004 -0.0844
27585W        W46439   9.635  12.125   2.509 -0.0809 -0.0819  0.0430
27586W        W46440  12.310   4.601   0.430  0.2972  0.1470 -0.1146
27587W        W46441  15.651   7.047   3.284 -0.1690  0.0176  0.2417
27588W        W46442  12.820   4.236  14.622  0.0859 -0.0361  0.0709
27589W        W46443  10.022   7.382   1.055 -0.0786  0.1086 -0.3795
27590W        W46444   3.147   5.639  11.967 -0.3541 -0.0357 -0.2991
27591W        W46445   7.328   2.987  13.358  0.1229 -0.1746  0.0587
27592W        W46446   6.098   4.691  12.286 -0.0852 -0.1103  0.1507
27593W        W46447   5.427  17.943  13.913 -0.2764 -0.1370  0.3001
27594W        W46448  16.342   8.274  12.272 -0.0224 -0.2836  0.1362
27595W        W46449  14.251  12.145   2.059 -0.2531  0.1258 -0.0984
27596W        W46450   3.159   0.027   2.831  0.3051 -0.0126 -0.1287
27597W        W46451  16.194  18.566  11.455  0.0125 -0.2548  0.1971
27598W        W46452   9.923  10.300   3.388 -0.0014 -0.0744  0.1838
27599W        W46453   4.487   4.536   3.092 -0.0322 -0.0894  0.0026
27600W        W46454   5.982   2.802  11.183  0.0605  0.2520  0.2544
27601W        W46455   0.231  17.128  11.258 -0.1010  0.2512  0.0298
27602W        W46456  17.793   2.264   5.236 -0.0387  0.1421 -0.1040
27603W        W46457   6.466  10.212  13.989 -0.1108 -0.2369  0.1647
27604W        W46458  12.423  16.848   1.579 -0.1958  0.0264  0.0658
27605W        W46459   6.573  15.633  10.960  0.1501  0.0412  0.3531
27606W        W46460  15.326   0.165  12.416 -0.3037  0.0094 -0.1248
27607W        W46461  14.525  17.749  11.321 -0.1703  0.3111  0.2046
27608W        W46462   6.668   5.368  13.931 -0.2408  0.1271  0.0402
27609W        W46463   9.453   3.958   5.379 -0.1042 -0.0219  0.1157
27610W        W46464   4.281  14.775  10.289 -0.1084 -0.0201 -0.2187
27611W        W46465  16.645   5.323   1.762 -0.0910  0.0141 -0.1802
27612W        W46466  14.351  11.646   4.467 -0.2738 -0.1590  0.3828
27613W        W46467  15.449  10.845  11.851 -0.0385  0.0625  0.0983
27614W        W46468   5.902   4.415   3.354  0.1745 -0.0068 -0.1283
27615W        W46469  13.224  15.839   4.784  0.1180 -0.1305  0.0903
27616W        W46470  17.840   4.132   2.304  0.1708  0.2428  0.2562
27617W        W46471  10.977  14.373   4.482  0.0247 -0.1932 -0.2162
27618W        W46472   6.661  18.021   1.961 -0.1591  0.1247 -0.2822
27619W        W46473   8.328   5.904  14.572  0.4244  0.1782 -0.0078
27620W        W46474  10.590  14.256   3.537 -0.0954 -0.1069  0.1326
27621W        W46475  17.683  12.219  12.307  0.2015  0.0996 -0.0040
27622W        W46476  14.856  15.452   0.573  0.3401 -0.0991 -0.0925
27623W        W46477  13.808   8.776   3.881 -0.0646 -0.1472 -0.0367
27624W        W46478   7.269   2.797  12.804 -0.1095  0.0980 -0.2932
27625W        W46479  11.486   2.330  14.413  0.2207 -0.2615  0.0077
27626W        W46480   3.782  10.416   0.221  0.3986  0.0799  0.0994
27627W        W46481   1.090  18.219  12.151 -0.0629  0.0507 -0.2885
27628W        W46482   2.008  11.556   3.441  0.0664 -0.0064  0.0534
27629W        W46483  15.524   7.837  11.767 -0.2331 -0.1072 -0.0491
27630W        W46484  11.975   3.617   0.837 -0.1825 -0.0328  0.4075
27631W        W46485   4.045   0.233  11.115  0.0789  0.0944  0.0861
27632W        W46486   5.926   2.106  14.978 -0.0948 -0.0671  0.1196
27633W        W46487  16.900  12.374  11.853 -0.3082  0.0004 -0.0881
27634W        W46488  18.039  11.428  13.285  0.1281 -0.1697  0.0813
27635W        W46489   4.194  15.023  10.770  0.1755 -0.0850 -0.1865
27636W        W46490   2.087   3.138   0.103  0.1252 -0.2535  0.0791
27637W        W46491  16.856   8.278   3.458  0.4459 -0.0036  0.3341
27638W        W46492  10.265   5.029  12.137  0.1317  0.0404  0.0990
27639W        W46493   4.627   6.971  14.920  0.0579 -0.2362 -0.3595
27640W        W46494   0.147  15.922   0.684  0.0892 -0.1784 -0.3220
27641W        W46495  13.983  15.753   3.721 -0.0464  0.0973  0.0432
27642W        W46496   5.852  13.532   3.068  0.1908  0.0235 -0.2532
27643W        W46497  15.168  14.032   4.213 -0.0486 -0.2386  0.0352
27644W        W46498   3.243   4.697   2.544 -0.0071 -0.0868  0.2117
27645W        W46499   1.055   9.714   0.660  0.0957  0.1297 -0.1027
27646W        W46500  10.222   8.369   4.701 -0.0491  0.0337 -0.2760
27647W        W46501  10.739   2.163   5.637  0.1040  0.2316 -0.0293
27648W        W46502   3.245   1.224   3.687  0.2541 -0.2715  0.3399
27649W        W46503   4.053   4.937   2.269  0.0149  0.0636 -0.1153
27650W        W46504  18.153  16.390  12.173  0.1833 -0.1157 -0.1384
27651W        W46505  10.548  17.267   3.017  0.0812 -0.2310 -0.3111
27652W        W46506   9.526   0.859  14.249 -0.0303 -0.0565 -0.0894
27653W        W46507  17.505   4.102   1.257 -0.1433  0.1266  0.2008
27654W        W46508   5.893   9.023   0.824 -0.1567 -0.2922 -0.0274
27655W        W46509   0.240  12.560   2.770  0.1275  0.1538  0.2967
27656W        W46510  15.138  12.046  14.362 -0.1180  0.1208  0.1969
27657W        W46511  13.724  10.471  12.540  0.0264 -0.2407 -0.4050
27658W        W46512  15.678  11.368  14.184  0.1905 -0.0584 -0.2092
27659W        W46513  13.619  11.313   2.762  0.0312 -0.2623  0.0480
27660W        W46514   1.523   7.383  11.577  0.1826 -0.1374  0.0663
27661W        W46515   2.288   3.168  10.962  0.1156  0.3198  0.0852
27662W        W46516   2.970  13.786   0.603  0.1256  0.2676 -0.1389
27663W        W46517   8.857  15.959   3.890  0.2598 -0.1209 -0.1073
27664W        W46518  18.387  17.974   4.138 -0.0362 -0.0171 -0.2231
27665W        W46519  15.468   2.875  10.340 -0.0898 -0.0754 -0.0383
27666W        W46520  13.850   1.292  15.148  0.2792  0.1205  0.0328
27667W        W46521  16.587   8.959   0.510  0.0051  0.2774  0.0948
27668W        W46522   4.099  15.224  11.275 -0.4742 -0.0906  0.1934
27669W        W46523  15.967  13.611   3.553  0.0244  0.2756 -0.0501
27670W        W46524  10.382   6.487   2.957  0.1148 -0.0161  0.0526
27671W        W46525  12.207  13.135   4.108  0.3336 -0.0879  0.1215
27672W        W46526  17.352   6.946  14.140  0.1321 -0.0269  0.2806
27673W        W46527   3.840  17.438  13.229 -0.1250  0.0661 -0.0988
27674W        W46528  16.161  18.031  12.609 -0.1579  0.1371 -0.1651
27675W        W46529   4.028   0.728   4.026 -0.0561 -0.0829  0.1159
27676W        W46530  18.562  14.708   4.363 -0.2279  0.1148 -0.0425
27677W        W46531   1.685   1.365  13.798  0.1122 -0.1685  0.1097
27678W        W46532  17.516   0.683   2.283  0.0934  0.0948  0.0854
27679W        W46533  10.542  14.964   1.393  0.0858  0.0228 -0.4451
27680W        W46534   0.792  17.659  11.752  0.0439 -0.2690 -0.2364
27681W        W46535  10.438  13.679  12.945  0.1251  0.0821 -0.1887
27682W        W46536   4.702   5.098   0.996 -0.1979 -0.3306  0.4321
27683W        W46537   9.950   2.787  11.929  0.3458 -0.2125  0.0920
27684W        W46538  17.423  17.705   4.000  0.1677 -0.2029 -0.0740
27685W        W46539   0.185   8.789   1.227 -0.1447  0.0105 -0.2609
27686W        W46540  11.385  17.341  12.700  0.0628 -0.0490 -0.5152
27687W        W46541  11.613   1.505  12.193  0.2283  0.1855  0.1749
27688W        W46542   4.084   5.463   2.101 -0.0054  0.1197  0.0315
27689W        W46543   2.715  12.962   4.559 -0.2127  0.0167 -0.0160
27690W        W46544  14.513   8.619  11.859  0.0997  0.1769 -0.0394
27691W        W46545  15.431  17.501  14.937 -0.0265 -0.2109  0.2469
27692W        W46546   7.656  14.636  13.869 -0.4729 -0.0169  0.3565
27693W        W46547   4.081  16.552  10.577  0.0786  0.0615  0.2437
27694W        W46548  10.526  13.876   2.797  0.1306  0.1259  0.0171
27695W        W46549   8.437  17.966   1.509 -0.0459  0.0080 -0.0500
27696W        W46550   2.518  17.820  14.528 -0.1710 -0.0506 -0.0147
27697W        W46551   3.245   9.602   0.427  0.2231 -0.2378 -0.2010
27698W        W46552  14.491  15.780   3.703  0.0521 -0.0173 -0.0843
27699W        W46553  12.068   8.992   0.712  0.1065  0.3922  0.1609
27700W        W46554  15.857  14.286   1.209  0.0639  0.0767  0.0372
27701W        W46555  16.681   6.430  11.917  0.2269  0.1123  0.5243
27702W        W46556  10.628   0.768   0.004 -0.0134 -0.1215  0.1093
27703W        W46557   7.952  12.202  10.573 -0.0181  0.1645 -0.1619
27704W        W46558   5.352  11.349  13.380 -0.1560 -0.1588  0.0032
27705W        W46559  10.632   3.087  10.901 -0.1563  0.0347  0.0946
27706W        W46560   4.768   4.334   2.634 -0.0996 -0.0178  0.2700
27707W        W46561   1.553   3.353  12.128  0.1928  0.0591 -0.0442
27708W        W46562  14.322   2.656  13.220  0.0009 -0.3221 -0.0471
27709W        W46563   7.577   3.223  14.969  0.0587 -0.0931  0.0083
27710W        W46564   0.686  17.955  13.690 -0.0272  0.1728  0.0360
27711W        W46565   3.395   4.654  15.016  0.2063  0.4065 -0.0455
27712W        W46566  17.360  13.274   2.391  0.2551 -0.1182 -0.1090
27713W        W46567  18.548  10.186   1.309  0.1387 -0.4136  0.2087
27714W        W46568   5.626   6.579  14.685 -0.0344 -0.2049 -0.3413
27715W        W46569  18.184  13.028   2.283 -0.0591 -0.2239 -0.1288
27716W        W46570   7.733   2.063   3.461 -0.1782  0.2207  0.3208
27717W        W46571   1.219  12.016   2.058  0.5203  0.2345  0.4405
27718W        W46572  12.494   0.567   2.543 -0.3302 -0.1121  0.0822
27719W        W46573   0.236   9.036   2.967 -0.1116 -0.2523  0.2943
27720W        W46574   0.849  10.328  12.493 -0.1632  0.1545  0.0926
27721W        W46575   4.415  12.011   3.248  0.2338 -0.0477  0.0871
27722W        W46576  10.018  14.807   1.326 -0.0814  0.1234  0.4848
27723W        W46577  13.206  17.616   0.313  0.0520  0.0495  0.2444
27724W        W46578  10.707   2.741   5.505  0.1285  0.3694  0.2123
27725W        W46579   4.027  14.048  13.843 -0.1589  0.2060 -0.0025
27726W        W46580   6.307   8.609  13.668  0.0862  0.1305 -0.1222
27727W        W46581   0.566   3.926  11.626 -0.3009  0.4793 -0.1699
27728W        W46582  11.342  14.863  14.658 -0.2239  0.3804 -0.1070
27729W        W46583   5.997   5.686   2.391 -0.2802  0.1398 -0.2968
27730W        W46584   0.634   1.304  13.427  0.1232  0.1274 -0.0846
27731W        W46585   8.694  15.901  10.692  0.2406 -0.0338  0.3088
27732W        W46586   6.149  17.569   0.957  0.1475  0.2212  0.1815
27733W        W46587   1.040   3.751  14.739  0.0125 -0.0327 -0.1004
27734W        W46588   5.947  15.186   1.198 -0.2869  0.1349  0.2806
27735W        W46589   3.816  11.674   2.367 -0.0026  0.1966 -0.1888
27736W        W46590  10.516  10.511   1.307  0.2087 -0.0694 -0.1458
27737W        W46591   9.755   4.682  12.671  0.0393  0.1428  0.2510
27738W        W46592   0.670  15.708   1.773 -0.0295  0.0455  0.1350
27739W        W46593  15.866   2.524   0.557  0.0090 -0.0634  0.3933
27740W        W46594   6.630  10.896  11.942 -0.2415  0.2125  0.0416
27741W        W46595   3.057  17.679   1.504 -0.0459 -0.0295  0.0572
27742W        W46596  16.135  13.286   1.650  0.1112  0.0777  0.4295
27743W        W46597   7.337  11.798  12.825  0.0786 -0.2836 -0.3063
27744W        W46598   0.596  15.169  14.846 -0.4374  0.3042  0.0218
27745W        W46599   0.812   9.749  10.158 -0.1113 -0.0906 -0.0809
27746W        W46600  10.230   1.907   3.863 -0.0505  0.2097  0.0357
27747W        W46601   1.043  10.981  12.219 -0.0232  0.1311 -0.3049
27748W        W46602   1.544   2.861  12.209  0.0597  0.1193  0.1448
27749W        W46603   6.846  13.017   1.479 -0.0875 -0.0589 -0.1391
27750W        W46604   8.343  12.227   0.982 -0.0500  0.3653  0.1639
27751W        W46605  14.820   4.851  10.569 -0.1648 -0.0035  0.1982
27752W        W46606   7.999  11.291  12.320  0.1939 -0.1449  0.2997
27753W        W46607  12.194   8.923   1.550 -0.0491 -0.0186  0.1090
27754W        W46608   9.520  10.025   0.416 -0.1928  0.2472 -0.0122
27755W        W46609  17.011  18.016  14.006  0.0131  0.3501  0.0850
27756W        W46610  18.072  17.519   3.111  0.0139 -0.0045  0.0307
27757W        W46611   6.181   8.854  14.107  0.2266 -0.2810 -0.0234
27758W        W46612  13.026  10.838   1.997 -0.0601 -0.2865 -0.1468
27759W        W46613   2.340  15.666  12.170  0.1862 -0.0721  0.1017
27760W        W46614   2.776  15.127   1.840 -0.0887 -0.1544  0.1992
27761W        W46615   0.750   0.223   3.300  0.0021 -0.2751 -0.1215
27762W        W46616  17.109  18.158  11.381  0.1616 -0.4034 -0.2285
27763W        W46617  10.993   8.898   0.084  0.0625  0.2907  0.1381
27764W        W46618  12.375   5.739   3.955 -0.2648 -0.2742  0.1796
27765W        W46619   2.819  14.660  13.720  0.0493  0.1216 -0.0025
27766W        W46620   1.127  13.012  14.145  0.0838  0.2396  0.2132
27767W        W46621  13.695   1.141   3.362  0.4237 -0.0849  0.0398
27768W        W46622  14.340   9.193   0.011  0.0225 -0.2826  0.0154
27769W        W46623   9.245  18.521  11.770 -0.2204 -0.1128  0.1842
27770W        W46624   9.561  13.765  12.351 -0.0085 -0.0774  0.3059
27771W        W46625   3.315  11.947   2.663 -0.1802  0.0759 -0.4365
27772W        W46626  11.611  16.680   1.680  0.1666 -0.0794 -0.0279
27773W        W46627   1.412   2.098   4.063  0.1916 -0.0518  0.0042
27774W        W46628  11.396   2.742   4.071 -0.0569 -0.1108 -0.1299
27775W        W46629   5.940  13.462   2.045 -0.1432  0.2652 -0.2231
27776W        W46630  15.241   6.339   3.948  0.0956  0.0208  0.0205
27777W        W46631   2.362   3.071  13.808  0.1669 -0.2703  0.1227
27778W        W46632   8.655  18.116  14.044 -0.0790 -0.0046 -0.0489
27779W        W46633   8.787   4.795  13.134  0.0577  0.1663 -0.0599
27780W        W46634   8.825  12.546  14.526 -0.2291 -0.0783 -0.0248
27781W        W46635   0.221   6.581   3.197  0.1049  0.0118  0.0186
27782W        W46636  13.892   5.630  12.675  0.0361  0.1165 -0.1518
27783W        W46637   3.062  10.620  13.736 -0.1765 -0.0769  0.0338
27784W        W46638   6.404   4.897   1.715  0.1943 -0.0030 -0.1671
27785W        W46639  11.858  12.364  13.249 -0.3944 -0.0291 -0.3278
27786W        W46640   3.689  10.823   0.001 -0.0573  0.2677  0.1289
27787W        W46641  14.438  14.414  11.000  0.2715  0.2562  0.1787
27788W        W46642  10.226  10.259   2.964  0.1589  0.2844 -0.2160
27789W        W46643   3.907   3.306  11.607  0.3483  0.1116  0.0438
27790W        W46644  16.208   9.868  11.617 -0.0823  0.1505 -0.1799
27791W        W46645   3.165   8.146   2.472 -0.1569 -0.0046  0.1940
27792W        W46646  15.760  17.529  14.265  0.3157  0.2072 -0.0308
27793W        W46647  18.557  12.764  13.652 -0.1594  0.1127  0.1831
27794W        W46648   3.733   2.879  12.113  0.0053 -0.0892 -0.2956
27795W        W46649   3.119   9.609  14.098  0.3399  0.1330 -0.0873
27796W        W46650  17.580   1.534   0.847  0.0510  0.0360 -0.0806
27797W        W46651  13.346   3.765   1.515  0.1992  0.1657 -0.1802
27798W        W46652  13.828   0.082  14.930  0.0264  0.0409  0.0427
27799W        W46653   8.089  15.285   0.357  0.1291  0.1543  0.0799
27800W        W46654   8.522   9.894   4.417 -0.0265 -0.1378 -0.1371
27801W        W46655   3.520   5.967  11.268  0.0728 -0.0952 -0.0884
27802W        W46656  16.243  11.284  14.749 -0.1852  0.3033  0.2376
27803W        W46657   4.429   4.639   0.299  0.0084  0.1834 -0.1303
27804W        W46658  15.461   1.317   3.060  0.0255  0.0338 -0.1266
27805W        W46659  12.942  14.991  13.145 -0.2502  0.3412 -0.0136
27806W        W46660   9.081   2.676  12.844 -0.0623  0.2230  0.2101
27807W        W46661   2.513   3.664  14.876 -0.1574 -0.2650  0.2131
27808W        W46662   5.398   0.341   0.835  0.0822 -0.0014  0.0663
27809W        W46663  17.431  14.612   1.107 -0.1273  0.1982 -0.0355
27810W        W46664  14.436  11.696   0.819  0.1055  0.0432  0.0788
27811W        W46665  15.188   9.004  13.989  0.0605 -0.0185 -0.2529
27812W        W46666   3.282   7.367   3.866 -0.2131 -0.2036  0.3123
27813W        W46667  13.927  14.202  12.042 -0.0435 -0.2374  0.0994
27814W        W46668   0.192  13.446   0.395  0.3687  0.0458 -0.1252
27815W        W46669   7.727  10.113  11.403  0.1732  0.0715  0.0047
27816W        W46670  18.119  12.773   1.263 -0.0079 -0.0790  0.0002
27817W        W46671   0.642   9.176   4.305 -0.2091  0.2747 -0.1262
27818W        W46672  10.709  10.157  14.814  0.1083  0.0607 -0.3622
27819W        W46673   9.360  15.122   3.676  0.2295  0.2485  0.0893
27820W        W46674   3.998   4.428   0.180  0.0670 -0.2438  0.0443
27821W        W46675   9.952  10.239   4.313 -0.1982 -0.1430  0.0398
27822W        W46676   7.539  10.285   2.054  0.1225  0.2317  0.1323
27823W        W46677   8.967   2.863   2.842  0.0901 -0.2146 -0.0805
27824W        W46678  10.308   7.543  13.708 -0.1039 -0.0935 -0.1095
27825W        W46679   7.482  13.012  15.026 -0.1059 -0.0444 -0.3712
27826W        W46680  18.443   0.298  11.547  0.0509 -0.0926 -0.2441
27827W        W46681  17.625  10.467  11.953 -0.0970  0.0181 -0.2686
27828W        W46682  10.549   9.506  11.900 -0.0725  0.3854  0.1100
27829W        W46683   9.129  13.662  12.198 -0.4441  0.1595 -0.0463
27830W        W46684   2.169  13.394  11.700 -0.2563 -0.2569  0.0390
27831W        W46685  11.864   1.045  10.636 -0.1305 -0.0850  0.0615
27832W        W46686  11.642  17.446  13.941 -0.0409 -0.0877 -0.0560
27833W        W46687   5.221  10.801  14.159 -0.2382 -0.0110 -0.0158
27834W        W46688   9.997  13.769   1.202  0.5349 -0.0020  0.0607
27835W        W46689  14.971   7.422   4.031  0.1857  0.0868 -0.2469
27836W        W46690  13.948  15.307   4.100  0.1253  0.1466 -0.0762
27837W        W46691  15.184   1.967  11.331 -0.0170  0.0953  0.3014
27838W        W46692  15.970  12.608  13.024  0.1273  0.2482 -0.1653
27839W        W46693   9.480   0.333  14.317 -0.0266 -0.1425  0.0366
27840W        W46694  11.064   1.558  12.375 -0.1151  0.4339  0.5002
27841W        W46695   0.010  15.862  14.968 -0.3919  0.0491 -0.1473
27842W        W46696  16.464   9.413   1.286  0.0846  0.0665 -0.1631
27843W        W46697  16.359  16.133  14.624 -0.0041  0.2688  0.1929
27844W        W46698  15.628  11.904  14.382  0.1131  0.1128 -0.0383
27845W        W46699   0.465  12.054   3.013 -0.2287 -0.1623 -0.0028
27846W        W46700  18.151   6.231  14.421 -0.2762 -0.0472 -0.0319
27847W        W46701  12.879  10.600  14.993 -0.0660  0.1413  0.1890
27848W        W46702   3.112  12.983  10.181 -0.0573 -0.1566  0.2872
27849W        W46703  15.948  11.365  11.376  0.0037  0.2396 -0.0270
27850W        W46704  15.613   6.467   0.629  0.0547 -0.2232 -0.0479
27851W        W46705   9.325  10.771  11.947  0.3162 -0.1629  0.2757
27852W        W46706  17.418   7.124   0.875 -0.0693 -0.1156  0.2700
27853W        W46707  17.941  15.693   4.123  0.0586  0.1535 -0.1271
27854W        W46708   7.895  11.771  14.980 -0.1288 -0.0808  0.1279
27855W        W46709  15.428  17.398  11.948  0.2399  0.4516  0.0445
27856W        W46710  14.595   9.995  14.633 -0.1350 -0.1199 -0.1502
27857W        W46711   0.425   8.104  14.152  0.1525 -0.0388 -0.0260
27858W        W46712   8.929  10.730  12.185 -0.5335 -0.2119 -0.2124
27859W        W46713   4.421  10.713  11.914 -0.0819 -0.2324  0.0549
27860W        W46714  12.091   3.620   3.448 -0.3696 -0.1060  0.2750
27861W        W46715  18.194  11.793   4.118 -0.2201 -0.3804  0.0171
27862W        W46716   4.147  14.457  11.617 -0.2272 -0.1397  0.0407
27863W        W46717  11.139  12.589  10.788  0.0463 -0.1003  0.3084
27864W        W46718  17.307   8.521   0.133 -0.1241 -0.0488 -0.0459
27865W        W46719   2.610   8.528   3.553  0.0243  0.0040 -0.2541
27866W        W46720  17.130  15.076  11.873  0.1768  0.3399 -0.1634
27867W        W46721   3.836  12.450   1.668 -0.1486  0.0984  0.3032
27868W        W46722  16.272  11.211   4.681 -0.1391  0.0720 -0.1290
27869W        W46723   4.571   0.610   3.758 -0.0160  0.0525  0.2593
27870W        W46724  17.810   6.728   5.010 -0.1930  0.0794  0.4021
27871W        W46725  12.949  18.280   3.182 -0.1994 -0.0375  0.0794
27872W        W46726  16.322   5.794   0.950  0.2223 -0.2476  0.4343
27873W        W46727   2.858  12.031   2.489 -0.0602 -0.1006 -0.0126
27874W        W46728   1.739   4.088  15.356 -0.0792 -0.1440  0.1002
27875W        W46729   0.931   7.213  13.278  0.1739 -0.0132 -0.0517
27876W        W46730   9.045  16.523   3.903  0.0888 -0.1209 -0.2202
27877W        W46731  13.511   8.861   1.541 -0.0343 -0.2835 -0.0871
27878W        W46732  14.403   0.429   3.137 -0.0158  0.1142 -0.0215
27879W        W46733  14.987   9.308  14.783  0.1482  0.2228  0.1497
27880W        W46734  16.235   9.175  13.284 -0.0375  0.1882 -0.2550
27881W        W46735   3.956   8.503  13.607  0.1689 -0.2723 -0.1910
27882W        W46736   2.659   2.798   0.606 -0.1656  0.0945  0.2762
27883W        W46737   1.260   2.715   3.675  0.0488 -0.0222 -0.3293
27884W        W46738   9.548  12.192  14.480 -0.0577 -0.0800 -0.0981
27885W        W46739   7.863  11.596  12.794 -0.1666  0.1772  0.2145
27886W        W46740  10.180   3.080   0.011 -0.1633  0.2715 -0.2607
27887W        W46741  12.794  15.672  11.850  0.0744  0.0767 -0.1024
27888W        W46742  10.703   7.145   2.149  0.1674  0.0721 -0.0218
27889W        W46743  12.284   3.774   1.647  0.1623 -0.0236 -0.0707
27890W        W46744   3.107   5.885   1.688  0.2583 -0.1871 -0.3808
27891W        W46745  10.450   9.717   0.189  0.4534 -0.1805  0.2031
27892W        W46746  12.664   0.600   1.743  0.0663 -0.0244 -0.3534
27893W        W46747   7.034   4.826  12.045 -0.2269 -0.2349 -0.1635
27894W        W46748   1.835  17.771  10.818 -0.0179 -0.0911 -0.0710
27895W        W46749   9.513  12.787  11.534 -0.1169  0.0663 -0.4194
27896W        W46750  14.283   2.153  13.264 -0.2246 -0.2382 -0.0610
27897W        W46751   1.516  12.883  14.996  0.0448  0.0387 -0.1722
27898W        W46752  11.359  11.196  13.362  0.0540  0.4582 -0.4826
27899W        W46753  16.437  15.732   0.225 -0.1597 -0.1349  0.4317
27900W        W46754   3.010   5.333  13.204 -0.0626  0.0208 -0.2110
27901W        W46755   0.166   2.119   2.892  0.0387 -0.1318  0.3030
27902W        W46756   2.221   5.433   1.916 -0.1101 -0.0194 -0.1044
27903W        W46757   8.671  15.056   2.071  0.2419  0.2083  0.0177
27904W        W46758   1.694  10.669  11.700  0.1391  0.0878 -0.1605
27905W        W46759   0.696   0.152   0.502 -0.2860 -0.0283  0.2634
27906W        W46760   5.176  10.178   0.283 -0.4931  0.0397 -0.1270
27907W        W46761  12.978   5.391   3.342 -0.3147  0.2281 -0.2339
27908W        W46762  12.895  17.756  11.340  0.0265 -0.3121  0.0044
27909W        W46763   3.235   6.490   2.886 -0.1306  0.1602 -0.4251
27910W        W46764   5.357   2.399   0.805  0.0281 -0.0384  0.3856
27911W        W46765  11.087   1.039   4.151  0.1994  0.2335 -0.2700
27912W        W46766  18.403  11.752  11.560 -0.1276 -0.0429 -0.1284
27913W        W46767  12.858  10.705  12.260 -0.2454 -0.1445  0.3365
27914W        W46768  16.848  17.725  10.348 -0.0626  0.3816  0.0845
27915W        W46769  15.284   6.397  12.602  0.5992 -0.2102  0.3258
27916W        W46770  10.561  18.428   3.364  0.1216  0.0815 -0.0125
27917W        W46771  12.490   4.603  11.451  0.1994 -0.0412  0.2893
27918W        W46772   4.762  12.445   1.112 -0.1249 -0.1474  0.2486
27919W        W46773  11.766   0.487  13.769  0.1744  0.0536 -0.0125
27920W        W46774   7.090  13.323  15.214 -0.1863  0.1582  0.0432
27921W        W46775   3.369   1.917  12.073 -0.0039  0.1228 -0.0358
27922W        W46776  10.084   5.700  12.640 -0.1217 -0.1009  0.0347
27923W        W46777  14.179   3.892  12.543  0.0213 -0.0958 -0.0071
27924W        W46778  15.240   4.796   0.139 -0.0898  0.1255  0.2417
27925W        W46779   3.171   9.532   2.511 -0.3111 -0.1626  0.4034
27926W        W46780   1.947  12.739  12.820  0.1578 -0.1159 -0.2950
27927W        W46781  18.550   2.286   9.732 -0.0228  0.0339  0.0484
27928W        W46782   9.253  12.081  13.351  0.1063  0.0711  0.0200
27929W        W46783  10.194   9.944  14.598  0.0272 -0.1434 -0.3417
27930W        W46784  14.999   1.250  11.914 -0.1708  0.2132  0.0602
27931W        W46785   0.453  11.639   3.994  0.2064  0.0654 -0.1088
27932W        W46786  13.709  15.921  14.527  0.2328 -0.2861  0.1749
27933W        W46787   8.423  14.263   2.495 -0.0460 -0.4010  0.1496
27934W        W46788  13.663   1.605   2.590  0.0834  0.3571  0.2785
27935W        W46789  10.959   9.729   0.675 -0.1196 -0.0475  0.1035
27936W        W46790   9.055  13.863   2.973  0.1340 -0.0371 -0.0892
27937W        W46791   5.671  12.213   3.004  0.2158  0.0427 -0.0624
27938W        W46792  17.126   5.298  12.618  0.1189 -0.2080 -0.1822
27939W        W46793   4.547   0.997  12.517  0.0951 -0.1640 -0.1136
27940W        W46794   3.063  16.999   0.536 -0.1150  0.0305  0.1640
27941W        W46795   5.049   8.687   3.935  0.2648  0.1692  0.0595
27942W        W46796  10.121   2.116   1.761 -0.0337 -0.1220 -0.0368
27943W        W46797   4.916  10.930   2.184 -0.0924 -0.1817 -0.2421
27944W        W46798  12.797  14.736  12.117 -0.4361 -0.1602  0.1407
27945W        W46799  11.456   7.037  15.309 -0.1256 -0.0519 -0.0708
27946W        W46800   1.859   6.623  12.209  0.1536 -0.2172 -0.1925
27947W        W46801  10.890  11.037   0.963  0.2142 -0.2029 -0.1623
27948W        W46802   0.151   4.562  13.470  0.1647  0.0596  0.1543
27949W        W46803   5.965   9.864   2.950  0.2172 -0.0521  0.1568
27950W        W46804  13.387  15.934   3.548 -0.1870 -0.0237  0.1101
27951W        W46805   8.825  11.530   5.615 -0.0159  0.1844 -0.1323
27952W        W46806   3.912   0.755  15.465 -0.1927 -0.1053 -0.1957
27953W        W46807   6.348   2.981   1.705 -0.2264  0.1700 -0.2983
27954W        W46808  10.708  11.635   3.124 -0.1783 -0.1834 -0.0232
27955W        W46809   3.231   2.973   1.916  0.0452  0.0028 -0.2781
27956W        W46810   6.923  10.967   0.530 -0.0947  0.4232  0.2091
27957W        W46811  14.923  13.731  13.651 -0.0764  0.1410  0.3961
27958W        W46812   6.864  16.628  12.587  0.1224  0.1261 -0.2816
27959W        W46813  12.526   2.285  13.817 -0.0346 -0.0185  0.1299
27960W        W46814  12.158  12.830  13.515 -0.1510  0.0166  0.0505
27961W        W46815  13.656   2.438   4.092  0.0726  0.0214  0.4552
27962W        W46816   8.215   4.963   4.431 -0.1684 -0.1337 -0.2842
27963W        W46817  14.905  17.155   0.171  0.1021 -0.0395  0.1685
27964W        W46818  13.771  13.858   4.424  0.1122  0.0750  0.3189
27965W        W46819   1.965   9.645   5.024  0.0436 -0.2746 -0.1069
27966W        W46820   3.840   3.939   2.871 -0.3141 -0.1296  0.0455
27967W        W46821  11.459   0.442  14.369 -0.4560  0.0556 -0.1464
27968W        W46822  17.773  17.166  11.654 -0.1400 -0.1802  0.0789
27969W        W46823  12.054   1.072  12.142 -0.3155  0.2937 -0.3942
27970W        W46824   8.561  14.599  14.039  0.2938 -0.0881  0.3872
27971W        W46825   9.734   8.607   0.859  0.1200  0.0446  0.2578
27972W        W46826   0.143  18.018   0.544  0.0224 -0.0324 -0.2753
27973W        W46827  12.247   2.699   4.343 -0.3056  0.2025 -0.1429
27974W        W46828   9.975   2.331  13.160 -0.2119  0.1160 -0.2871
27975W        W46829  14.982   3.657   4.623  0.1001 -0.0442 -0.1955
27976W        W46830   0.712   5.254   0.875  0.0287 -0.0534 -0.1536
27977W        W46831  15.501   9.739  13.775 -0.0458  0.1942 -0.0485
27978W        W46832   1.768   6.228   2.943 -0.0595 -0.0400  0.0339
27979W        W46833   5.878   4.085   1.228 -0.1414  0.2183  0.0367
27980W        W46834   4.063  13.830   4.781  0.2757  0.1514  0.1610
27981W        W46835   4.768  10.608  15.423  0.1629  0.1692  0.1277
27982W        W46836  15.116   4.421  15.268 -0.2354  0.3528 -0.1177
27983W        W46837  12.071  17.369  11.866  0.2488 -0.2790  0.1304
27984W        W46838   1.127  18.225  13.388 -0.0286  0.2230 -0.1671
27985W        W46839  10.878   2.290   2.041  0.2688 -0.4614  0.2174
27986W        W46840  11.662   3.389   1.712 -0.1559  0.2249  0.0389
27987W        W46841   5.017   9.945   3.287 -0.2177 -0.0959 -0.2438
27988W        W46842   8.836  13.741  13.028  0.1478  0.0864  0.0458
27989W        W46843  14.728   5.656   3.666  0.0238 -0.2128  0.0705
27990W        W46844   9.617  12.921   4.269 -0.0204  0.1972  0.2730
27991W        W46845   3.901  13.548  10.651 -0.0579  0.1517  0.1354
27992W        W46846   3.660  18.049  14.635 -0.0853 -0.1453  0.2428
27993W        W46847   2.284   9.546   2.042 -0.1806  0.7908  0.3952
27994W        W46848  17.097   3.258   2.851 -0.0289  0.2264  0.2518
27995W        W46849  11.960   2.715  12.317 -0.0536 -0.1423 -0.1952
27996W        W46850  11.371   9.298   0.198 -0.1415  0.1355 -0.0585
27997W        W46851  14.634  12.177   4.395 -0.0436 -0.0392  0.2298
27998W        W46852  11.548  15.715  14.373  0.2340  0.0588 -0.2436
27999W        W46853  16.215  16.704  14.528  0.3033 -0.1463  0.0787
28000W        W46854  15.376   3.963  13.800 -0.1007 -0.0108 -0.0855
28001W        W46855   0.587   5.476  12.958  0.0061 -0.0265 -0.0064
28002W        W46856   4.989   0.465  13.083 -0.0435  0.0562 -0.1377
28003W        W46857  15.393  12.521   3.719 -0.0490  0.0290  0.1146
28004W        W46858  15.513  11.020   0.089 -0.1488  0.1291 -0.1434
28005W        W46859   1.290  16.565  12.238 -0.0917  0.2685  0.1714
28006W        W46860   0.326   5.514   1.688  0.0394 -0.1877 -0.2530
28007W        W46861   5.762   8.237  11.716 -0.2321  0.0219  0.0451
28008W        W46862  14.531  15.937   1.392 -0.1457 -0.0154  0.0012
28009W        W46863   6.000   8.686  12.555 -0.1346 -0.2666  0.3276
28010W        W46864   4.750   2.816   3.071 -0.1723  0.0682 -0.0623
28011W        W46865   5.653  13.416   1.113 -0.1163  0.2188  0.1021
28012W        W46866   5.091   5.152  14.609 -0.0407 -0.0471  0.0170
28013W        W46867   6.953   2.570  12.436 -0.0974  0.3289  0.1215
28014W        W46868  14.598   0.480  12.743  0.2311  0.3346 -0.1413
28015W        W46869  15.526  10.771  10.984 -0.0245 -0.0313 -0.2155
28016W        W46870  18.167   9.472   5.583  0.4090  0.1379 -0.0965
28017W        W46871   4.444   5.672   3.453 -0.4149  0.2133  0.0538
28018W        W46872  18.330  12.233   1.890  0.2224 -0.1676 -0.0859
28019W        W46873   5.550   6.991   2.723 -0.1867 -0.0129 -0.2341
28020W        W46874   8.453   4.649   1.342 -0.3267  0.3509  0.2948
28021W        W46875   1.070  17.126   2.989 -0.0707  0.0783 -0.1617
28022W        W46876  13.976  13.301   4.147 -0.1588 -0.2664  0.2451
28023W        W46877   2.609   0.813  10.548  0.0766 -0.0288  0.2244
28024W        W46878   6.392   0.136   1.462  0.1764  0.1111 -0.1432
28025W        W46879   1.287  13.712   3.886 -0.1878  0.0075  0.1829
28026W        W46880   0.653  14.458  12.358 -0.0079 -0.1083  0.2541
28027W        W46881  10.445   2.098   3.436  0.2512  0.1907 -0.1579
28028W        W46882   2.987  11.452  13.139 -0.0593 -0.1102 -0.0727
28029W        W46883   2.570   5.213  15.167  0.1237 -0.0291  0.0206
28030W        W46884   1.468   0.684   3.118  0.0760 -0.1156 -0.3155
28031W        W46885  11.499   9.034   4.173  0.0934 -0.3968  0.1206
28032W        W46886   6.784  11.297  13.048  0.2445  0.1060  0.1273
28033W        W46887  18.467  13.678  13.101  0.0722  0.3497 -0.0210
28034W        W46888  17.522  11.987   1.513  0.2033  0.0414  0.0694
28035W        W46889  16.451   8.390  13.059 -0.1030 -0.1653 -0.0596
28036W        W46890   6.610   6.390   3.323 -0.2269  0.0836 -0.0797
28037W        W46891   5.789  16.757  12.863  0.1295 -0.2387  0.0762
28038W        W46892  11.411  12.029   1.686  0.1259  0.1892  0.2149
28039W        W46893  10.472   4.694  13.421 -0.1082 -0.2596  0.3064
28040W        W46894  10.600   4.525   1.172 -0.0178  0.0919  0.1587
28041W        W46895   3.734  13.415   3.114  0.0397 -0.0718  0.0044
28042W        W46896   0.394  12.139  11.174 -0.1145  0.2343 -0.2159
28043W        W46897  12.276  12.032  14.529  0.1048  0.0196 -0.0895
28044W        W46898  16.567  15.681  11.077  0.0337 -0.0084 -0.1559
28045W        W46899  10.763   6.486  13.988 -0.1437  0.1289  0.0873
28046W        W46900  10.949  17.308   1.566  0.2474  0.0258  0.0197
28047W        W46901  14.185   1.438   2.506 -0.3780 -0.0005 -0.0716
28048W        W46902   9.370   2.659   0.575 -0.1262 -0.0252 -0.0209
28049W        W46903   2.559  13.691  11.645 -0.2161 -0.0166 -0.0567
28050W        W46904   4.847  13.174   2.278 -0.1523  0.3607 -0.1131
28051W        W46905  13.821   4.885   0.587 -0.0339  0.0244 -0.1239
28052W        W46906  10.538   5.892   0.665 -0.1868  0.0975 -0.3138
28053W        W46907   6.738  17.938  10.557  0.1536 -0.1190  0.2549
28054W        W46908   1.766   6.588   4.187  0.0127  0.1530  0.1780
28055W        W46909  17.373  15.734  13.801 -0.0428 -0.1090  0.1645
28056W        W46910  13.727   0.269   4.462  0.1983 -0.1686 -0.0956
28057W        W46911  11.562  15.826  10.504  0.1472  0.1648  0.1009
28058W        W46912   6.862   9.489   0.165 -0.0994  0.1188 -0.1263
28059W        W46913  12.386  11.057  11.187 -0.2688  0.1535  0.1781
28060W        W46914  10.240  12.920  13.612 -0.1076  0.1997  0.2238
28061W        W46915  11.299   3.793   2.668 -0.0011 -0.0827  0.0875
28062W        W46916   8.185  16.254  12.625  0.3399 -0.0126  0.1556
28063W        W46917   5.762  15.623   3.729 -0.1086 -0.0880  0.1346
28064W        W46918   7.599   1.636   4.591  0.0775  0.0894 -0.0881
28065W        W46919   5.538  13.782  12.378  0.2482  0.0849 -0.1112
28066W        W46920  10.393   6.102   2.153 -0.1285  0.0314  0.1852
28067W        W46921  11.073  13.732  12.520 -0.2295  0.2180 -0.3642
28068W        W46922   5.912  12.758   4.316 -0.1744 -0.2348  0.0668
28069W        W46923   0.174   4.121  11.387 -0.1712  0.1441  0.4013
28070W        W46924  18.293   4.257  11.271 -0.0001 -0.0402  0.3426
28071W        W46925  12.064   4.308   0.109 -0.3905  0.3525  0.0468
28072W        W46926   3.067  14.329  14.986  0.1713 -0.0842 -0.4191
28073W        W46927  17.001   9.699  11.541 -0.1148 -0.2528  0.0726
28074W        W46928   2.286  17.516   0.403  0.1364  0.2435  0.1547
28075W        W46929   7.148  18.338  14.993  0.0375  0.2395 -0.3261
28076W        W46930  15.290   5.429  14.025  0.1681 -0.2289  0.0238
28077W        W46931  15.914  18.272  11.730  0.1088  0.0404 -0.0582
28078W        W46932  17.063   1.517   3.387  0.2270 -0.0953 -0.2870
28079W        W46933  11.524  11.795  12.658 -0.0201  0.0122 -0.0477
28080W        W46934   5.138   2.069  14.961  0.3429 -0.3520  0.0717
28081W        W46935  11.276  14.438   2.148 -0.0649  0.1313  0.0040
28082W        W46936  16.853   3.528  15.012  0.0471  0.2755 -0.1366
28083W        W46937  13.801   8.444   0.802  0.0958  0.0490 -0.2160
28084W        W46938   0.447   2.434  13.083 -0.1450  0.2233  0.0283
28085W        W46939  12.241   6.068   0.983  0.0203  0.1538 -0.3161
28086W        W46940   9.863   1.169   0.620 -0.1278  0.3753 -0.1093
28087W        W46941   2.659  15.933  15.203  0.0676  0.0170 -0.1507
28088W        W46942   1.487   4.121  13.250  0.0027  0.0262  0.2348
28089W        W46943   3.933  18.381   2.023 -0.2034 -0.2948 -0.1585
28090W        W46944  16.611  18.044   4.166 -0.0399 -0.1286 -0.3105
28091W        W46945  17.386  16.432   4.125 -0.0388  0.2688 -0.0546
28092W        W46946  14.938   4.071  11.214  0.2193 -0.1255 -0.2706
28093W        W46947   0.703   8.295   0.535 -0.0726  0.3539  0.2971
28094W        W46948   8.263   5.935   0.859 -0.0886  0.0494  0.0691
28095W        W46949   3.928  16.803   0.611  0.0806  0.1207  0.0374
28096W        W46950   3.648   3.415   2.079 -0.1605  0.0403 -0.3032
28097W        W46951   0.340  18.348  14.490  0.1153  0.0259  0.2065
28098W        W46952   8.088   0.236   0.377  0.1262  0.0479  0.1346
28099W        W46953   8.069   6.567   4.230 -0.1443 -0.2115  0.1008
28100W        W46954  13.916  17.603   2.289 -0.0188 -0.1404 -0.1285
28101W        W46955  15.139   7.374   0.697  0.1320  0.3276 -0.3706
28102W        W46956   1.299   9.571   5.213 -0.0779  0.1785  0.2118
28103W        W46957   4.551  14.698  10.898  0.2519 -0.2488  0.0741
28104W        W46958   4.345   5.838  12.926  0.0081 -0.6571 -0.1518
28105W        W46959   8.109   6.481  15.001  0.0750  0.0262 -0.4212
28106W        W46960  10.666  12.401  14.760  0.0309  0.0525  0.1639
28107W        W46961   5.484   9.785   0.371  0.1497 -0.2550  0.2574
28108W        W46962  13.383   5.730  14.477 -0.1367  0.1469 -0.0756
28109W        W46963   7.352  10.618   1.601 -0.0289  0.1558  0.2423
28110W        W46964  18.108   7.988  12.238  0.0406  0.0470 -0.1936
28111W        W46965   5.328  12.422  11.464 -0.1920  0.0215 -0.1010
28112W        W46966  12.611  17.762   4.369  0.0901 -0.0247  0.0789
28113W        W46967  12.939   5.900   0.253  0.3064  0.1812  0.0905
28114W        W46968  18.193   6.427   2.313  0.0305 -0.1180 -0.1046
28115W        W46969   0.002  12.441  13.987 -0.1449  0.2277 -0.1783
28116W        W46970   3.162   2.736  11.255  0.0524  0.0497  0.0998
28117W        W46971   4.238   8.019   3.137  0.5051 -0.1290 -0.1609
28118W        W46972  10.471   1.326   1.625 -0.3109 -0.2761  0.0505
28119W        W46973   7.916  18.069  12.189  0.4914 -0.0936 -0.0058
28120W        W46974  12.463   8.067   0.532  0.4461 -0.1868 -0.2568
28121W        W46975   0.228  10.857   4.479 -0.4099 -0.0685 -0.2341
28122W        W46976   7.280   8.989  12.760  0.1840  0.3557  0.0388
28123W        W46977  11.345   8.322   2.331 -0.1320 -0.1040  0.3750
28124W        W46978  18.195   1.132   0.392  0.1917 -0.0506 -0.1815
28125W        W46979   7.858  17.726  11.804 -0.2328 -0.0469 -0.0336
28126W        W46980   2.471  11.954   0.742 -0.1105 -0.0184 -0.1243
28127W        W46981  14.082   0.540  13.500  0.0770  0.1566  0.1330
28128W        W46982  11.445  17.741   0.103  0.2225  0.0999  0.0517
28129W        W46983  12.253   6.638   4.365 -0.1497 -0.1349 -0.4721
28130W        W46984  12.738   3.546   4.172  0.2410 -0.1135  0.1027
28131W        W46985  15.212   1.121   2.393  0.1123 -0.0899  0.0633
28132W        W46986  16.774   6.329   0.120  0.2067  0.0666 -0.2654
28133W        W46987   2.513  16.415  12.363 -0.2460 -0.2366 -0.4125
28134W        W46988   4.566  11.562   3.079 -0.2264 -0.2797  0.1098
28135W        W46989  10.508   7.037  11.979 -0.1605 -0.1494  0.1961
28136W        W46990  13.012   1.222  14.686  0.0388  0.5315 -0.0145
28137W        W46991  13.017   7.985   3.044  0.0055  0.1209  0.0660
28138W        W46992  11.949   8.020   1.284  0.0351 -0.0362  0.0520
28139W        W46993   2.377  11.512   4.073  0.1276 -0.3183 -0.0936
28140W        W46994   1.805  12.846  10.864 -0.1287 -0.1694 -0.0186
28141W        W46995   7.572   9.124   1.730 -0.2332 -0.2471  0.0198
28142W        W46996  14.841  12.656   0.606  0.1656  0.2280  0.1606
28143W        W46997   9.985   4.037   0.557 -0.0030  0.3049  0.2994
28144W        W46998  10.032  13.923   2.753  0.2210  0.3195 -0.2218
28145W        W46999   6.897   0.660  11.723  0.0695 -0.3411  0.3362
28146W        W47000  16.867  17.231  11.959  0.1053  0.1020 -0.2155
28147W        W47001   2.147   0.644   2.103  0.0573 -0.0298 -0.0317
28148W        W47002  11.692   6.407   1.363  0.1493 -0.1075  0.0394
28149W        W47003  15.374  13.156  13.021 -0.1031  0.3133  0.0709
28150W        W47004  15.744  13.353   4.019 -0.2002  0.0602  0.1211
28151W        W47005   5.506   8.669   1.121 -0.1509  0.0187  0.1741
28152W        W47006  13.281   4.280   2.112  0.2011  0.1080 -0.1475
28153W        W47007   7.201  13.061  13.127 -0.3118  0.2476  0.0028
28154W        W47008  12.718  12.468  15.054 -0.4070 -0.2566 -0.0055
28155W        W47009  10.174   6.119   0.905  0.1798  0.0624  0.0880
28156W        W47010  11.405   0.842  13.548 -0.1151 -0.1406 -0.0764
28157W        W47011  15.205   8.721  12.213 -0.0495 -0.0834 -0.0770
28158W        W47012  15.405   8.343   0.852  0.1571 -0.0404 -0.0850
28159W        W47013  13.728   2.307  11.594  0.2302 -0.2926  0.0351
28160W        W47014   5.120   5.558   3.704 -0.1182  0.0903 -0.2020
28161W        W47015  12.242  17.216   6.015 -0.0220 -0.2655 -0.1811
28162W        W47016   9.769   1.151  14.600  0.0986 -0.6151  0.1371
28163W        W47017  15.996  14.962   3.004  0.0036 -0.5132  0.2003
28164W        W47018  10.015  18.367   3.482  0.1859 -0.1022  0.0731
28165W        W47019  16.903   7.761  11.091  0.1489  0.0788  0.1799
28166W        W47020  17.522  13.590  13.106 -0.4716 -0.2218 -0.3432
28167W        W47021  10.816  16.858  13.882 -0.0493 -0.1983  0.2026
28168W        W47022  14.468  10.622   1.238  0.2921 -0.0040 -0.1413
28169W        W47023   2.627   9.512   0.640  0.0662  0.0742 -0.4719
28170W        W47024  18.560   0.322   2.909  0.2001  0.1975 -0.1588
28171W        W47025  17.857   6.450   0.930  0.1787  0.2838  0.2637
28172W        W47026  11.181  18.454   5.530 -0.1754  0.2633 -0.1503
28173W        W47027  18.340   8.044   3.288  0.0074 -0.1936 -0.0059
28174W        W47028  14.939  12.523  14.481 -0.0725  0.2859 -0.3087
28175W        W47029   4.037  18.082   0.655 -0.2586 -0.2883  0.0622
28176W        W47030  12.034  17.157   0.896 -0.1503  0.0197 -0.2911
28177W        W47031   4.954   5.546   9.925  0.2417 -0.1321  0.0273
28178W        W47032   5.151   8.294   3.594  0.0692  0.1890 -0.1673
28179W        W47033  14.151  13.763  14.257 -0.2604  0.2573 -0.1215
28180W        W47034   5.065  13.852   4.364  0.3102 -0.2084 -0.2907
28181W        W47035  17.297   5.820   4.332 -0.0381 -0.0058 -0.1782
28182W        W47036   3.381   3.355  11.474  0.0279 -0.2473 -0.1461
28183W        W47037   0.101   7.685   1.778  0.0264 -0.0194 -0.0592
28184W        W47038   5.202  15.402  13.764 -0.2453 -0.0045  0.0635
28185W        W47039  17.744   5.995  13.143 -0.0606 -0.0484 -0.1959
28186W        W47040   1.295   4.038  12.784  0.0149 -0.0413 -0.1106
28187W        W47041  14.611   9.922   4.453  0.1636  0.1220  0.4054
28188W        W47042   1.852   0.797   3.345  0.3463 -0.0727  0.1165
28189W        W47043   0.131   7.458   2.570 -0.0889  0.0649  0.1627
28190W        W47044   7.596  13.914  14.084 -0.5606 -0.2498  0.0640
28191W        W47045   4.022   2.446   3.369  0.0638 -0.1006  0.0815
28192W        W47046  18.148  11.269  10.874 -0.1014  0.0726 -0.5082
28193W        W47047  13.491  18.269  13.878 -0.0894 -0.0959  0.1623
28194W        W47048  10.607  10.886   0.044 -0.1939 -0.3350 -0.0484
28195W        W47049   9.275   3.970  10.171  0.0277 -0.2571 -0.1423
28196W        W47050   9.667   7.949  15.293 -0.1905 -0.1002 -0.0913
28197W        W47051  15.916  16.898  13.633 -0.1202  0.1464  0.1029
28198W        W47052  18.106   5.977  11.940 -0.1300  0.1808 -0.0070
28199W        W47053  16.208  15.065   3.794  0.0627 -0.3428 -0.2098
28200W        W47054  14.764  11.794   0.259  0.0415 -0.0054  0.0883
28201W        W47055  15.908   1.158   1.567  0.0686  0.0472 -0.2958
28202W        W47056  16.867  13.177   2.211  0.2330  0.0435 -0.1698
28203W        W47057   8.127  16.810   4.885 -0.0139  0.2499  0.0127
28204W        W47058   7.335  17.427   5.329 -0.0269  0.4331  0.0676
28205W        W47059  12.929  14.902   2.744 -0.0851  0.1542 -0.0223
28206W        W47060   8.238  11.732  10.653  0.1363 -0.1342 -0.0034
28207W        W47061   4.313  15.751  12.348 -0.3137 -0.3322 -0.4244
28208W        W47062  12.120   6.040  13.029  0.4217  0.1713 -0.3063
28209W        W47063   2.816  17.721  14.057 -0.1284  0.0105  0.2325
28210W        W47064   5.974  16.841   2.201 -0.3242  0.1992 -0.0756
28211W        W47065   1.438  12.617   1.284 -0.1874 -0.3407 -0.1020
28212W        W47066   6.300   0.588   1.621  0.1612  0.2541  0.1157
28213W        W47067  11.107  13.875   0.484  0.0482 -0.1195 -0.0457
28214W        W47068   9.550  16.905  14.886 -0.3139 -0.2191 -0.0324
28215W        W47069  13.726   3.978  12.226  0.0265  0.0483 -0.1409
28216W        W47070   1.386   4.413   3.415 -0.0592  0.0486 -0.2231
28217W        W47071   0.306   3.116  14.793 -0.5750  0.0342 -0.0009
28218W        W47072  17.797   5.003   3.448 -0.3295  0.0870  0.1455
28219W        W47073   7.086  10.306   1.953 -0.0181 -0.0520  0.1122
28220W        W47074  14.719  16.340   3.706 -0.2316  0.1018  0.0096
28221W        W47075   7.934   7.777  12.957  0.0358  0.1117  0.3555
28222W        W47076  11.630   8.678  13.688 -0.0697  0.1840  0.2285
28223W        W47077   3.586   4.303   2.630  0.0184  0.0860  0.0714
28224W        W47078   8.432   0.592   0.490 -0.0078  0.1578 -0.0434
28225W        W47079  15.792   0.832   3.156 -0.0116  0.0066 -0.1405
28226W        W47080   5.085   7.166   0.106  0.0464 -0.1273 -0.2340
28227W        W47081   9.058  16.843  13.680  0.0879  0.1702  0.1422
28228W        W47082   7.171   5.663  11.901  0.0731  0.2440 -0.1606
28229W        W47083   3.166   1.986   1.139  0.0195  0.0716  0.0688
28230W        W47084  18.063   6.485   2.801 -0.2062 -0.0136  0.1620
28231W        W47085   7.315  15.895  14.196  0.0456  0.0728 -0.1478
28232W        W47086   0.286  16.933   2.816  0.1025  0.0688 -0.1309
28233W        W47087  16.127   1.174  14.987 -0.1632  0.1753 -0.3266
28234W        W47088   5.472   8.975   4.065  0.3130  0.2956  0.0901
28235W        W47089   7.381  14.235  15.085 -0.0545 -0.1071 -0.1823
28236W        W47090  13.724   9.726   4.068  0.0897  0.1345 -0.2816
28237W        W47091  13.073   7.221  12.634 -0.2793 -0.0109  0.0760
28238W        W47092  10.605  12.884   3.653  0.1573 -0.0659  0.3318
28239W        W47093  15.424  16.853   0.746  0.0924  0.0439 -0.2133
28240W        W47094  11.330   8.228   0.646 -0.0646  0.2239 -0.0184
28241W        W47095  13.770   3.319  12.996 -0.0522  0.0818 -0.0253
28242W        W47096  12.996  12.289   3.084 -0.0015 -0.0011 -0.0155
28243W        W47097  10.082   9.065  13.757  0.3764  0.0689 -0.0103
28244W        W47098   3.849  10.759   3.869 -0.0265 -0.2754 -0.0704
28245W        W47099  11.294   5.311  11.757  0.0975  0.0963 -0.2073
28246W        W47100   5.902   5.717   0.848  0.3867 -0.0048  0.0240
28247W        W47101  17.837   0.426  14.377 -0.5866  0.0647 -0.2561
28248W        W47102   4.322  10.129  15.104 -0.0383  0.3105  0.0334
28249W        W47103   4.917  13.081  14.863 -0.1409 -0.2073 -0.1088
28250W        W47104   0.894  13.768   2.756 -0.2555  0.1493 -0.0478
28251W        W47105   4.058  10.701   3.211 -0.0289  0.0261  0.0618
28252W        W47106   4.304  16.599   2.180 -0.1984  0.1771  0.1121
28253W        W47107   4.351   4.518  14.722  0.0456  0.0516 -0.0669
28254W        W47108  18.104   2.832   1.953 -0.2502 -0.1416  0.1477
28255W        W47109   1.244  10.988  11.423 -0.1441 -0.2795  0.0038
28256W        W47110  10.435   0.656   5.985 -0.0566  0.1159  0.0559
28257W        W47111   3.606  11.565   2.910  0.1258 -0.3225 -0.3402
28258W        W47112  15.132  10.820  12.795 -0.1648  0.2457 -0.1463
28259W        W47113  17.554  13.767   1.523 -0.0262 -0.1370  0.2462
28260W        W47114  16.396  15.704   3.344 -0.0195  0.0476  0.0145
28261W        W47115   2.955   3.137  10.594  0.1426 -0.2028 -0.1100
28262W        W47116   6.366   8.077  12.909  0.1082 -0.0591  0.1226
28263W        W47117   8.854   7.292  13.879 -0.0726 -0.2054 -0.1322
28264W        W47118  14.998   7.381  14.114 -0.3499  0.3150  0.2569
28265W        W47119  17.004   4.922  11.341  0.1801 -0.0948 -0.0231
28266W        W47120   4.838  11.139  13.137  0.2755  0.0270 -0.1890
28267W        W47121  10.982   8.671  13.306 -0.0397  0.2207  0.0966
28268W        W47122   9.796  13.589   1.756 -0.0297  0.1409 -0.1416
28269W        W47123   9.691  18.257   3.954 -0.2266 -0.2006 -0.1760
28270W        W47124  14.312  11.136   2.802  0.0746 -0.1140  0.1211
28271W        W47125  12.786   8.400   1.823  0.0750  0.0287 -0.1173
28272W        W47126   2.796   5.479  12.298  0.2326  0.1440  0.1498
28273W        W47127  15.341   3.377  12.942  0.0812  0.0571 -0.1465
28274W        W47128   7.203  17.575   3.884  0.0495  0.0318  0.0160
28275W        W47129  18.232  11.057  13.668 -0.0343  0.2262  0.1092
28276W        W47130   3.676  10.019   2.346 -0.2344 -0.1510  0.0106
28277W        W47131   5.211   2.449  12.347 -0.1360 -0.0257 -0.3724
28278W        W47132  12.561  17.667  14.793 -0.0341 -0.0972 -0.0937
28279W        W47133   1.907  15.548   0.564 -0.0089 -0.1649 -0.1396
28280W        W47134   7.917  11.816  14.021  0.0816 -0.1980  0.1731
28281W        W47135   6.963   4.987   3.021 -0.2435 -0.1040  0.3749
28282W        W47136   9.746   7.168   4.201 -0.0907 -0.0209  0.0736
28283W        W47137   9.752  12.035   3.083 -0.0640  0.0296 -0.1535
28284W        W47138   6.775  11.512  14.103  0.1086  0.0895  0.0603
28285W        W47139  14.572   6.913   4.330  0.1346  0.1608  0.1809
28286W        W47140   7.515  14.498   2.256 -0.1066  0.1216  0.1663
28287W        W47141  12.835   0.929  13.568 -0.0451  0.2110  0.0284
28288W        W47142   8.321  17.054   4.414 -0.2531  0.1179 -0.0842
28289W        W47143  10.964   5.217   0.093  0.0836 -0.0318 -0.0405
28290W        W47144   0.640  18.248  13.223 -0.2065 -0.1853  0.0317
28291W        W47145  16.905  14.432   1.188 -0.0496  0.2976  0.1208
28292W        W47146   5.726  10.761   0.889  0.1917  0.0001 -0.1753
28293W        W47147  17.233   6.319  11.203  0.3798  0.0777 -0.0040
28294W        W47148   5.353   9.150  15.202  0.0249  0.1847  0.1719
28295W        W47149   4.571   5.827  11.591 -0.1510  0.1997  0.0055
28296W        W47150  16.435   7.555   0.858 -0.1545  0.1910  0.0718
28297W        W47151  17.840  11.713  12.270  0.0438 -0.0077  0.0724
28298W        W47152  18.356   5.852  15.297  0.1546  0.3805 -0.0732
28299W        W47153   2.051  11.763  12.831 -0.1653  0.1305 -0.0657
28300W        W47154  18.508  13.956   0.348 -0.3427  0.0842 -0.0308
28301W        W47155   8.988   4.154  12.862  0.1166  0.1983  0.0087
28302W        W47156   2.971  18.506  15.132  0.1144 -0.1852 -0.3333
28303W        W47157  13.142   8.050   3.831 -0.0417 -0.3360  0.1814
28304W        W47158   4.657  16.860   0.239 -0.1804  0.3757 -0.1985
28305W        W47159  13.566   5.075   0.174 -0.0585 -0.0216  0.3477
28306W        W47160  10.950  10.028  13.263  0.2281  0.0257  0.1276
28307W        W47161   3.741   6.204   1.401  0.4018 -0.1831  0.0901
28308W        W47162  15.100   7.174   0.209  0.4806  0.1230  0.1412
28309W        W47163   9.972   0.706   2.858 -0.0304  0.0847  0.1419
28310W        W47164   3.278  11.068  14.845 -0.0552  0.1391  0.2168
28311W        W47165  12.338  10.830   0.333 -0.1833 -0.2365 -0.1002
28312W        W47166  14.773  13.676  10.943 -0.1236 -0.2618 -0.1452
28313W        W47167   8.695  13.584  11.544  0.0051 -0.2441  0.2833
28314W        W47168   6.504   8.349   4.174 -0.0965 -0.5122  0.1329
28315W        W47169  18.407   5.508   3.947  0.0094  0.1598  0.2429
28316W        W47170  12.500   0.862  14.281 -0.0848  0.1225 -0.0346
28317W        W47171   5.929   3.835  12.014 -0.1626 -0.1073 -0.2262
28318W        W47172   9.961  11.695  11.658 -0.1347  0.0293  0.3756
28319W        W47173   6.220  16.177   4.888 -0.0009 -0.1851  0.0709
28320W        W47174  12.714   6.961  15.288  0.1163  0.0065  0.0395
28321W        W47175   5.471   2.436  14.717  0.1619 -0.1047 -0.0297
28322W        W47176   5.332  10.587   2.870  0.1678 -0.0602  0.3307
28323W        W47177   7.897   8.883   2.135 -0.3685  0.0713 -0.0913
28324W        W47178  16.864   3.814  11.437 -0.1297  0.1084 -0.2112
28325W        W47179   8.368  13.122  10.809  0.1318 -0.1827  0.0097
28326W        W47180  18.328  13.332   1.892 -0.0097 -0.5116  0.1304
28327W        W47181   6.442  14.368   2.605 -0.0246  0.0023  0.0747
28328W        W47182   9.164   9.473  15.118  0.0715  0.0866 -0.2536
28329W        W47183   5.882   2.785   0.321 -0.0040  0.0944 -0.0626
28330W        W47184  10.386   5.888   1.655 -0.0923 -0.1456  0.3202
28331W        W47185  12.448   3.574  15.144 -0.1788 -0.1781  0.0903
28332W        W47186  18.256   3.795   1.624  0.1623 -0.1702 -0.2964
28333W        W47187   5.482   2.695  14.301  0.1866 -0.0655 -0.0449
28334W        W47188   4.525  14.391  11.909 -0.1085  0.0351 -0.1240
28335W        W47189  10.192   9.297   4.159 -0.0522  0.3715 -0.0787
28336W        W47190  18.143   6.916  12.222 -0.2407  0.1403 -0.0730
28337W        W47191  16.939   7.371   0.757  0.0237  0.0428 -0.2581
28338W        W47192   9.124  14.774   4.016  0.0503  0.2532  0.0897
28339W        W47193   7.036  12.225  12.000 -0.3317 -0.0528 -0.0107
28340W        W47194   2.879  11.788   1.515 -0.4193 -0.0861 -0.1147
28341W        W47195   9.890  17.921   0.494 -0.2115 -0.1366 -0.1255
28342W        W47196   8.264  11.516   2.989  0.0462 -0.1362 -0.1141
28343W        W47197  12.646   7.618  14.848  0.1031 -0.0647  0.1908
28344W        W47198  10.652   8.043  15.028 -0.2316  0.1891  0.0384
28345W        W47199   0.478   2.111  11.741 -0.0929  0.3675 -0.2132
28346W        W47200   9.594   9.899   4.274  0.0761 -0.0199  0.0370
28347W        W47201   7.461  16.778   2.909  0.3560  0.0387  0.1274
28348W        W47202   9.205  18.463   1.966 -0.0589  0.0272 -0.0811
28349W        W47203   9.619  12.329  11.015 -0.2199 -0.0926  0.2629
28350W        W47204   3.994  13.097   3.468 -0.0934 -0.0177  0.0174
28351W        W47205   9.982   9.455   0.974 -0.1306 -0.1588  0.2048
28352W        W47206   9.782  10.424   2.241  0.0565 -0.0437  0.0142
28353W        W47207  10.654  15.408   0.244  0.1060  0.0719 -0.0266
28354W        W47208   6.612   9.094  14.505 -0.4917  0.0641  0.3217
28355W        W47209   1.899   9.824   2.206 -0.0774 -0.1790 -0.0279
28356W        W47210   6.948   9.981   0.423  0.1954  0.0538  0.1202
28357W        W47211  12.953   0.514   5.100  0.3029  0.2684 -0.0788
28358W        W47212   9.060   1.449  13.552 -0.0048  0.0236  0.1678
28359W        W47213  10.169   1.462  13.870 -0.0264 -0.1296 -0.1224
28360W        W47214   4.414   6.007  14.775 -0.0758  0.3791  0.2098
28361W        W47215  12.291  10.196  13.263  0.0202 -0.0396 -0.0230
28362W        W47216   8.948  16.459   0.515 -0.2875  0.0839  0.1545
28363W        W47217   2.655   3.388  11.831  0.0587 -0.2148  0.2925
28364W        W47218  18.462   6.852   4.096  0.1892  0.2856  0.1115
28365W        W47219   6.106  10.766  11.268  0.3332 -0.2949  0.2154
28366W        W47220  17.202  16.608   2.239 -0.0797  0.1076 -0.1262
28367W        W47221  15.641   0.561   4.329 -0.3268 -0.2010 -0.0939
28368W        W47222  18.534  10.378  13.524  0.3502  0.0372  0.0458
28369W        W47223  14.939   9.080  12.620  0.2395  0.2133  0.1361
28370W        W47224  15.536   3.420   2.847 -0.0263 -0.0042  0.0340
28371W        W47225  13.208  18.199   4.115  0.0499 -0.0958 -0.0760
28372W        W47226   0.087   3.411   3.683 -0.1534 -0.1137 -0.1675
28373W        W47227   9.059  12.051   0.175 -0.0246 -0.0108 -0.3580
28374W        W47228   1.004   9.712  14.950 -0.2155  0.0228 -0.1931
28375W        W47229  10.463   4.799  12.563 -0.2236  0.2562 -0.2114
28376W        W47230  16.106  17.321   0.036  0.1776 -0.4588 -0.0001
28377W        W47231   5.798   8.408  13.444  0.3007 -0.1018 -0.0911
28378W        W47232  12.962   9.418   3.961  0.1977 -0.0340  0.0270
28379W        W47233   5.069   8.614  11.562  0.0842  0.0643  0.1492
28380W        W47234   2.235   9.598  14.680  0.0954 -0.1168  0.1038
28381W        W47235  16.407   1.927   4.392 -0.1827 -0.1372  0.0796
28382W        W47236  15.701   8.250  15.291  0.2111  0.3385  0.0268
28383W        W47237  15.882   9.100  11.021  0.3395 -0.2508 -0.1274
28384W        W47238  17.031  11.197  15.301  0.0787 -0.0725  0.0881
28385W        W47239  16.759  17.809  12.125  0.2052  0.0775 -0.0657
28386W        W47240   5.224  10.921   3.585  0.1154  0.0259 -0.3588
28387W        W47241   3.840  12.718   3.759  0.1622  0.1212 -0.1491
28388W        W47242  10.399  16.212  13.818 -0.0824 -0.0929  0.1806
28389W        W47243  14.534   0.045  11.140  0.1876  0.0237 -0.0108
28390W        W47244   7.841  18.228   5.593 -0.1744 -0.0577 -0.0689
28391W        W47245   5.607   4.285   3.772 -0.1670  0.2328 -0.1342
28392W        W47246  15.190  18.550  10.672 -0.0295 -0.1450  0.0384
28393W        W47247   7.222  11.530  10.433  0.1389 -0.3368  0.1670
28394W        W47248   8.447   1.982  12.558  0.3106 -0.0150  0.1458
28395W        W47249   9.697   8.752  14.036 -0.2552  0.1942  0.1536
28396W        W47250  16.017  15.704   4.407 -0.0735  0.3746 -0.0444
28397W        W47251   1.396   2.024  14.308  0.1353  0.2425 -0.0419
28398W        W47252  18.366   2.270  14.708  0.0994 -0.0694  0.4731
28399W        W47253   5.925  11.277  14.240 -0.7115 -0.0737  0.0456
28400W        W47254  10.585  13.666   1.025  0.1847  0.0869  0.0979
28401W        W47255   7.730   2.795  14.058  0.2016 -0.0244  0.0945
28402W        W47256   9.852   6.189  11.888  0.0837  0.0660  0.3449
28403W        W47257   4.310  17.993  11.081 -0.0551 -0.2480 -0.1746
28404W        W47258  15.614  10.826  14.125 -0.2931  0.2067  0.0916
28405W        W47259  17.400   9.399   3.312  0.2190  0.0802 -0.0510
28406W        W47260   2.080  15.129  13.568 -0.2538 -0.1020  0.0016
28407W        W47261   8.019   5.073   1.514  0.0291 -0.0401 -0.0012
28408W        W47262   2.642   7.057   4.697 -0.1178  0.1530 -0.1291
28409W        W47263   1.723   2.972  10.593 -0.0991  0.2295 -0.1756
28410W        W47264  16.196   8.702  14.048  0.0706  0.1492 -0.3991
28411W        W47265  11.108  10.692   3.003 -0.1822  0.0042 -0.3471
28412W        W47266  13.196   2.417   0.259 -0.2292  0.0918  0.0591
28413W        W47267   2.424   0.670   0.839 -0.4197 -0.0806 -0.0640
28414W        W47268   8.386  15.261  14.802  0.0929  0.1623 -0.1716
28415W        W47269   1.832   6.288  11.870  0.1647  0.1880 -0.1205
28416W        W47270   5.836   2.684   0.875  0.1658  0.2186 -0.2454
28417W        W47271   3.887   9.656  11.148  0.0336  0.2047 -0.1524
28418W        W47272   4.692   7.479  12.989 -0.1072 -0.0036  0.0702
28419W        W47273   0.563  11.202  13.803 -0.0211  0.3273  0.3836
28420W        W47274  11.275   6.246   1.515 -0.2369 -0.2551 -0.0494
28421W        W47275  16.971  16.370  11.460  0.0086  0.0440 -0.0405
28422W        W47276  14.781  11.171  12.783 -0.0368  0.1776 -0.0536
28423W        W47277   1.366   3.484  12.637 -0.1224 -0.1147 -0.0178
28424W        W47278   9.066   2.477   3.110 -0.2344 -0.1511  0.0306
28425W        W47279  15.364  10.563  15.378  0.2638 -0.3244 -0.0320
28426W        W47280   0.504   1.655  11.528  0.4156  0.2555  0.0742
28427W        W47281  14.151  16.739   4.523  0.1579  0.5594  0.0106
28428W        W47282   0.786   5.423  13.453  0.2844 -0.1612 -0.0989
28429W        W47283  12.035   5.209  15.183 -0.1339 -0.2559 -0.2315
28430W        W47284  11.761   8.904   0.280 -0.0887  0.0844  0.4171
28431W        W47285   1.933   5.774   3.816  0.1611  0.1625  0.2587
28432W        W47286  13.716  16.679  11.379  0.2842  0.0052  0.1017
28433W        W47287   8.443   3.152   4.203  0.0083 -0.1710  0.1223
28434W        W47288  13.739  17.513  11.011 -0.2492  0.0802 -0.1149
28435W        W47289   2.965   7.220   1.831  0.1191  0.0827  0.1345
28436W        W47290   0.171   7.594  14.378  0.2620 -0.1726 -0.3291
28437W        W47291  18.074   1.568   2.287  0.0486 -0.1107  0.1308
28438W        W47292   4.817  12.438  13.523  0.1633  0.0113 -0.0204
28439W        W47293   9.973  16.535   2.466 -0.3353 -0.2222  0.0025
28440W        W47294   4.694  13.909  15.112 -0.2035  0.0951  0.3087
28441W        W47295   6.517   5.423  12.487 -0.2529 -0.1113  0.0455
28442W        W47296   1.206   7.035   0.432  0.0289 -0.0414 -0.2432
28443W        W47297   8.217  11.688  13.180 -0.0752  0.0686 -0.1724
28444W        W47298   3.998   1.268   3.907  0.0985  0.1122  0.0070
28445W        W47299   4.046   8.822   0.998 -0.0680 -0.2870  0.0041
28446W        W47300  16.968   4.565  12.572 -0.1225  0.1240 -0.1304
28447W        W47301  14.233  11.180  12.679  0.0014  0.4186 -0.1774
28448W        W47302   8.832  14.243   3.538  0.3396  0.3159 -0.1224
28449W        W47303   2.527  18.434   2.079  0.3798 -0.0164  0.0760
28450W        W47304  10.699   9.645  13.529 -0.0949 -0.0793 -0.2201
28451W        W47305   8.687  12.305  12.905  0.2815 -0.2648 -0.0813
28452W        W47306  11.932  17.536   4.226  0.0214  0.0520 -0.3329
28453W        W47307   2.549  12.012  11.406 -0.0473 -0.0311  0.2128
28454W        W47308   4.513  13.440   0.195  0.0413 -0.1377 -0.0975
28455W        W47309  11.204   1.392   3.295 -0.1936  0.1254 -0.1873
28456W        W47310   9.448   4.310  15.223 -0.0427  0.1216 -0.0691
28457W        W47311   5.233  12.013  13.524  0.0483 -0.1702 -0.1199
28458W        W47312   4.798  12.166   3.793  0.4269  0.2114 -0.1150
28459W        W47313  13.204   6.237   3.407  0.3820  0.2578  0.0692
28460W        W47314   7.399  16.387  14.470 -0.1189  0.0146 -0.1883
28461W        W47315   1.346  11.381   1.426 -0.0548 -0.0595 -0.1518
28462W        W47316   5.544   8.836  12.572 -0.0459 -0.0007 -0.2025
28463W        W47317   4.091   7.545  11.632  0.1905 -0.1481  0.0471
28464W        W47318   3.039   2.046  14.526  0.1499 -0.1299 -0.1444
28465W        W47319  16.943   0.905  12.252  0.1568 -0.1138  0.1390
28466W        W47320   6.679  11.075   4.065  0.1722 -0.3053 -0.1500
28467W        W47321  14.223  17.866   2.625  0.0570  0.1179 -0.0651
28468W        W47322  18.383  17.961  13.865  0.5001  0.0050  0.0352
28469W        W47323  10.717  13.734   3.826 -0.1963  0.0450 -0.1914
28470W        W47324  15.531   2.889   2.701 -0.2723  0.1078 -0.3361
28471W        W47325  16.454   4.887  11.143  0.2438  0.0089  0.2814
28472W        W47326  17.227   8.095  12.499  0.1414  0.1089 -0.1955
28473W        W47327  10.885   0.808  11.956 -0.0492  0.2891 -0.0744
28474W        W47328  13.390   4.282  14.440 -0.0005 -0.2780  0.1358
28475W        W47329   5.542   8.785   1.912 -0.1034 -0.2400 -0.1071
28476W        W47330  16.597   3.788  12.112 -0.0597 -0.0197 -0.2254
28477W        W47331  12.335   4.264  14.785  0.1297  0.2116  0.1689
28478W        W47332  10.567  17.030   1.318 -0.1936 -0.1987  0.2254
28479W        W47333   7.142   9.442   2.281  0.1996  0.2018  0.0478
28480W        W47334   8.751   8.512  14.470 -0.1870 -0.2809 -0.1850
28481W        W47335  13.896   5.785  14.276  0.1211 -0.0134  0.2310
28482W        W47336   8.301   9.408  14.139 -0.0887 -0.0943 -0.0842
28483W        W47337   8.780  10.675   0.547 -0.1356  0.0367 -0.1106
28484W        W47338   8.451  15.865   1.431  0.1057  0.0854  0.0874
28485W        W47339  10.196   2.678   1.565  0.3399  0.0903 -0.2799
28486W        W47340   3.833  16.940  11.996 -0.2092 -0.0633  0.0692
28487W        W47341  14.721   3.448   0.291  0.0137 -0.2681 -0.2556
28488W        W47342   3.464   3.242   1.535 -0.3018  0.0860 -0.2365
28489W        W47343   4.527  13.902   1.085 -0.2058 -0.1440  0.0103
28490W        W47344   2.849   2.555   4.337  0.0887 -0.1156  0.1092
28491W        W47345   6.883  18.511  13.222 -0.0722  0.1367  0.0657
28492W        W47346   1.610   5.112   2.833  0.0694 -0.2383 -0.4002
28493W        W47347   4.733   4.874   2.611 -0.2028  0.1539  0.1559
28494W        W47348   5.555  14.293  12.152  0.3001 -0.0802  0.0916
28495W        W47349   4.450   1.905  10.593  0.0457 -0.0671  0.1662
28496W        W47350  16.535  16.247   1.659  0.0876 -0.0126  0.0838
28497W        W47351  13.152   2.108   1.877 -0.1796 -0.1197  0.0280
28498W        W47352   7.357   6.728  13.363  0.3327  0.1825 -0.1113
28499W        W47353  13.570   4.843  12.153 -0.0720  0.2743 -0.0428
28500W        W47354  11.588  11.796   0.351 -0.4225 -0.1605 -0.0491
28501W        W47355   3.457   4.203   3.967 -0.1832  0.0934 -0.0284
28502W        W47356   2.081  14.473  15.398  0.1368 -0.0901  0.0673
28503W        W47357  11.239  17.551   4.717  0.2093 -0.3055  0.2888
28504W        W47358   7.032   3.767  12.910 -0.0951  0.1049  0.1314
28505W        W47359  11.235  15.498   0.159 -0.0915 -0.0347  0.0176
28506W        W47360   1.726   4.438  14.520  0.1275  0.0195  0.1079
28507W        W47361   1.263   8.524  15.353 -0.2523 -0.0486  0.0318
28508W        W47362   8.472   9.756   2.990 -0.0156 -0.1874 -0.0100
28509W        W47363  16.304   1.941  11.365 -0.0431 -0.1764 -0.0103
28510W        W47364  11.455   5.872  15.096 -0.0074 -0.3246 -0.0705
28511W        W47365   4.555  11.826   0.279  0.1329  0.0738 -0.2211
28512W        W47366  13.975  17.247  14.654  0.1830 -0.0946 -0.0437
28513W        W47367  17.376   0.727  14.071  0.1381 -0.1454  0.0071
28514W        W47368   9.517  17.412  11.694 -0.0060 -0.1983  0.0582
28515W        W47369  11.777  13.010   2.836  0.0740  0.2082  0.2655
28516W        W47370   8.575   7.278  14.844  0.0067  0.0211 -0.1817
28517W        W47371  12.671   1.419  13.457 -0.1796 -0.1340 -0.3768
28518W        W47372  13.724  12.865   4.034  0.2453  0.0767 -0.0396
28519W        W47373  18.012   6.950  11.746 -0.1431  0.0680  0.0894
28520W        W47374   8.622   7.098  11.336  0.2985 -0.0830 -0.3758
28521W        W47375   3.074   7.392  13.789 -0.1588  0.0152 -0.1033
28522W        W47376   0.109   1.833  14.631  0.2170 -0.2113 -0.0194
28523W        W47377  13.842   7.608   0.947 -0.0485  0.2450 -0.1401
28524W        W47378   0.419   7.089  11.774 -0.1036 -0.0065  0.1493
28525W        W47379   0.572  14.618   0.970  0.1726  0.0600 -0.0389
28526W        W47380   8.701   1.359  11.381 -0.0892 -0.1506 -0.1007
28527W        W47381   0.323  16.534  15.392  0.1118  0.2001 -0.3983
28528W        W47382   8.902   4.799   2.568 -0.0368  0.1510 -0.0488
28529W        W47383   5.856   3.617  11.233 -0.0245  0.1630 -0.2270
28530W        W47384  18.166  11.073  12.915 -0.0208 -0.1951  0.5401
28531W        W47385  17.946   2.660   0.516 -0.0297  0.0743 -0.0513
28532W        W47386   1.337   9.726  13.072  0.1043 -0.0662 -0.1015
28533W        W47387  14.998  12.663   0.094 -0.1238 -0.1465  0.5497
28534W        W47388   9.170   4.889   2.113  0.0395 -0.1105 -0.0665
28535W        W47389   0.805   0.097  11.961  0.0455  0.0720 -0.0776
28536W        W47390  14.276  15.858   0.357  0.0746  0.1430 -0.1843
28537W        W47391  18.004  14.709  10.201  0.0612  0.0900  0.0363
28538W        W47392  13.395  16.453   1.927  0.1611 -0.4729  0.0893
28539W        W47393   6.945  11.987   2.710 -0.2880  0.1123 -0.0918
28540W        W47394   0.686   1.396  12.873 -0.2805 -0.0034 -0.2444
28541W        W47395  14.966  10.977   0.434 -0.1553 -0.1490 -0.0301
28542W        W47396   2.649   0.630  13.694  0.0054 -0.2377 -0.0850
28543W        W47397   5.273   1.674   4.147 -0.1026  0.0945  0.1939
28544W        W47398   6.107  12.579  15.319 -0.2162  0.2721 -0.1085
28545W        W47399  10.701   9.452   2.977  0.2054  0.1426 -0.0273
28546W        W47400  11.876  16.384  10.969  0.1358  0.1169  0.1831
28547W        W47401   8.054   5.566   1.718 -0.0665  0.2630  0.1594
28548W        W47402   2.090   9.845   1.211  0.3442  0.0022 -0.4266
28549W        W47403   8.365   8.022  15.433  0.1844 -0.0695 -0.1881
28550W        W47404  14.322   3.069  14.215 -0.0122  0.0013 -0.0337
28551W        W47405  11.736   6.634   0.063  0.4082 -0.1561 -0.2485
28552W        W47406   5.819  12.245   0.047 -0.0201 -0.2458 -0.0235
28553W        W47407  17.564  18.498   2.152 -0.0084  0.0164 -0.2465
28554W        W47408  15.528  14.814  15.062  0.2167  0.0300 -0.2577
28555W        W47409  10.928  16.498   3.533  0.3270 -0.3262 -0.3641
28556W        W47410  17.629  14.160  12.171  0.2682  0.1037 -0.0542
28557W        W47411  17.146   4.948  15.210 -0.2142  0.0486 -0.0095
28558W        W47412  16.101   8.811   4.393  0.0891 -0.1013  0.2349
28559W        W47413   8.524  17.659  12.398  0.2175 -0.2882  0.0726
28560W        W47414   6.948  14.894   1.488 -0.1213  0.1787 -0.1681
28561W        W47415  13.826   7.379   2.053  0.0895 -0.1839 -0.5463
28562W        W47416  16.262   0.975   1.975 -0.2444  0.1783 -0.2176
28563W        W47417  10.692   2.574   1.624  0.0868 -0.1887 -0.1709
28564W        W47418  17.731   5.535   4.224 -0.2057  0.0739  0.1100
28565W        W47419   2.653   5.572   0.249  0.0491  0.0587 -0.1048
28566W        W47420   0.730  17.437   0.697 -0.0157 -0.0521 -0.0712
28567W        W47421   5.793  14.349  13.277 -0.1060  0.0220 -0.1243
28568W        W47422  15.078  12.272   3.330 -0.1118  0.0893 -0.1305
28569W        W47423  12.092  16.497   1.516 -0.3061 -0.0840 -0.1190
28570W        W47424  17.139   2.467   3.776  0.0815 -0.0815  0.1596
28571W        W47425   0.983   0.597   2.889 -0.1031 -0.1308 -0.0048
28572W        W47426  16.202  17.033   1.425 -0.4033 -0.2250  0.1709
28573W        W47427   4.607  11.738   1.159  0.2357 -0.1951  0.2395
28574W        W47428  11.054   4.883  11.776  0.1889 -0.2083  0.0720
28575W        W47429   6.499   6.477  10.948 -0.0772  0.2984  0.0148
28576W        W47430  12.376   9.795   0.004 -0.1358 -0.5428  0.0780
28577W        W47431  18.201   8.170   3.770  0.0962 -0.0050 -0.0740
28578W        W47432   3.637   9.480   2.274  0.0118 -0.2221 -0.2224
28579W        W47433   5.590  13.202   1.780  0.1530 -0.1527  0.2693
28580W        W47434   5.773  16.672  11.486  0.0889 -0.0285  0.1726
28581W        W47435   7.122  12.334   3.003 -0.0605 -0.0721  0.0757
28582W        W47436  15.707  17.811  11.770 -0.2635 -0.2323  0.0432
28583W        W47437   9.948   9.817   3.584  0.0675 -0.1382 -0.2018
28584W        W47438  17.981  14.721   2.251  0.3402  0.0799  0.1936
28585W        W47439   3.468   7.341  14.134 -0.2241 -0.0304  0.1616
28586W        W47440  14.755   7.287  12.225  0.1675  0.0535  0.2135
28587W        W47441  11.961  12.998  14.310  0.2288  0.3097  0.0702
28588W        W47442   2.341  12.972  10.930  0.0169  0.4040 -0.2183
28589W        W47443   8.158  11.868  14.552 -0.0414 -0.2202  0.1193
28590W        W47444   5.444  16.089   4.363  0.1675  0.2163 -0.0081
28591W        W47445  11.141  16.280  11.600  0.0525 -0.0917 -0.1999
28592W        W47446   6.920  10.285  10.310 -0.1565 -0.0842 -0.0141
28593W        W47447   5.248   8.873  12.113  0.0939 -0.0912 -0.2179
28594W        W47448  13.979  13.872   2.233  0.1742 -0.0176  0.0478
28595W        W47449  12.435   2.068   0.874 -0.2733 -0.3107 -0.1264
28596W        W47450   1.252  11.498  13.186 -0.1273  0.1675  0.0321
28597W        W47451  14.637  15.839  14.610  0.0348 -0.1435  0.0980
28598W        W47452  15.234   4.199   3.903  0.3444  0.0503 -0.1967
28599W        W47453   5.794   9.737   3.883 -0.0515 -0.0460  0.0198
28600W        W47454  18.510   1.625   3.637  0.0718 -0.0101  0.3791
28601W        W47455  14.540   5.122   4.386 -0.0165  0.2347  0.2012
28602W        W47456   2.613  17.301   2.877 -0.0831  0.0820  0.1230
28603W        W47457   2.214   8.846   1.327  0.2820 -0.0020 -0.0032
28604W        W47458   9.020   8.196  14.081 -0.0336  0.0151 -0.1999
28605W        W47459   0.267   1.186  15.293  0.5467 -0.2626 -0.1317
28606W        W47460  16.437  11.221   4.169 -0.1511  0.2321  0.0026
28607W        W47461   9.483   5.767  11.930  0.2063 -0.1622 -0.2606
28608W        W47462  13.210  14.758  11.559  0.1996 -0.1343 -0.0285
28609W        W47463   1.045  16.090  12.358 -0.0594  0.1366  0.1098
28610W        W47464   1.828  13.821  13.391 -0.1395  0.1293 -0.0581
28611W        W47465   2.981   6.436  11.171  0.1463 -0.1288  0.1527
28612W        W47466   8.594  10.554   3.174  0.2519  0.0651 -0.2515
28613W        W47467  14.944   2.122   0.704  0.0057  0.0115  0.0169
28614W        W47468   0.778   4.525  14.709  0.0768 -0.3221  0.2781
28615W        W47469  10.031   0.778  14.350 -0.1603  0.2272 -0.1358
28616W        W47470   1.774   1.110   2.929  0.1110  0.1774  0.0738
28617W        W47471   9.010   4.458  14.343 -0.2014 -0.2289  0.0534
28618W        W47472   7.187  14.132   2.275 -0.0902  0.1577  0.1798
28619W        W47473   9.321  16.924   3.017  0.1667  0.1261  0.0716
28620W        W47474   4.042   6.939   1.768 -0.1364 -0.0753 -0.0762
28621W        W47475   1.645  15.393  12.886 -0.0618 -0.1696 -0.0873
28622W        W47476  13.154  18.508   4.962  0.1093 -0.2643  0.0952
28623W        W47477   3.218  14.851   4.459 -0.0403 -0.2487 -0.0743
28624W        W47478  12.466  11.623  13.585  0.0796  0.3796 -0.1868
28625W        W47479   5.681  12.477  12.875 -0.0878 -0.3346  0.1239
28626W        W47480  10.948  17.996   2.215  0.1164 -0.2047 -0.3124
28627W        W47481  14.764  10.639   1.649  0.1653 -0.2728 -0.0497
28628W        W47482  16.737  11.655  13.241 -0.0808 -0.2775  0.1644
28629W        W47483  16.243  17.553  12.907  0.1367  0.0779 -0.2651
28630W        W47484  10.662   0.090   1.945  0.1166 -0.1089 -0.1174
28631W        W47485  16.480   6.441   0.728  0.1211 -0.0310  0.1084
28632W        W47486   4.429   6.162  13.314  0.1095  0.0760  0.0393
28633W        W47487   3.608  16.441  13.174  0.3810 -0.1127  0.0957
28634W        W47488   6.791   2.238  10.346  0.0846 -0.1628  0.1122
28635W        W47489   2.192  10.198   3.496 -0.1546 -0.3118  0.0214
28636W        W47490   3.241  11.651  12.407  0.0651  0.0183  0.1171
28637W        W47491   9.836   4.351  13.711 -0.0247 -0.1253  0.3750
28638W        W47492   7.745   6.371  13.235 -0.1586  0.1593  0.0281
28639W        W47493   8.048  16.615   1.601 -0.4562  0.1454 -0.1369
28640W        W47494  15.897   0.854  13.744 -0.0608  0.0202  0.1236
28641W        W47495   4.148   6.772  11.370  0.1283  0.1005  0.3462
28642W        W47496   4.794   2.517  13.135 -0.2480  0.1815 -0.2854
28643W        W47497   3.306   8.709   1.325  0.0310 -0.4753 -0.3587
28644W        W47498  13.806  12.338   1.086 -0.0002  0.1858  0.2989
28645W        W47499   0.962   5.077  12.682 -0.1489  0.2497  0.2519
28646W        W47500  15.942  16.851  11.231 -0.1416  0.1097  0.0665
28647W        W47501   6.817  15.890  14.870  0.2026 -0.1599 -0.1666
28648W        W47502   3.723  13.813  13.016 -0.0487 -0.2194 -0.3196
28649W        W47503  11.232   6.565   3.061  0.0834 -0.0321 -0.0462
28650W        W47504   3.885   4.342  10.600  0.0590  0.1696 -0.2330
28651W        W47505  16.354   9.117  13.897  0.1045  0.1065  0.2849
28652W        W47506   3.774  16.488  14.810 -0.0977  0.0782 -0.0465
28653W        W47507   4.595   5.773   3.975  0.1652  0.2901  0.1214
28654W        W47508  17.187   4.937   1.609  0.0876 -0.0006 -0.1825
28655W        W47509  12.639   1.436  14.434 -0.0711 -0.0955 -0.5786
28656W        W47510  15.767   4.612   4.006 -0.0728 -0.2019  0.0528
28657W        W47511   8.184   9.485  11.832 -0.0669 -0.1668 -0.1780
28658W        W47512  17.674  17.517  12.709 -0.1941 -0.0535  0.0009
28659W        W47513   8.675   3.885   0.658  0.1854 -0.0888  0.2005
28660W        W47514   7.944  16.039   1.434  0.0325  0.0983 -0.2127
28661W        W47515   5.435   0.047   3.300 -0.3626  0.0623  0.0546
28662W        W47516   0.604   0.504   2.216 -0.0290  0.0616  0.2278
28663W        W47517   8.228  13.071   1.159  0.1671 -0.0087 -0.1729
28664W        W47518  15.607  11.745   3.789  0.0048  0.1525 -0.2799
28665W        W47519   8.589   8.426   2.276 -0.0714  0.0831 -0.0845
28666W        W47520  10.103   6.066   2.969 -0.1827  0.1364 -0.0490
28667W        W47521   1.054  15.299  14.123 -0.0487 -0.0194 -0.0263
28668W        W47522   4.334  11.658  10.640  0.0160 -0.2801  0.1972
28669W        W47523   7.994  17.024  12.387 -0.0046  0.2291  0.1305
28670W        W47524   6.367   9.223   2.300 -0.0079  0.0525 -0.0493
28671W        W47525  12.156  11.952   2.104 -0.0517 -0.0549 -0.3920
28672W        W47526   7.839   5.992   5.326 -0.2992 -0.2460  0.1389
28673W        W47527  14.959   0.171   5.600  0.0163 -0.0462  0.1032
28674W        W47528  13.499  11.555   4.020 -0.0514 -0.0577 -0.0663
28675W        W47529   7.330   0.267   3.324 -0.0952  0.0295  0.2533
28676W        W47530  17.286  10.754  12.722 -0.1542  0.4415 -0.1204
28677W        W47531   5.839   3.430  12.385 -0.0547 -0.1168 -0.2003
28678W        W47532   2.262   6.418   1.933  0.1330  0.0121  0.0257
28679W        W47533  17.014   6.991   2.460  0.0428  0.0192  0.1108
28680W        W47534  11.736   3.249   3.602  0.0047 -0.1280  0.1945
28681W        W47535   0.760  18.521   3.740  0.1817  0.2041 -0.0751
28682W        W47536   8.180  14.158  10.437 -0.1088 -0.0755 -0.3562
28683W        W47537  13.417   5.631   4.677  0.0804  0.2504  0.2082
28684W        W47538   8.463   2.400  13.952 -0.3499  0.0824  0.1023
28685W        W47539   8.743  15.612   2.149  0.0161  0.1395  0.1419
28686W        W47540   1.304  13.542  14.231 -0.1805  0.1497 -0.1575
28687W        W47541  14.333   3.394  14.638  0.0541  0.1326 -0.2647
28688W        W47542  12.631   7.160  11.626  0.3673  0.0750 -0.0825
28689W        W47543  13.840  11.553  14.353  0.1182  0.0794  0.1842
28690W        W47544   5.214   2.745   1.891  0.2787  0.0450 -0.0394
28691W        W47545   4.287  13.000   1.180 -0.2616  0.1626  0.0506
28692W        W47546  13.743   5.196   5.363  0.1456 -0.1681  0.4423
28693W        W47547   8.504  12.997   4.090  0.2258  0.0016  0.0485
28694W        W47548   3.262  17.737   2.279  0.1629  0.3736 -0.0870
28695W        W47549   9.427   2.459   4.001 -0.2716 -0.0505 -0.0329
28696W        W47550   5.490  18.100  14.433  0.0214  0.1028 -0.0138
28697W        W47551  17.309  12.143   0.755 -0.0005  0.3050 -0.1859
28698W        W47552   8.862   1.903   0.404 -0.0263  0.1111  0.0281
28699W        W47553  11.577  11.066  11.405 -0.1178  0.0852  0.1007
28700W        W47554  11.226   9.875   1.778 -0.0494  0.1642  0.0934
28701W        W47555  11.212   8.494  10.274  0.1259  0.1438  0.0908
28702W        W47556  16.541  17.563   4.286 -0.2756  0.1319 -0.1220
28703W        W47557  14.612  10.227  11.284 -0.2767  0.1288  0.0400
28704W        W47558  16.704   7.526   4.623 -0.2675  0.0440 -0.0089
28705W        W47559   1.756  15.658  14.725  0.0719  0.0657 -0.1604
28706W        W47560   9.688   7.723   4.210 -0.2895  0.4802  0.2319
28707W        W47561   2.791   2.413  11.476 -0.1266  0.1921 -0.1969
28708W        W47562  13.809   4.562   3.982  0.2765  0.0362 -0.2899
28709W        W47563   7.228   8.488  13.902 -0.0436 -0.2413 -0.0955
28710W        W47564   1.878   0.600   3.987 -0.1099 -0.0035  0.0399
28711W        W47565   1.292  12.825  13.367 -0.1221  0.1368  0.0126
28712W        W47566   0.909   2.168   3.993  0.2218  0.1220 -0.0205
28713W        W47567   0.276   3.590  10.551  0.3278 -0.3361  0.4800
28714W        W47568  16.734   0.893   1.734 -0.2235  0.1531 -0.2065
28715W        W47569  12.800  17.589  15.272 -0.2293  0.0577 -0.0398
28716W        W47570  14.427   8.227  13.707  0.0949 -0.1028  0.1255
28717W        W47571   7.287   6.103   2.597 -0.1724  0.1051 -0.0660
28718W        W47572  12.154  16.736   0.172 -0.0726  0.3878  0.0846
28719W        W47573   7.817   8.964   2.599 -0.1874  0.3662 -0.2926
28720W        W47574   0.328   5.668   2.220 -0.2401  0.1379 -0.0126
28721W        W47575   6.188   4.736   0.880  0.2045 -0.4076  0.2149
28722W        W47576   2.536  11.311   3.654 -0.3105  0.1024  0.0683
28723W        W47577   5.246   4.414  11.497 -0.1328 -0.2805  0.3629
28724W        W47578  15.998  14.487  12.920  0.3149  0.1257  0.3326
28725W        W47579   7.496   3.513  12.205  0.0411 -0.1618 -0.2742
28726W        W47580  16.007   7.141   2.026  0.4080 -0.0914  0.1085
28727W        W47581   2.154  12.990   1.773  0.0787  0.1929  0.0539
28728W        W47582  17.627   3.435  11.236  0.0433  0.1834 -0.3173
28729W        W47583  13.229   9.506   2.628 -0.2617 -0.1901 -0.1559
28730W        W47584  14.271  11.943  11.718 -0.1780  0.4255 -0.1137
28731W        W47585   9.832   1.234  14.114  0.0016 -0.1001 -0.0814
28732W        W47586  13.331  16.031  11.000  0.3174  0.0540 -0.2290
28733W        W47587   5.137  15.613  10.863 -0.1862  0.1945 -0.2809
28734W        W47588   5.355   0.877   1.800  0.1390  0.1185 -0.1782
28735W        W47589   3.414   4.505   0.272 -0.2506  0.0738  0.3468
28736W        W47590  15.778   2.130   1.814 -0.0254 -0.1509 -0.1665
28737W        W47591   9.466  17.445   0.204 -0.1097 -0.2563 -0.1755
28738W        W47592  15.012   7.036   1.706  0.1486 -0.1813 -0.2622
28739W        W47593   4.706  14.184  12.342  0.3755  0.1167  0.0527
28740W        W47594   9.266   2.885  15.042  0.0133 -0.1267 -0.0922
28741W        W47595  18.107  14.624   1.783  0.1266 -0.0731  0.2044
28742W        W47596  16.028  17.551   4.469  0.2812 -0.1925  0.1019
28743W        W47597   6.213  12.260  13.201 -0.1139 -0.0698  0.1111
28744W        W47598  16.160   9.953   3.193 -0.2644 -0.1531  0.0098
28745W        W47599  11.904   9.929   0.001 -0.0973 -0.0197  0.1011
28746W        W47600   4.161   5.702  15.185 -0.3322  0.1672  0.0177
28747W        W47601   8.035   5.744  11.778 -0.3226 -0.1621  0.1431
28748W        W47602  17.095   0.241   1.643 -0.3010  0.1223 -0.0209
28749W        W47603  14.941  16.965   0.717 -0.3008 -0.2403  0.1346
28750W        W47604   8.840   5.905  14.441  0.1544 -0.3939 -0.1816
28751W        W47605   8.649  15.393   4.685 -0.2070 -0.0569  0.5000
28752W        W47606   7.773  11.922  13.354 -0.2752  0.0117  0.0099
28753W        W47607   3.689   2.237   2.945  0.1208 -0.0535  0.1236
28754W        W47608  15.071   8.121  14.564 -0.1046  0.0899  0.3025
28755W        W47609   3.901  13.225  11.667  0.1540 -0.0322  0.0764
28756W        W47610   0.413   6.141   3.583  0.1131 -0.0275  0.2030
28757W        W47611   7.343   7.787   0.835 -0.0111  0.3509 -0.0975
28758W        W47612   2.874  17.456  15.253  0.0658 -0.1875 -0.1314
28759W        W47613   4.447  18.547   3.571  0.0423  0.3462  0.0740
28760W        W47614   2.391   6.758   5.271  0.1005  0.2723  0.2270
28761W        W47615   8.929   0.231   3.012 -0.0048 -0.1816 -0.0105
28762W        W47616   6.732   6.631  12.024 -0.2484 -0.0119 -0.0949
28763W        W47617  10.155   0.888   2.442  0.5162  0.3059  0.1617
28764W        W47618   9.369   4.849   2.785 -0.2146 -0.0905 -0.1179
28765W        W47619  17.941   3.666   2.017  0.0550  0.0714  0.2475
28766W        W47620  18.081   6.209  15.042 -0.0973 -0.1454 -0.1691
28767W        W47621   2.554  10.955   2.361  0.3747 -0.2009 -0.1029
28768W        W47622   4.182   3.448   1.388  0.0781  0.4242 -0.1911
28769W        W47623   1.466  13.429   2.106  0.1416 -0.2336 -0.0279
28770W        W47624  13.778   7.679   2.514 -0.0716 -0.1611  0.0472
28771W        W47625   1.732  13.251  12.623  0.0102 -0.0463 -0.0984
28772W        W47626  12.304   8.945  12.764 -0.0423 -0.0476 -0.0244
28773W        W47627  16.307  10.746  14.760  0.2628  0.1110  0.0135
28774W        W47628   9.049   9.359  13.670 -0.2072  0.0184 -0.1074
28775W        W47629  15.982   3.915   2.409  0.0368 -0.2607  0.3166
28776W        W47630   9.412   1.513   2.804  0.3967 -0.0307 -0.1841
28777W        W47631  12.180   3.307   2.589 -0.0830 -0.0932  0.2591
28778W        W47632  17.646   5.617  13.620  0.1136 -0.3659 -0.3703
28779W        W47633  16.947   9.935  11.021 -0.1533  0.1511  0.2879
28780W        W47634  12.747   0.056   3.876 -0.0846  0.0149 -0.1417
28781W        W47635  10.032   9.782   4.534 -0.2746  0.1807 -0.1379
28782W        W47636  14.804  17.352   1.038 -0.1997  0.0364  0.2593
28783W        W47637   1.301  13.849  13.221  0.1249 -0.0230  0.1576
28784W        W47638   9.021   4.381  13.891 -0.1748  0.0186 -0.1308
28785W        W47639  16.504  13.905   4.565 -0.2125  0.2412  0.0181
28786W        W47640  10.660   0.225  14.702  0.3400 -0.0717  0.0590
28787W        W47641   5.506  10.326  14.323  0.1268  0.1564  0.0757
28788W        W47642  17.710  16.714   5.524 -0.1269  0.0345 -0.0121
28789W        W47643   5.748   4.951   3.342  0.0961  0.0209 -0.2125
28790W        W47644   1.960  10.666   3.531 -0.2739  0.2273 -0.0653
28791W        W47645   8.313  10.293  10.082 -0.0131 -0.0322  0.1189
28792W        W47646   0.884   3.281   0.150  0.1556 -0.2403  0.0551
28793W        W47647   5.887   7.174  11.089 -0.0730 -0.1370  0.0316
28794W        W47648  17.968   7.703   3.093 -0.2246 -0.1770  0.1233
28795W        W47649   5.787   4.589   2.516 -0.1612  0.0261  0.0692
28796W        W47650   5.644   2.949   1.823  0.0877  0.3545  0.1296
28797W        W47651   7.036  12.841  14.314 -0.1333 -0.1214  0.1736
28798W        W47652  10.008  11.787  15.250 -0.3277  0.1286  0.0308
28799W        W47653   8.610   1.212   3.004  0.1126  0.0155  0.4708
28800W        W47654  15.031   6.378   3.263  0.1576 -0.0468  0.0829
28801W        W47655  15.288   1.429  14.071 -0.0782 -0.1663 -0.1890
28802W        W47656   3.717   7.786   3.956  0.0012 -0.0510 -0.0272
28803W        W47657   9.991   2.798   4.713  0.0442 -0.3005  0.0875
28804W        W47658   1.875   8.102   0.018  0.1511  0.1068  0.0527
28805W        W47659  11.007   5.916   2.451 -0.1150 -0.0980 -0.1804
28806W        W47660  15.440   2.115  10.965 -0.2695 -0.1189 -0.0444
28807W        W47661   3.498   9.305  14.126  0.0676 -0.0176 -0.2531
28808W        W47662   7.560  16.488  13.374 -0.1567  0.2867 -0.0640
28809W        W47663  10.905   4.360  15.224  0.0779 -0.1684 -0.0681
28810W        W47664   6.805   3.670  10.009  0.0100 -0.0693 -0.2004
28811W        W47665   4.290  16.749   3.671  0.1943 -0.0443  0.0161
28812W        W47666  17.637  15.456  13.039  0.1670  0.0771  0.2224
28813W        W47667  15.822  14.639   0.101 -0.1801 -0.0501 -0.1814
28814W        W47668  12.364  14.233   0.077 -0.0287  0.0658  0.2358
28815W        W47669   3.501   7.418  10.142 -0.0173  0.1479 -0.3369
28816W        W47670  17.921   3.878  14.420  0.1372  0.0773  0.2337
28817W        W47671  11.188   1.303  13.779  0.1192  0.2456  0.0071
28818W        W47672  17.133  12.399   1.671  0.0085 -0.1543  0.0931
28819W        W47673   8.055  17.944   1.154  0.2419  0.0020 -0.0020
28820W        W47674  15.959   7.178   0.203 -0.0976  0.2895 -0.0585
28821W        W47675   1.642   3.243   2.372  0.2142  0.0496  0.1467
28822W        W47676   6.404   1.620   3.332 -0.0984 -0.0122 -0.0785
28823W        W47677   7.754   0.622  12.538  0.0640 -0.1154 -0.0199
28824W        W47678   6.516   5.695  11.521 -0.3096 -0.0336 -0.0689
28825W        W47679   4.491   5.237   1.638 -0.2151  0.0694 -0.1321
28826W        W47680  14.937  15.551  11.542 -0.1861 -0.0719  0.4146
28827W        W47681  10.321   2.277   1.246  0.0842  0.1848 -0.1722
28828W        W47682   0.330  12.717  14.304  0.5231  0.2457  0.4477
28829W        W47683  14.039   3.420   4.529  0.2049 -0.1222 -0.0977
28830W        W47684   5.364  10.355  12.150  0.0988  0.2551 -0.1885
28831W        W47685  11.264  11.651   3.294  0.0297 -0.2393 -0.2409
28832W        W47686  11.370  18.399  14.982  0.2467  0.1581  0.0430
28833W        W47687  16.202  16.508   1.412  0.1290 -0.2066 -0.0372
28834W        W47688   2.375   9.942   4.009 -0.1455  0.0773  0.2193
28835W        W47689  17.256   8.304  11.127 -0.3068 -0.4406 -0.0377
28836W        W47690  17.209   8.723  11.881 -0.1911  0.2414  0.1359
28837W        W47691   2.230  17.035  11.130 -0.0144 -0.2413  0.0452
28838W        W47692   2.115   2.055   4.833  0.0119 -0.5178 -0.1896
28839W        W47693   6.519  18.179   0.569 -0.1757 -0.0323 -0.0629
28840W        W47694  17.749   5.401   3.172  0.1214  0.0003 -0.2721
28841W        W47695  13.338   8.035   0.999  0.0125 -0.0267 -0.2883
28842W        W47696  11.503  12.303   0.570 -0.0272  0.3174 -0.0459
28843W        W47697   2.993   6.708   1.695 -0.1967  0.1714 -0.0060
28844W        W47698   2.908   7.231   0.308 -0.1181 -0.1446 -0.2145
28845W        W47699  17.832   1.824  13.517 -0.0856  0.1639  0.0752
28846W        W47700   6.201   1.362  12.806  0.2016  0.0191  0.1030
28847W        W47701  10.322   3.801   3.803 -0.3188 -0.1269 -0.1241
28848W        W47702   0.947   1.770  11.667 -0.0150  0.0838 -0.2255
28849W        W47703  16.685   4.368   4.371 -0.2156  0.0062  0.1785
28850W        W47704   7.737   2.871   3.622  0.1260 -0.0186  0.2911
28851W        W47705   2.161   9.021   1.880 -0.2842  0.0263 -0.1277
28852W        W47706   5.922  10.897   1.926 -0.0553 -0.0352 -0.0487
28853W        W47707  13.846   5.400  13.414  0.0652  0.2521  0.1262
28854W        W47708   9.298   6.757   5.478  0.0894  0.0171  0.4140
28855W        W47709  15.186   9.437   1.086 -0.1042  0.0789 -0.2812
28856W        W47710   9.336   7.423  14.016  0.1351  0.1758  0.5292
28857W        W47711   0.208  10.380  11.272  0.3959 -0.2001  0.0212
28858W        W47712   8.423   3.686  13.909  0.1200 -0.2813  0.0894
28859W        W47713   5.201  10.347   1.534  0.0854 -0.1062  0.0184
28860W        W47714  17.864  12.061   1.950 -0.0109 -0.1423 -0.1798
28861W        W47715   0.280   1.525  12.682  0.3384 -0.0149 -0.1281
28862W        W47716   2.537  16.865   1.546  0.1271  0.0004 -0.0534
28863W        W47717   1.670   4.131  11.934 -0.2161  0.0860  0.1387
28864W        W47718   8.795  12.474  12.311  0.2866 -0.2814 -0.0146
28865W        W47719   5.599  16.648  13.928 -0.2163 -0.0233  0.1941
28866W        W47720   0.737   5.868   3.109 -0.1737  0.0714 -0.0195
28867W        W47721  17.310   1.332  13.644  0.2845  0.0736  0.0731
28868W        W47722   9.014   5.444   4.073  0.0206  0.0750  0.1156
28869W        W47723  16.147   2.729  14.269 -0.2058  0.1821  0.2361
28870W        W47724   7.815  10.943  14.889 -0.1110  0.0272  0.1557
28871W        W47725  18.255   5.174   3.215 -0.1330 -0.0059 -0.2185
28872W        W47726  14.318   7.553   0.077 -0.0645  0.1954  0.3167
28873W        W47727   5.038   3.777   1.928 -0.0533  0.1680  0.1270
28874W        W47728  18.065  18.353   0.062  0.0401  0.3314 -0.1010
28875W        W47729   2.458  12.333  15.247 -0.2662 -0.1197  0.0206
28876W        W47730  10.378  12.281   0.244  0.0847 -0.0854 -0.3553
28877W        W47731  10.834  17.132  14.338  0.1369 -0.1727  0.2195
28878W        W47732   6.149   9.702  12.299 -0.0374 -0.2983 -0.0569
28879W        W47733   0.764  11.274   3.317  0.0118  0.0705 -0.1340
28880W        W47734  16.158   9.881  14.684  0.1175  0.1316 -0.3150
28881W        W47735   2.649   6.142  13.704 -0.0711 -0.1037  0.0861
28882W        W47736  10.005   6.382  12.359  0.1994 -0.3445  0.1759
28883W        W47737  13.659  17.308  15.087  0.1860  0.2478 -0.3291
28884W        W47738   0.562  13.818  11.793 -0.1459 -0.2475  0.0016
28885W        W47739   4.281   8.716   2.293  0.1451 -0.0643 -0.4490
28886W        W47740   0.092   0.892  13.488  0.1081 -0.1478  0.0511
28887W        W47741   4.833  17.862   0.720  0.0052 -0.1891 -0.4971
28888W        W47742   5.774  18.455  11.781 -0.0342  0.2089  0.1750
28889W        W47743  18.467  12.427   0.578  0.0243  0.0451 -0.0331
28890W        W47744  11.399   1.605  11.498  0.0419  0.0837  0.0339
28891W        W47745   5.416  15.778  13.567  0.0136  0.1839 -0.0186
28892W        W47746  15.696  11.051   1.890  0.2177  0.0976  0.0319
28893W        W47747   5.874  10.590  15.356 -0.1691 -0.1664 -0.0300
28894W        W47748  17.494  13.772  14.442  0.2402  0.0748  0.2850
28895W        W47749  16.487  18.121   1.608  0.1577  0.0788  0.0237
28896W        W47750   7.855   3.471  15.292 -0.0079  0.3119  0.3373
28897W        W47751  17.196   3.983  15.060  0.0999 -0.0751  0.1311
28898W        W47752   6.327  13.182  13.938  0.1298 -0.0537 -0.1789
28899W        W47753  11.080   4.918   3.381 -0.0511 -0.1935  0.1998
28900W        W47754  18.559  10.448  10.763 -0.1393 -0.0475  0.1750
28901W        W47755   6.604  12.374  12.799 -0.0882  0.1830  0.1276
28902W        W47756   2.446   1.716   2.640  0.0931 -0.2432  0.1204
28903W        W47757  11.891  17.575   5.915 -0.0789  0.1057 -0.1722
28904W        W47758   1.228  17.192  11.801  0.0242  0.3739 -0.0947
28905W        W47759  14.048   2.471   4.510 -0.2030  0.1466 -0.1854
28906W        W47760   4.356   0.624  14.238 -0.0721  0.2602  0.1770
28907W        W47761   2.546  17.943   4.765 -0.0630 -0.0819 -0.1745
28908W        W47762  12.272  14.854   1.182 -0.0726 -0.0702 -0.0654
28909W        W47763  15.928  15.368  14.814  0.0380  0.2121  0.2248
28910W        W47764  12.927  14.373  13.230 -0.0547  0.0238 -0.2870
28911W        W47765   7.487  13.022   0.063 -0.2980  0.1063  0.1852
28912W        W47766   0.860  14.432   1.951  0.2170 -0.0376 -0.1348
28913W        W47767   8.546   3.394   0.798  0.0386 -0.3936  0.1182
28914W        W47768  16.011   1.223   0.096 -0.0039  0.0622 -0.1953
28915W        W47769   1.242  12.602  12.384  0.0988  0.0085  0.4536
28916W        W47770  14.611   7.414   1.739  0.2429  0.1733  0.1249
28917W        W47771   4.799  12.854  12.512  0.2124  0.1871 -0.2178
28918W        W47772   4.837  10.721   3.860  0.2163  0.1228 -0.0029
28919W        W47773  17.306   1.849   0.281  0.1121  0.1164 -0.4828
28920W        W47774   4.471   7.499   2.807  0.0358  0.0092 -0.0650
28921W        W47775   5.971   3.412   3.489 -0.0389  0.1861  0.1294
28922W        W47776   9.960   9.885   1.248  0.0603  0.1308  0.0487
28923W        W47777   9.567   5.558   4.113 -0.0407 -0.2423  0.0371
28924W        W47778   7.895  18.199  11.595 -0.0185 -0.2650 -0.0575
28925W        W47779  15.461  18.467   3.674 -0.1112 -0.1652  0.3520
28926W        W47780   0.168   1.614  14.165 -0.0699  0.2927  0.0948
28927W        W47781   6.493  13.279   9.882  0.0079  0.0043 -0.0239
28928W        W47782   0.295  13.594  11.003 -0.2424 -0.2556  0.0153
28929W        W47783  11.978   2.442   4.704  0.0302  0.0886 -0.3960
28930W        W47784  14.314  17.061  10.235  0.3035  0.0393  0.2922
28931W        W47785  16.283  10.361   1.446  0.1299  0.0559  0.5255
28932W        W47786   8.525   2.693   2.886  0.2081 -0.1735  0.1387
28933W        W47787   0.221  18.468   2.517  0.0648 -0.1705 -0.0079
28934W        W47788   0.193  15.322  13.017  0.0979  0.0448 -0.3582
28935W        W47789   4.703   1.297  12.038  0.1139  0.1906  0.0599
28936W        W47790  12.506   2.051   0.058 -0.0322  0.2402  0.2572
28937W        W47791   5.772   8.787   3.101  0.0793 -0.0171 -0.0607
28938W        W47792  13.597  11.753  11.194  0.0229 -0.0858  0.3739
28939W        W47793  16.761  18.240   1.956  0.1216 -0.1622 -0.0605
28940W        W47794  17.440   4.822   2.022 -0.2293 -0.2320  0.0399
28941W        W47795  10.884  12.917   1.317 -0.1365 -0.1144 -0.0229
28942W        W47796  15.979   0.187  11.888  0.0627 -0.0366 -0.0900
28943W        W47797   2.963  13.010   4.107  0.1504  0.1848  0.2396
28944W        W47798  14.946   5.179   5.329  0.2461 -0.1848  0.0720
28945W        W47799   2.819   1.795   1.821 -0.1710 -0.0518  0.0999
28946W        W47800  12.673  12.108  11.336 -0.0983 -0.2472  0.0361
28947W        W47801  14.539  17.723  12.862  0.1467 -0.0498 -0.0718
28948W        W47802  12.643  11.223   3.605 -0.0380 -0.0472  0.0818
28949W        W47803   0.304  13.992  13.044 -0.0608 -0.0177  0.1771
28950W        W47804   5.549   6.339  11.123  0.0810  0.3212 -0.0987
28951W        W47805   8.187  17.027   0.690  0.0942 -0.2516 -0.2238
28952W        W47806  16.692  17.353  12.877 -0.1307 -0.1056  0.4733
28953W        W47807  13.766   8.130   1.755 -0.0618 -0.1389 -0.2258
28954ION     NA47808   8.995  18.446  13.144  0.1448  0.0819  0.0468
28955ION     NA47809  15.803   6.713   5.220  0.2369  0.0541  0.0137
28956ION     NA47810  10.213  11.038   5.373  0.1308  0.1268 -0.0660
28957ION     NA47811   1.973   4.618  11.896  0.1106  0.2186 -0.1424
28958ION     NA47812   8.757  17.115   3.149 -0.0042  0.4510 -0.0616
28959ION     NA47813  10.564  13.613   2.364 -0.1839  0.0433 -0.0231
28960ION     NA47814  11.411  14.993  10.694 -0.4539 -0.1558  0.3083
28961ION     NA47815   4.022  14.339  14.262  0.1479  0.3238  0.1274
28962ION     NA47816   3.240   2.210   3.153 -0.3572 -0.0649 -0.1108
28963ION     NA47817   4.012   8.861   4.967 -0.1120  0.0877  0.2074
28964ION     NA47818   2.936  16.334   4.973  0.1335 -0.2426 -0.2914
28965ION     NA47819  15.179   0.508   5.315  0.0421 -0.1440  0.0804
28966ION     NA47820  14.732  10.289  14.187 -0.0920  0.0528 -0.0084
28967ION     NA47821  10.054  17.474  10.651  0.0035 -0.2137  0.0318
28968ION     NA47822  14.692  13.108   5.822 -0.1311  0.1480 -0.2337
28969ION     NA47823   9.404  16.679  10.437  0.0904 -0.1053 -0.1670
28970ION     NA47824  12.243  15.035  10.692 -0.0371  0.0810 -0.2900
28971ION     NA47825  16.779  15.274  14.559 -0.1343  0.3957  0.1917
28972ION     NA47826   4.681  11.184  13.642 -0.1952  0.2621  0.1784
28973ION     NA47827   4.689   2.337   4.375 -0.0967 -0.0886 -0.1444
28974ION     NA47828   4.828  13.563  11.657 -0.0592 -0.0386 -0.0802
28975ION     NA47829  12.398   8.278   1.443  0.2379  0.0421  0.0700
28976ION     NA47830  16.293   6.558  10.074 -0.1345 -0.1187 -0.1343
28977ION     NA47831  16.584   8.902   1.145 -0.1131  0.0782 -0.0945
28978ION     NA47832   5.563   8.785  13.183  0.0837 -0.0238  0.0361
28979ION     NA47833  16.800   7.719   5.547  0.0105  0.0758 -0.1950
28980ION     NA47834   9.475   0.816  12.309  0.0454  0.1472  0.2799
28981ION     NA47835   8.791   6.237   5.412  0.3462  0.2074  0.1293
28982ION     NA47836   7.296   5.837   5.298  0.0086  0.0029 -0.0524
28983ION     NA47837  12.773  13.921  12.987  0.2039 -0.1119  0.0755
28984ION     NA47838   8.974   1.576  10.351  0.0629 -0.2234  0.1768
28985ION     NA47839   3.726   3.853  13.787  0.0819  0.1049 -0.0167
28986ION     NA47840  16.954  14.279  13.021 -0.2150  0.3010  0.3583
28987ION     NA47841  15.300   8.772   5.009  0.2246 -0.0361  0.0636
28988ION     NA47842   1.359   4.566  10.078  0.2599  0.1354 -0.3348
28989ION     NA47843   5.987   8.580  10.078 -0.3211 -0.3598  0.1180
28990ION     NA47844  11.724   2.583  15.246  0.4356 -0.0728  0.0066
28991ION     NA47845   0.459   4.603   2.297 -0.0821  0.1716  0.1413
28992ION     NA47846   1.190  10.042  10.485  0.0555 -0.2525 -0.1520
28993ION     NA47847   6.244  13.660  10.137 -0.1042 -0.0803 -0.0048
28994ION     NA47848  11.909  14.486   1.250  0.0836 -0.2909 -0.1348
28995ION     NA47849   4.316   4.584  12.634 -0.0887 -0.1861 -0.1608
28996ION     NA47850  14.270  14.775   5.371 -0.2454  0.2194 -0.0583
28997ION     NA47851   8.059  17.956   4.575  0.3588 -0.0952  0.2632
28998ION     NA47852   0.801  11.331  13.414  0.2049 -0.1496 -0.0821
28999ION     NA47853   0.935  13.529   9.867  0.0134 -0.1452 -0.0762
29000ION     NA47854   0.003   6.830  10.212  0.0570  0.0601 -0.1215
29001ION     NA47855   1.689  12.799   5.031  0.2285  0.0592  0.1929
29002ION     NA47856  10.038  17.311   3.035  0.0440  0.2376 -0.0219
29003ION     NA47857  13.019  10.491   0.461  0.3493  0.0181 -0.3207
29004ION     NA47858  12.326  17.943  10.318  0.0955  0.1262 -0.0490
29005ION     NA47859   5.913   2.912   2.956 -0.0508 -0.2188  0.1382
29006ION     NA47860  12.202   6.496  15.417 -0.1287  0.0786 -0.2321
29007ION     NA47861   8.767   4.696   5.476  0.1727  0.3361 -0.1567
29008ION     NA47862   2.767   0.671   9.988  0.1400 -0.0763  0.5416
29009ION     NA47863   8.078   2.434   2.036 -0.0786  0.1404 -0.0644
29010ION     NA47864   7.206   0.361  13.136 -0.0773  0.1973  0.0939
29011ION     NA47865  11.370  11.613  10.664  0.1800  0.3728 -0.0700
29012ION     NA47866   5.495  17.699  13.113  0.1379  0.2481  0.0243
29013ION     NA47867   5.310  11.027  10.490  0.1338  0.1123 -0.0784
29014ION     NA47868  10.958   7.132   4.473  0.2284  0.3712 -0.2478
29015ION     NA47869   2.558  15.739  14.558 -0.0748  0.2577 -0.1037
29016ION     NA47870   5.290   8.067   5.216 -0.4362  0.0731  0.0112
29017ION     NA47871  18.076   2.968   9.709 -0.2458  0.0522 -0.0287
29018ION     NA47872  18.340   7.785   5.190 -0.3719  0.0057  0.1322
29019ION     NA47873  15.028  16.535  11.751 -0.2277 -0.0650 -0.0029
29020ION     NA47874  14.480   4.235  10.992  0.0970  0.1894  0.1514
29021ION     NA47875   6.799  13.632   5.247  0.0352 -0.0715  0.0127
29022ION     NA47876  17.685  11.256  10.481  0.0876  0.1104  0.0596
29023ION     NA47877   2.168   6.885   2.158  0.1200  0.0626 -0.1372
29024ION     NA47878  16.349   0.450  10.180 -0.0019 -0.2061  0.0087
29025ION     NA47879   1.776  14.714   2.039  0.1205  0.3027 -0.0044
29026ION     NA47880  16.597  14.325   5.498  0.0518 -0.2188  0.1457
29027ION     NA47881  13.020  18.102  10.451 -0.1697  0.2183 -0.0231
29028ION     NA47882  10.155   0.288  14.720 -0.0087 -0.0360  0.0063
29029ION     NA47883  16.154  16.770   5.508 -0.1910  0.1211 -0.0052
29030ION     NA47884  15.340   6.716   2.682 -0.1621  0.3821 -0.0522
29031ION     NA47885  10.477  15.233   4.924  0.2265  0.0196  0.0240
29032ION     NA47886   3.005  12.686  14.135  0.2765 -0.1369 -0.0076
29033ION     NA47887  18.074  10.627   3.474  0.1834  0.2620  0.1813
29034ION     NA47888   1.559   7.717   5.161 -0.2443 -0.0870  0.2903
29035ION     NA47889   8.004  15.751  10.218  0.0877  0.0078 -0.1172
29036ION     NA47890   6.088   7.569  11.523  0.1479 -0.0609 -0.0474
29037ION     NA47891   7.106   9.706   4.157  0.0348  0.2253  0.2060
29038ION     NA47892  12.915   1.955   1.078  0.1267 -0.0271  0.0304
29039ION     NA47893  13.545   8.328   5.220 -0.0740 -0.1759 -0.0575
29040ION     NA47894   3.506  16.259  12.664 -0.0552  0.1818  0.1068
29041ION     NA47895   7.026  16.482   3.024 -0.3033 -0.1527  0.0273
29042ION     NA47896  14.024   4.676   0.991  0.0027  0.5103 -0.0865
29043ION     NA47897  18.247  15.852  10.415  0.1714  0.2911 -0.2527
29044ION     NA47898   6.858  11.441   0.394 -0.1276  0.0299 -0.1495
29045ION     NA47899   8.960  15.887  10.275  0.3837 -0.0413  0.0358
29046ION     NA47900   2.064  18.389   0.739 -0.0758 -0.1964 -0.1528
29047ION     NA47901  15.962  11.008   5.589 -0.0415 -0.3429 -0.0505
29048ION     NA47902   9.418   2.178  14.004 -0.0475  0.2211 -0.6367
29049ION     NA47903   7.009  14.894  10.524 -0.1682 -0.0938 -0.0487
29050ION     NA47904  11.494   1.818  14.575  0.2613 -0.2080 -0.1239
29051ION     NA47905   9.293   1.014   5.662  0.1034  0.1856  0.1637
29052ION     NA47906  11.327   3.893   0.018  0.2004 -0.1736 -0.0190
29053ION     NA47907  14.351   0.090  10.302 -0.0584  0.0175  0.0842
29054ION     NA47908  10.398   6.317   3.660 -0.3131  0.1143  0.0410
29055ION     NA47909  12.474  16.194   3.650  0.1737 -0.1641  0.1099
29056ION     NA47910  10.612   3.690   5.661  0.0864  0.1004 -0.2359
29057ION     NA47911  13.908   3.612   5.371 -0.0744  0.0150 -0.3647
29058ION     NA47912  11.423  10.769  14.109 -0.1884  0.0860  0.2680
29059ION     NA47913   8.373   6.857   3.028 -0.0219 -0.0192  0.2802
29060ION     NA47914  10.008  16.936  12.950  0.2664  0.3425  0.3626
29061ION     NA47915   7.399  18.080   0.024  0.1087  0.0603  0.0217
29062ION     NA47916  11.041  17.594  14.621  0.1711  0.1451 -0.2031
29063ION     NA47917   0.820   3.289   5.132 -0.1004  0.0617 -0.1069
29064ION     NA47918  14.436   9.942   3.935  0.1308  0.2050 -0.1935
29065ION     NA47919  12.152  14.816  15.202  0.1537 -0.2764 -0.4474
29066ION     NA47920   8.109  14.244   2.908  0.0979 -0.1619  0.1756
29067ION     NA47921   2.624   7.048  10.091 -0.2193  0.5996  0.3373
29068ION     NA47922  15.435   5.902  13.874  0.0567 -0.1189 -0.0601
29069ION     NA47923   5.772  15.952  10.164  0.2015 -0.0369  0.1428
29070ION     NA47924   1.130  12.706  11.537 -0.1989 -0.4657  0.1552
29071ION     NA47925  18.314   7.051   5.120 -0.2417 -0.2261 -0.1880
29072ION     NA47926   7.613   8.331   5.218  0.1542 -0.0100  0.1011
29073ION     NA47927  13.832  12.095  10.212 -0.0519 -0.0105  0.0950
29074ION     NA47928   6.094  10.867   5.442 -0.1708 -0.2295 -0.3277
29075ION     NA47929  14.016   8.906  10.546 -0.0070 -0.2743  0.1985
29076ION     NA47930  10.483  17.351   5.620  0.0028  0.0516 -0.0444
29077ION     NA47931  13.655  10.659  10.562  0.1325 -0.1375 -0.0042
29078ION     NA47932  18.323  10.729   5.391 -0.2167 -0.4412 -0.0018
29079ION     NA47933   1.501   6.745   5.245  0.2228  0.0011 -0.1010
29080ION     NA47934   8.619   6.614  10.422  0.0414  0.2916  0.2599
29081ION     NA47935   2.760  16.201   0.181 -0.0496 -0.2061 -0.0919
29082ION     NA47936   3.339   1.587   9.910 -0.0077 -0.0681  0.0963
29083ION     NA47937   0.998   8.912   4.142  0.1563 -0.0146  0.0389
29084ION     NA47938   7.368  14.556  12.406  0.0743 -0.0355  0.1109
29085ION     NA47939  13.954   6.925  13.879 -0.1839  0.1449  0.0302
29086ION     NA47940  10.450   3.149  14.804  0.0754  0.1201  0.1532
29087ION     NA47941   4.235   4.960   5.022 -0.0183  0.1132 -0.1278
29088ION     NA47942  12.003   9.206   5.311  0.0944 -0.2400  0.3660
29089ION     NA47943   3.671  16.961  10.670 -0.1167  0.0296 -0.0056
29090ION     NA47944   4.660  13.707   0.587  0.5364  0.0620 -0.4317
29091ION     NA47945  11.734   5.030  10.399 -0.0083 -0.0986  0.2070
29092ION     NA47946   7.505  11.324   2.417  0.0229  0.0169 -0.0930
29093ION     NA47947   0.103  13.434   4.998  0.1275 -0.2675 -0.0431
29094ION     NA47948  11.545  12.433   5.586  0.0114  0.0170 -0.1143
29095ION     NA47949   3.652  17.019   4.791 -0.1708  0.1547  0.0433
29096ION     NA47950   1.578   6.588  10.149 -0.0382  0.3771 -0.0580
29097ION     NA47951  13.496  18.383   5.358 -0.0473 -0.1251  0.1377
29098ION     NA47952  16.968   0.530  10.403  0.3351 -0.1015 -0.0717
29099ION     NA47953   1.845   1.187   1.417 -0.0391 -0.1718  0.2483
29100ION     NA47954  14.912  13.321  13.963 -0.1827 -0.3652 -0.3225
29101ION     NA47955   9.436   4.097  13.632 -0.1219  0.2369 -0.2565
29102ION     NA47956  14.014  17.456   5.024  0.2099  0.1429  0.1187
29103ION     NA47957   2.172  16.543  12.725 -0.0290  0.2891 -0.1593
29104ION     NA47958   2.754  12.136  11.836  0.0298 -0.0042 -0.1734
29105ION     NA47959  14.159   0.578   5.438  0.2043  0.1172  0.0833
29106ION     NA47960  15.628  16.799   2.559  0.1841 -0.0050 -0.2243
29107ION     NA47961   5.905  12.456   9.911 -0.0750 -0.0895  0.0541
29108ION     NA47962  16.139  16.145   5.444 -0.1004 -0.2056 -0.1558
29109ION     NA47963  10.653   0.995   2.551 -0.0821 -0.1609 -0.2626
29110ION     NA47964   4.822   9.934  12.738 -0.2099  0.1120  0.2172
29111ION     NA47965  10.930  10.170   1.477 -0.0206 -0.3272  0.3723
29112ION     NA47966  13.797   7.440  12.056  0.0828 -0.1545 -0.1677
29113ION     NA47967   6.564  15.101   0.228 -0.0407  0.2108 -0.1606
29114ION     NA47968   2.354  10.031   2.880 -0.1989 -0.1204 -0.0572
29115ION     NA47969   1.486   6.213   5.071  0.3701 -0.0329  0.0725
29116ION     NA47970   4.913   5.102  13.124 -0.1912 -0.0629  0.1352
29117ION     NA47971  10.069   8.913  10.750 -0.1239  0.2672  0.2306
29118ION     NA47972   6.185  18.373   5.056 -0.3156 -0.2877  0.1204
29119ION     NA47973  10.538   4.128  10.363 -0.0060 -0.1888  0.0646
29120ION     NA47974   4.637  17.394  13.051 -0.3659 -0.3686  0.0485
29121ION     NA47975   1.961  15.378  15.282  0.1597  0.0526  0.1731
29122ION     NA47976   0.094  15.355   9.873 -0.2715 -0.3816  0.0720
29123ION     NA47977  10.649   4.147  12.421  0.0792 -0.3278 -0.1039
29124ION     NA47978  15.897   4.415  12.540  0.5394  0.2565  0.0295
29125ION     NA47979  12.017   3.248  14.139  0.0178 -0.3034 -0.1304
29126ION     NA47980   8.745  16.947   0.555 -0.2112 -0.1593  0.0561
29127ION     NA47981   9.957  14.288  10.680  0.1656 -0.1773  0.1500
29128ION     NA47982  14.192   2.444   0.235  0.2381 -0.0650 -0.1047
29129ION     NA47983  16.052   1.194  13.402  0.0151  0.2406 -0.0766
29130ION     NA47984   9.678  17.080   5.624 -0.1992 -0.3212  0.1507
29131ION     NA47985  12.009   1.633   5.132 -0.2159  0.0938  0.2425
29132ION     NA47986   6.829   3.645  10.502 -0.0308  0.0095 -0.2254
29133ION     NA47987   1.164  12.039   5.005 -0.1607 -0.0437  0.0718
29134ION     NA47988   1.210   8.515   5.035 -0.3522 -0.1978 -0.0053
29135ION     NA47989   2.634  15.970  10.011  0.1603 -0.4862  0.4223
29136ION     NA47990   6.140  17.124  10.110  0.0016  0.0107 -0.0714
29137ION     NA47991   8.081  13.327  14.330  0.1934  0.1410 -0.2440
29138ION     NA47992  14.924  17.208  14.806 -0.1027 -0.0419 -0.0447
29139ION     NA47993  12.115   6.301   2.831 -0.0551  0.1004 -0.3746
29140ION     NA47994   0.370   9.945   5.399  0.2222  0.1644  0.1986
29141ION     NA47995  15.996   8.214  13.247  0.2981 -0.1938  0.0268
29142ION     NA47996  10.553   7.176  14.413 -0.2067 -0.4055  0.0532
29143ION     NA47997  18.104   9.071  13.299  0.1630  0.2217  0.0196
29144ION     NA47998  11.707  10.926   5.352 -0.1328 -0.2380 -0.0358
29145ION     NA47999  10.863   1.862  10.535 -0.0628  0.2030 -0.2825
29146ION     NA48000  14.250   9.356   1.142 -0.2561 -0.3410  0.0894
29147ION     NA48001   2.417   7.460   4.931 -0.0763 -0.0834  0.1936
29148ION     NA48002   6.515  11.724   2.793 -0.1015 -0.0902 -0.1418
29149ION     NA48003   8.307  10.732   0.896 -0.1441 -0.2857 -0.2281
29150ION     NA48004  16.787   4.025   0.629  0.1233  0.0162 -0.1280
29151ION     NA48005  14.739  11.767   2.705  0.1490 -0.3096 -0.0304
29152ION     NA48006  17.989  16.294   1.889 -0.0719 -0.0629  0.4035
29153ION     NA48007   4.311  13.390   5.304  0.2330  0.1097 -0.1177
29154ION     NA48008  18.260  17.485  14.929  0.0079 -0.2167  0.0432
29155ION     NA48009  10.050   5.493  10.417  0.0603  0.1486 -0.2858
29156ION     NA48010   6.212   2.401  13.156  0.0980 -0.2681  0.1330
29157ION     NA48011   2.529  10.770  10.374 -0.0197 -0.0010  0.0899
29158ION     NA48012   3.188   3.110  15.368 -0.1132  0.0570  0.1161
29159ION     NA48013  15.937   1.050   3.783 -0.3909  0.1859  0.0545
29160ION     NA48014   7.750  12.969   5.276 -0.1147  0.3258  0.0092
29161ION     NA48015  10.664  16.926  11.457  0.0687  0.2722 -0.0684
29162ION     NA48016  11.666  18.432   5.647  0.1691  0.0572 -0.1240
29163ION     NA48017   7.995   0.674  12.974 -0.1064 -0.1506 -0.1988
29164ION     NA48018  11.929   4.300   5.518 -0.0730 -0.0050 -0.0247
29165ION     NA48019   2.200  14.349  12.117 -0.3513 -0.0577  0.0490
29166ION     NA48020   9.807  13.168  10.931  0.0363  0.0780 -0.1390
29167ION     NA48021   0.688   6.220   5.423 -0.0843  0.0151 -0.1238
29168ION     NA48022  15.900   5.564   1.204 -0.2144  0.2510 -0.1838
29169ION     NA48023  17.233   2.399  12.995 -0.0193  0.2649 -0.1153
29170ION     NA48024   9.357   5.321  12.140 -0.1401 -0.0741 -0.1053
29171ION     NA48025   4.094  12.466  10.090 -0.0343  0.2927  0.1457
29172ION     NA48026   7.502   7.987   0.308 -0.1423  0.2431  0.2970
29173ION     NA48027  16.988   2.103   1.218  0.3360 -0.1652 -0.0622
29174ION     NA48028   0.467  13.967   3.505  0.4477 -0.2746  0.0220
29175ION     NA48029  17.602   9.221  10.044  0.1417  0.0070 -0.2575
29176ION     NA48030   9.193  18.364  10.878  0.2251 -0.2763 -0.2282
29177ION     NA48031   4.805  12.113  13.909  0.2056 -0.0513  0.2052
29178ION     NA48032  18.515  14.503  10.205 -0.0783  0.0135 -0.0678
29179ION     NA48033   0.012   5.526   9.865  0.4244  0.0177  0.0753
29180ION     NA48034   4.617  16.339  12.322 -0.0615  0.0506  0.0094
29181ION     NA48035  16.789   4.891   5.122  0.0402  0.1291 -0.0815
29182ION     NA48036   3.943   4.075  11.117  0.3091  0.1228  0.1084
29183ION     NA48037   4.854   7.054   9.997 -0.1149 -0.2461  0.0162
29184ION     NA48038  11.065   0.495  13.358  0.0422 -0.1407 -0.1462
29185ION     NA48039  18.497  10.518   0.534 -0.0494 -0.0311 -0.0357
29186ION     NA48040  14.224   8.120  12.896 -0.0963 -0.1177 -0.2604
29187ION     NA48041   0.539  18.337  10.233 -0.0099 -0.2391 -0.0498
29188ION     NA48042   9.446   2.900  10.267  0.0098 -0.0432 -0.0134
29189ION     NA48043  18.139   5.517   0.887  0.0785  0.1124  0.0634
29190ION     NA48044  13.729  16.581   5.513 -0.0686 -0.0137  0.1331
29191ION     NA48045  14.787  17.918  10.300 -0.0654  0.1770  0.0464
29192ION     NA48046   4.171   8.146  14.957  0.1213  0.1376  0.5818
29193ION     NA48047   9.103  11.370   5.149  0.0279 -0.1335 -0.1021
29194ION     NA48048   9.594  13.793   3.009 -0.1662  0.0246 -0.0109
29195ION     NA48049  13.914  17.700  10.348 -0.0086  0.0323 -0.2553
29196ION     NA48050   7.942  16.691   5.456 -0.2660 -0.1530  0.2193
29197ION     NA48051  18.464   1.801   2.091  0.0780  0.2707 -0.0068
29198ION     NA48052   1.364   0.764   2.607  0.2407  0.1698  0.1166
29199ION     NA48053   9.352  17.701   2.530 -0.0497 -0.0858 -0.0819
29200ION     NA48054  12.449   7.994  12.739  0.5045  0.1123 -0.0646
29201ION     NA48055  17.607  16.490   5.046  0.2490 -0.2432 -0.1577
29202ION     NA48056  12.361  12.766  14.054 -0.0204  0.1155  0.2292
29203ION     NA48057   0.540   0.156  14.167 -0.2300 -0.2426 -0.0778
29204ION     NA48058  10.722   2.706   0.709  0.0787  0.1227 -0.1865
29205ION     NA48059  14.575   2.732  14.522 -0.0165  0.0500  0.1418
29206ION     NA48060   2.914  14.662   4.898  0.1551  0.1727 -0.0727
29207ION     NA48061   5.462  13.846  10.110  0.2086  0.2742 -0.1700
29208ION     NA48062   3.363   0.019   5.029 -0.1620 -0.1349 -0.2106
29209ION     NA48063  10.642  14.961   3.917  0.1280  0.2091 -0.0305
29210ION     NA48064   9.212   8.921   1.631 -0.2175 -0.1507 -0.0427
29211ION     NA48065   6.973   7.082  10.458 -0.2756 -0.0519 -0.0523
29212ION     NA48066  12.954   9.192   5.296 -0.1485 -0.0415 -0.0461
29213ION     NA48067  12.377   0.842  10.443  0.0101  0.2547  0.1091
29214ION     NA48068  17.725  16.738  13.499  0.2559 -0.1431  0.1650
29215ION     NA48069   3.227   7.146   4.905 -0.0067 -0.2117  0.1353
29216ION     NA48070  13.176   8.856  10.469 -0.0435 -0.3437  0.1487
29217ION     NA48071  15.825  13.337  12.228 -0.2338 -0.1940 -0.0499
29218ION     NA48072   4.179  16.127   4.932  0.1172 -0.0447  0.2855
29219ION     NA48073   7.594  16.189  12.934  0.1858 -0.2677  0.1054
29220ION     NA48074   2.317  13.327   4.745  0.2845  0.0256  0.0705
29221ION     NA48075  16.804   1.304  10.444 -0.1471 -0.3754 -0.0140
29222ION     NA48076   3.600   5.619   4.793 -0.0920  0.0961 -0.1562
29223ION     NA48077   3.356  18.207  10.243  0.0479  0.2525 -0.0292
29224ION     NA48078   0.387  10.542   1.474 -0.2672  0.0992  0.0100
29225ION     NA48079   3.026   9.565  14.657 -0.1957 -0.3287  0.0313
29226ION     NA48080  15.657   4.497   1.306  0.2683  0.1695  0.2477
29227ION     NA48081   3.810   6.181  10.209 -0.1685 -0.1086 -0.1425
29228ION     NA48082   2.840  14.318  13.371  0.1642  0.0378  0.1808
29229ION     NA48083   9.290  16.970   3.925  0.4477  0.1925 -0.0799
29230ION     NA48084   4.607   4.121  14.933  0.0474  0.0127  0.0766
29231ION     NA48085   7.966   1.328   5.405  0.1528 -0.3200 -0.0079
29232ION     NA48086  13.107   6.977   1.846 -0.1971  0.2169 -0.0991
29233ION     NA48087  14.523  12.130   5.616 -0.4876 -0.0754  0.1362
29234ION     NA48088  13.644  10.866  14.654 -0.0479 -0.0250  0.1695
29235ION     NA48089   1.615   1.489   5.136 -0.4106  0.2926 -0.1356
29236ION     NA48090   8.278   7.999  11.783  0.0543  0.1252  0.0424
29237ION     NA48091   6.915  12.937   9.786  0.0596  0.1563  0.2067
29238ION     NA48092  14.859   9.852  10.635 -0.0887 -0.3352 -0.2030
29239ION     NA48093   1.056  17.676  13.970  0.0030 -0.1631  0.3620
29240ION     NA48094  12.786   0.968  15.394  0.0003  0.1749 -0.2584
29241ION     NA48095  13.823   0.278   0.649  0.2863  0.1178  0.2646
29242ION     NA48096   3.943   3.034   4.906  0.0781 -0.2346 -0.0305
29243ION     NA48097   6.941   5.133   5.428 -0.0733 -0.2794 -0.0994
29244ION     NA48098  10.917   7.003  12.910 -0.0696 -0.3151 -0.1770
29245ION     NA48099   6.445  12.187  15.218 -0.0767  0.0585  0.0925
29246ION     NA48100  12.565   5.515  10.320  0.1827  0.1982  0.0494
29247ION     NA48101   4.201  11.360   4.962 -0.3626 -0.0300  0.0776
29248ION     NA48102  12.497  17.007   5.669  0.1343 -0.0459  0.0086
29249ION     NA48103   6.182   5.726  12.243  0.0810 -0.0331 -0.0357
29250ION     NA48104  14.141   5.372  10.272  0.3405  0.2610  0.0358
29251ION     NA48105   3.798  15.361  10.875 -0.2076 -0.1758 -0.1183
29252ION     NA48106   3.448   7.665  15.100  0.1073 -0.0007 -0.2010
29253ION     NA48107   3.643   0.292  10.200 -0.1678  0.3487 -0.0243
29254ION     NA48108   0.443  11.759  14.526  0.0679  0.1771  0.0247
29255ION     NA48109  16.726   1.404  12.177  0.2821 -0.1358  0.0969
29256ION     NA48110  17.339   2.158  10.116  0.1539  0.0619  0.3225
29257ION     NA48111   5.490   8.783   0.600 -0.1583 -0.1860 -0.1233
29258ION     NA48112  15.879   5.283  10.013 -0.1531  0.0525  0.0031
29259ION     NA48113  12.699  12.271   2.145 -0.4416  0.0413  0.3000
29260ION     NA48114  12.923   9.727  11.075 -0.0941 -0.1742 -0.2845
29261ION     NA48115   9.280  10.863   1.540 -0.1522  0.0057  0.0055
29262ION     NA48116  18.184   8.028  10.368 -0.1142 -0.2445 -0.0609
29263ION     NA48117   8.382   3.528   3.829  0.1157  0.1278  0.2966
29264ION     NA48118  14.564  13.189  11.755 -0.0646 -0.1275  0.1670
29265ION     NA48119   3.487   0.552  15.381 -0.2727  0.1417 -0.2444
29266ION     NA48120   3.149  11.828  15.335 -0.2420  0.1406 -0.0693
29267ION     NA48121  12.073   9.981  10.793  0.1613  0.1635  0.2789
29268ION     NA48122   7.746   8.884  10.163 -0.0695 -0.4517 -0.3873
29269ION     NA48123   9.456   2.910   1.097 -0.2113 -0.3216 -0.0900
29270ION     NA48124   5.173  13.704   5.189  0.0446 -0.1041  0.1828
29271ION     NA48125   1.443   9.082   2.155 -0.0200 -0.0303 -0.0622
29272ION     NA48126   4.559   6.038   4.988 -0.0988  0.0353 -0.0603
29273ION     NA48127   2.054   8.473   5.098 -0.2327  0.0314 -0.2501
29274ION     NA48128  11.982   7.130   0.767  0.1750 -0.3777  0.0834
29275ION     NA48129   5.785   6.427   2.031  0.0413 -0.2630  0.1138
29276ION     NA48130   6.654  14.448   5.155 -0.2472  0.0710  0.1755
29277ION     NA48131   7.046  18.217   5.046 -0.1908 -0.0664  0.1063
29278ION     NA48132  13.340   0.285  15.138 -0.0878  0.1872  0.1516
29279ION     NA48133  10.801   1.892   5.196 -0.0890  0.0464 -0.2567
29280ION     NA48134  16.434  11.825   1.576 -0.1772  0.1916 -0.2430
29281ION     NA48135   6.764   1.142  13.346  0.4744 -0.2408 -0.1180
29282ION     NA48136   3.011   6.245   4.993 -0.0494 -0.0461 -0.0797
29283ION     NA48137  16.215   8.952   5.256  0.0451  0.7074 -0.0366
29284ION     NA48138  12.064   1.818   3.235  0.0652  0.0824  0.0729
29285ION     NA48139  13.341  17.352  14.678  0.1461 -0.1451  0.0488
29286ION     NA48140  10.847   8.193  10.646 -0.0027 -0.0676 -0.1034
29287ION     NA48141  16.868   8.466   4.708 -0.2521 -0.2340  0.3739
29288ION     NA48142  11.706  10.734   1.498 -0.0201  0.1349 -0.4211
29289ION     NA48143  15.555   6.294  15.285  0.0129  0.1318  0.1576
29290ION     NA48144   3.262   3.311  10.166 -0.1292 -0.0360  0.1036
29291ION     NA48145   9.523  11.474   0.657  0.0266 -0.0631 -0.0685
29292ION     NA48146   6.133   3.390   9.993 -0.0141 -0.1099 -0.2089
29293ION     NA48147   8.380   2.488   5.232 -0.3467  0.0451  0.0419
29294ION     NA48148  17.801  11.387   5.218 -0.1970  0.3838 -0.0150
29295ION     NA48149  18.514   8.224   0.760  0.4059 -0.0717  0.2867
29296ION     NA48150   5.479   2.179   5.301 -0.1299 -0.0297 -0.1937
29297ION     NA48151  15.445   3.191   0.553  0.0101 -0.2229 -0.1638
29298ION     NA48152  11.523  10.223   3.522 -0.1552 -0.1587 -0.0508
29299ION     NA48153  12.677  14.085   3.799 -0.1557  0.1857 -0.1334
29300ION     NA48154   7.252  16.034   5.501  0.1238  0.1277  0.1160
29301ION     NA48155   7.955   3.749  13.685  0.2132 -0.0436 -0.1123
29302ION     NA48156   7.964   1.792  10.328 -0.1783 -0.2006  0.1224
29303ION     NA48157   9.560   5.892   4.564 -0.0089  0.3083 -0.1879
29304ION     NA48158  16.995  12.971   5.416  0.1273 -0.2708  0.0481
29305ION     NA48159  11.664  11.886   2.873 -0.5161  0.2304  0.1120
29306ION     NA48160  11.859  11.847   1.605  0.1503 -0.0639  0.2601
29307ION     NA48161   8.167  13.944   9.989  0.0436 -0.4738  0.0187
29308ION     NA48162   6.519   5.553   2.607  0.1495  0.0832 -0.3702
29309ION     NA48163   3.466  15.599   5.066  0.2377 -0.2720  0.1281
29310ION     NA48164  17.170  10.553   1.282 -0.2550  0.3583 -0.1445
29311ION     NA48165   4.624  10.440   5.175  0.0610 -0.5142  0.0070
29312ION     NA48166  15.467  18.515  10.242  0.1318 -0.1009  0.0949
29313ION     NA48167  11.721   8.254  10.673 -0.0413 -0.1344  0.0987
29314ION     NA48168  10.371  16.596  10.512  0.0813  0.0163 -0.1352
29315ION     NA48169  16.340   9.915   4.938  0.2195  0.1504 -0.1267
29316ION     NA48170  17.849   6.198  10.132  0.0995  0.2119  0.2612
29317ION     NA48171   9.777   8.634  14.532 -0.0484 -0.0720 -0.3674
29318ION     NA48172   7.030  16.789  10.272  0.1018  0.0924  0.1483
29319ION     NA48173  16.322   7.574   2.829 -0.2089  0.1463 -0.0014
29320ION     NA48174   7.299  10.063   5.286 -0.0673  0.0215  0.0895
29321ION     NA48175   5.053   6.313   4.167  0.0309  0.1643 -0.2150
29322ION     NA48176  10.811   8.419  15.283  0.1238 -0.1081 -0.0143
29323ION     NA48177   1.755   5.138  13.856  0.1740 -0.1340  0.1706
29324ION     NA48178  12.395   0.417  14.578  0.0919  0.0538 -0.0597
29325ION     NA48179  15.548  18.099   5.346 -0.1712  0.1949  0.0402
29326ION     NA48180  10.090   0.241   1.788 -0.0145  0.1964 -0.2534
29327ION     NA48181  13.629   9.690  10.542 -0.0947 -0.0061 -0.0177
29328ION     NA48182   2.834   8.481  13.227  0.3288 -0.2087 -0.0571
29329ION     NA48183   3.986   7.483  10.143 -0.3520 -0.2695  0.2761
29330ION     NA48184  12.796   3.111  12.280  0.1231  0.2862 -0.3650
29331ION     NA48185   7.456   3.972  12.781  0.1208  0.0552 -0.2245
29332ION     NA48186  17.671   0.161   4.979  0.1333 -0.1520  0.1034
29333ION     NA48187   7.987   7.557   2.624 -0.2036  0.0476 -0.3655
29334ION     NA48188   2.815   6.066  14.199  0.0287 -0.3474  0.2389
29335ION     NA48189   7.582   7.385   5.302  0.2603 -0.0350  0.4901
29336ION     NA48190   3.165   2.734   5.312  0.1387 -0.1712 -0.1177
29337ION     NA48191  16.176   1.703   5.442 -0.2536  0.1096 -0.1562
29338ION     NA48192  10.674   5.477   5.303 -0.0590  0.0663  0.0596
29339ION     NA48193   2.437   0.046   2.550  0.1913  0.0918 -0.2539
29340ION     NA48194   3.406  11.331  14.303 -0.0622 -0.0471  0.2432
29341ION     NA48195  13.640  14.560  14.969  0.1988  0.1427 -0.0422
29342ION     NA48196  14.201  10.065   5.321 -0.3509 -0.0236 -0.0687
29343ION     NA48197  18.451  10.853  15.383 -0.2738  0.3567  0.1136
29344ION     NA48198   8.446   6.787   4.456 -0.0707 -0.2161  0.0101
29345ION     NA48199  10.747   9.215  12.294 -0.0512 -0.1433 -0.0033
29346ION     NA48200  14.935   2.528  13.346 -0.0336  0.0650 -0.0003
29347ION     NA48201  12.526   8.025  13.631  0.0374  0.2185 -0.1541
29348ION     NA48202  14.578   4.503   2.784  0.1513  0.0221  0.1961
29349ION     NA48203   1.998   1.544  14.600 -0.0258 -0.3765  0.1159
29350ION     NA48204   1.244  10.046  15.272  0.0668  0.0096 -0.0552
29351ION     NA48205   9.183  18.376   0.960  0.2702  0.4698 -0.0143
29352ION     NA48206   2.874  11.446   9.963  0.0536 -0.1616  0.1570
29353ION     NA48207   3.730  10.613   1.095  0.3586  0.1346  0.0774
29354ION     NA48208  13.673  11.437   1.491  0.4275 -0.0288  0.0366
29355ION     NA48209  16.386  16.814   1.910 -0.1199  0.2193 -0.1346
29356ION     NA48210   3.449  13.006   3.174  0.1970  0.1214 -0.2376
29357ION     NA48211   3.066   8.431   5.283  0.0359  0.1133 -0.0615
29358ION     NA48212   1.213  17.081  12.287  0.1886  0.0981  0.0606
29359ION     NA48213  13.433  14.479   5.801  0.0207  0.3276  0.0991
29360ION     NA48214  14.516   8.422   5.364 -0.3724 -0.2051  0.0361
29361ION     NA48215  14.653   0.882   3.366  0.1784  0.0525  0.0597
29362ION     NA48216  17.889   3.246   2.256 -0.2952 -0.0081 -0.3180
29363ION     NA48217   7.356   3.497  10.211 -0.3736  0.2569  0.1833
29364ION     NA48218  11.553  10.273   0.593  0.0771 -0.0638  0.0974
29365ION     NA48219   6.179   7.023  10.184 -0.1011 -0.2543 -0.2251
29366ION     NA48220  10.561  18.038   2.538 -0.3620 -0.0234  0.3090
29367ION     NA48221  15.932  14.761   5.315 -0.0110 -0.3408 -0.0446
29368ION     NA48222   9.068  12.245   4.236  0.1844  0.0521 -0.2291
29369ION     NA48223  15.694   5.978   2.017  0.0002  0.1007 -0.2917
29370ION     NA48224   2.980  11.521   3.345 -0.1374 -0.1835 -0.1977
29371ION     NA48225   2.643  12.534   4.939  0.0400 -0.0666 -0.1406
29372ION     NA48226   4.526  12.089  12.335  0.0100 -0.0655  0.2866
29373ION     NA48227  11.589  17.468  15.212 -0.0776  0.4229  0.3084
29374ION     NA48228  11.643   2.490  10.480 -0.0522 -0.5917 -0.1922
29375ION     NA48229   2.337   0.528  13.107  0.1457 -0.0213 -0.1944
29376ION     NA48230  10.161   0.671   5.527  0.1392 -0.2660 -0.1153
29377ION     NA48231  14.908  11.135   0.941  0.0913  0.0392 -0.2973
29378ION     NA48232  13.240  15.024  10.275  0.1284 -0.2029 -0.0522
29379ION     NA48233   1.624  14.803   9.888  0.2341 -0.1589  0.0295
29380ION     NA48234   9.047   9.720   5.529 -0.0381  0.1662 -0.0233
29381ION     NA48235   1.670  17.769  10.260  0.0015 -0.1191  0.2702
29382ION     NA48236  18.458   1.222  14.664 -0.0089  0.0072  0.1753
29383ION     NA48237  16.126   5.824   5.321 -0.0397  0.2674 -0.2055
29384ION     NA48238  15.229  17.661   5.038  0.2130 -0.1862  0.1937
29385ION     NA48239  13.263   0.926   3.484 -0.3659 -0.0792  0.1719
29386ION     NA48240  15.425  13.251   5.525  0.1106  0.2983  0.1916
29387ION     NA48241   3.673   1.778   5.053  0.0611 -0.0262  0.0500
29388ION     NA48242   7.791   4.732   2.707  0.3033  0.3087  0.2409
29389ION     NA48243   0.795   8.374  14.526 -0.0856 -0.0714 -0.0621
29390ION     NA48244   8.837  13.364  10.677  0.2879 -0.1913 -0.2460
29391ION     NA48245  13.530  16.798  10.448 -0.1449 -0.1152  0.0002
29392ION     NA48246  11.280   9.653  13.688 -0.0008 -0.1939  0.2251
29393ION     NA48247  17.128  18.297   4.061  0.0216  0.0569 -0.1395
29394ION     NA48248   7.062   9.536  12.579 -0.2011  0.3857  0.1162
29395ION     NA48249   5.809   5.944   5.316 -0.2855 -0.2845 -0.0729
29396ION     NA48250  14.621   2.967   1.568  0.0088 -0.0935 -0.2890
29397ION     NA48251   5.201  11.324  15.085 -0.2062  0.0304 -0.1645
29398ION     NA48252  17.566   6.598   5.460 -0.2273  0.0027  0.2183
29399ION     NA48253  18.054   7.279  13.803 -0.0802 -0.0083  0.1188
29400ION     NA48254   7.636   0.402   5.150 -0.3349 -0.0287  0.2537
29401ION     NA48255  10.422   7.866  12.601  0.0035  0.1598  0.0285
29402ION     NA48256  14.525   5.408   1.137  0.2084 -0.1026 -0.1078
29403ION     NA48257   0.178  11.731   5.125 -0.2769  0.3267 -0.0385
29404ION     NA48258  11.589  18.416  13.046  0.1147  0.4131  0.1894
29405ION     NA48259  12.158   6.573   5.688 -0.0581 -0.2401 -0.0326
29406ION     NA48260   6.386  12.359   4.418  0.3634  0.0970  0.2538
29407ION     NA48261  15.451   8.377   4.001  0.2572  0.0129  0.1821
29408ION     NA48262  18.303   5.018  14.011 -0.0279  0.1746 -0.0789
29409ION     NA48263   4.326  11.062   1.220  0.2303 -0.3077 -0.1919
29410ION     NA48264   1.076   7.384  11.294 -0.1668 -0.2674 -0.2663
29411ION     NA48265  16.208  10.898   1.447 -0.1123  0.3354 -0.0852
29412ION     NA48266  14.216  16.349  10.293  0.2456  0.0290 -0.1740
29413ION     NA48267   2.537   4.037  12.418  0.0867  0.1525  0.1205
29414ION     NA48268   0.521   2.427  13.670 -0.0810 -0.2530 -0.1278
29415ION     NA48269   1.658   4.633   4.949  0.0826  0.1677 -0.2073
29416ION     NA48270  16.645  16.676  10.339  0.2396  0.0987  0.2173
29417ION     NA48271   0.098   9.576  15.430  0.3930 -0.2775  0.0682
29418ION     NA48272  12.300  10.793  15.310 -0.1018  0.1631  0.0274
29419ION     NA48273  10.988   5.578  12.969 -0.2517  0.1493  0.3451
29420ION     NA48274   2.012   0.879  11.876  0.3405 -0.0668 -0.1565
29421ION     NA48275  14.602  13.952   4.886  0.1050  0.2654  0.0528
29422ION     NA48276  11.094   7.826   0.864  0.0921  0.0435  0.0429
29423ION     NA48277   4.272   0.220  13.649 -0.2263  0.0739  0.2771
29424ION     NA48278   3.022   0.992  10.294  0.2124 -0.0488  0.0069
29425ION     NA48279   6.219  13.306  14.445  0.0041 -0.2205  0.2492
29426ION     NA48280  18.250  16.680  12.659 -0.1768 -0.0677 -0.2348
29427ION     NA48281   4.591   0.093   2.549 -0.0042 -0.0577 -0.1092
29428ION     NA48282   3.839   7.976   5.472 -0.0662 -0.1669 -0.2535
29429ION     NA48283  16.411   0.933   3.779  0.0140  0.1656 -0.0101
29430ION     NA48284  14.114   3.481  10.822 -0.0114  0.2293 -0.0970
29431ION     NA48285  14.967   5.934   4.081  0.1019  0.1383  0.2182
29432ION     NA48286  15.238  18.095   1.398  0.2250  0.2022  0.1059
29433ION     NA48287  13.511   4.754  10.824  0.1915 -0.1005 -0.3716
29434ION     NA48288  12.429  10.446   3.059 -0.1268 -0.2573  0.1472
29435ION     NA48289  17.932  15.685   1.185  0.1991  0.0384 -0.0767
29436ION     NA48290   8.702  14.864   1.106 -0.0266 -0.4117  0.1926
29437ION     NA48291   2.713  13.127  12.943 -0.3241  0.0761  0.1206
29438ION     NA48292   3.311  18.108  13.521  0.1683  0.1104 -0.1837
29439ION     NA48293   6.796  15.978   1.811 -0.4059 -0.0925  0.1648
29440ION     NA48294   5.131   8.927  14.179 -0.2715 -0.0837  0.1956
29441ION     NA48295  18.467  18.432  13.635 -0.0338  0.1577  0.2236
29442ION     NA48296   5.560   7.149  13.234  0.4103  0.1270 -0.3681
29443ION     NA48297  13.744   4.562   0.102  0.0429  0.1801  0.1280
29444ION     NA48298   8.330  15.114   3.853 -0.1005  0.0457 -0.2272
29445ION     NA48299  10.089  10.173   4.899  0.1039  0.2351 -0.2323
29446ION     NA48300   4.434  12.151   2.736 -0.0022 -0.0907  0.0797
29447ION     NA48301   8.723  15.150   5.178 -0.0668 -0.1904  0.2362
29448ION     NA48302  17.982   1.117   1.323  0.3725 -0.0870 -0.1313
29449ION     NA48303   3.230   9.854   5.298 -0.3505  0.0324  0.0345
29450ION     NA48304  18.494   8.116   4.680  0.0303 -0.0627  0.1681
29451ION     NA48305  12.257   5.721   5.646 -0.0843 -0.1568  0.2429
29452ION     NA48306   8.982   5.816   0.235  0.1754  0.2278 -0.0549
29453ION     NA48307   7.098   4.429  10.305 -0.1374 -0.1215 -0.0182
29454ION     NA48308  11.877  17.576  10.411 -0.2144 -0.0502 -0.1508
29455ION     NA48309   0.435  16.677  11.103  0.2301  0.0000  0.1544
29456ION     NA48310   1.621   6.716  14.675  0.1273 -0.1462 -0.0575
29457ION     NA48311  11.545   5.882   5.481  0.2396 -0.1543  0.3956
29458ION     NA48312   3.670  17.406  12.231  0.0296 -0.0998  0.1508
29459ION     NA48313  17.882  14.394  11.761  0.2362 -0.1251  0.3364
29460ION     NA48314   3.061  13.943   3.658 -0.0168  0.1184 -0.1004
29461ION     NA48315   5.189   0.070   5.104 -0.3296 -0.1624 -0.1402
29462ION     NA48316   0.530  17.730   5.306  0.0637 -0.0489  0.1334
29463ION     NA48317  10.522  17.486   4.275  0.0447 -0.2073  0.1204
29464ION     NA48318  16.890   6.338   5.448  0.0231 -0.0132 -0.2306
29465ION     NA48319   0.745   3.370   2.958 -0.1069 -0.0370 -0.1816
29466ION     NA48320   4.473   4.813   3.532 -0.1325 -0.2594 -0.1022
29467ION     NA48321  14.830   2.004  10.356  0.0399 -0.1309  0.2478
29468ION     NA48322  13.862   1.996  13.911  0.2610 -0.1175  0.0599
29469ION     NA48323  17.590  10.848  11.624  0.0033  0.0707 -0.1807
29470ION     NA48324  16.739  12.409  11.351  0.0904  0.2567  0.2634
29471ION     NA48325   2.360   1.815   5.271 -0.0308 -0.2029 -0.2297
29472ION     NA48326  17.285   9.944  14.795 -0.0269  0.1642  0.1243
29473ION     NA48327  11.469   6.985  10.170  0.1174  0.1523 -0.3092
29474ION     NA48328   3.161  15.716  10.671 -0.1503  0.1154 -0.1178
29475ION     NA48329  17.019   8.048   3.933 -0.0413 -0.1527  0.1634
29476ION     NA48330  17.610  18.395  10.045 -0.1218 -0.0799  0.1701
29477ION     NA48331  13.394  12.760  10.305  0.3522 -0.4171  0.1272
29478ION     NA48332  11.626   3.506   5.542 -0.2635 -0.1010 -0.0332
29479ION     NA48333  15.468  17.398  11.376  0.1044 -0.0699  0.1132
29480ION     NA48334   3.362   9.676  10.370 -0.1547  0.0597  0.1262
29481ION     NA48335   5.978   1.681  14.611 -0.1960 -0.2584  0.0669
29482ION     NA48336  13.278   4.465   3.887 -0.0348  0.0841  0.1404
29483ION     NA48337   9.207   3.766  11.465 -0.1489 -0.2979  0.0861
29484ION     NA48338  12.595   3.837   5.519 -0.3055  0.1474  0.4905
29485ION     NA48339   0.474   9.406  14.056  0.0432 -0.0485 -0.3431
29486ION     NA48340   8.153   5.791  15.443  0.0680  0.0167  0.0699
29487ION     NA48341  16.885   9.688   1.378 -0.1563  0.2126  0.1412
29488ION     NA48342  10.453  14.157  11.491  0.0758  0.2434  0.0861
29489ION     NA48343   3.466  14.800  12.755  0.0682 -0.0336  0.1840
29490ION     NA48344  15.720   4.580   2.404  0.0854 -0.0273 -0.0032
29491ION     NA48345   8.017  16.988   1.166 -0.2063  0.0150 -0.1644
29492ION     NA48346   0.368  17.478   1.482 -0.1341  0.0566 -0.1479
29493ION     NA48347   2.636   5.587  10.251 -0.3301  0.0629 -0.1446
29494ION     NA48348  12.294  14.452   4.574  0.0922 -0.2755  0.0497
29495ION     NA48349  16.522  10.500  12.059 -0.1841  0.0777 -0.0836
29496ION     NA48350  14.476   5.707   5.494 -0.1286 -0.0270  0.2058
29497ION     NA48351   6.439   3.349   2.056  0.3999 -0.3793 -0.0027
29498ION     NA48352  10.006  12.114  14.229  0.1602  0.1488 -0.2086
29499ION     NA48353  14.423  12.637  10.115  0.1454 -0.0662 -0.5295
29500ION     NA48354   3.267   2.255  12.418 -0.1614  0.2752 -0.1438
29501ION     NA48355  13.784  13.225   2.887 -0.0091 -0.0053  0.2845
29502ION     NA48356  18.011  13.477  10.317  0.0747  0.1469 -0.0986
29503ION     NA48357   9.454  15.322  12.805  0.0964  0.3046 -0.0623
29504ION     NA48358  12.311  16.263   0.373  0.2082 -0.0800  0.4526
29505ION     NA48359  17.643  13.939  13.949 -0.1802  0.1522  0.1615
29506ION     NA48360  15.291   4.876   5.153  0.1634 -0.0032 -0.1385
29507ION     NA48361  18.331   1.401   9.825  0.0946  0.3560  0.1936
29508ION     NA48362   5.954   2.576  10.670 -0.0081 -0.1028  0.2331
29509ION     NA48363  11.852  16.980  13.826 -0.2430 -0.1663 -0.2206
29510ION     NA48364   9.181   1.749  12.127  0.0497 -0.2306 -0.1556
29511ION     NA48365   9.179  14.128  10.134  0.2703  0.2423  0.3925
29512ION     NA48366   5.936   0.055  12.237  0.0155 -0.0042  0.0893
29513ION     NA48367   0.697  17.519  14.552  0.0797 -0.0496  0.4345
29514ION     NA48368   9.809   0.986  10.833 -0.1449  0.1902  0.1293
29515ION     NA48369   7.514  12.628   9.914  0.0679  0.1995 -0.0477
29516ION     NA48370   4.642  16.205   1.309 -0.0325 -0.1305 -0.1666
29517ION     NA48371  13.874  11.385  13.054 -0.2660  0.1145 -0.0283
29518ION     NA48372  13.991   0.019  12.711 -0.0750  0.2226 -0.1789
29519ION     NA48373  14.410   1.524   5.365 -0.2790  0.1793  0.0813
29520ION     NA48374   5.361  14.831   5.004  0.1790 -0.1719 -0.0286
29521ION     NA48375   6.822   6.873   3.457  0.0316  0.1085 -0.3849
29522ION     NA48376   1.375   2.351   1.664 -0.1150 -0.3698  0.2178
29523ION     NA48377   4.853   6.735  13.135 -0.0235 -0.0660  0.3054
29524ION     NA48378  12.913   2.741   1.640 -0.1542 -0.1799  0.1659
29525ION     NA48379   6.018   9.381   0.219 -0.0767  0.1094  0.1112
29526ION     NA48380   5.336   8.959   5.123  0.1783 -0.1475 -0.1120
29527ION     NA48381  14.736   5.297   4.867  0.4687 -0.3781 -0.2197
29528ION     NA48382  12.200   3.108   3.475  0.1409 -0.1226 -0.3621
29529ION     NA48383  16.954   1.311  14.029  0.1355  0.1117 -0.3679
29530ION     NA48384  15.933   5.790  15.138 -0.0828 -0.0168 -0.1039
29531ION     NA48385  15.242  12.456  14.081  0.0566 -0.0029 -0.1540
29532ION     NA48386  16.258  12.286   9.965  0.2026  0.1745 -0.1691
29533ION     NA48387  13.802   0.440  14.179 -0.1222  0.0710 -0.0804
29534ION     NA48388  15.785  15.728   2.720 -0.1858 -0.1441 -0.0160
29535ION     NA48389   1.454  17.490  15.191 -0.1458  0.0056 -0.0408
29536ION     NA48390  14.462  13.906   5.353  0.0643 -0.1099  0.0077
29537ION     NA48391   6.037   5.830   1.334 -0.2022 -0.1911  0.0406
29538ION     NA48392  12.064   2.973  10.464  0.2198 -0.0362  0.1053
29539ION     NA48393  13.515  17.723  13.891  0.0935  0.2486  0.0134
29540ION     NA48394  18.492  15.438   2.325  0.1150 -0.0160  0.1800
29541ION     NA48395   1.645  15.576   1.580  0.0720 -0.3540 -0.2615
29542ION     NA48396   5.138  17.212   2.383 -0.0527 -0.2888  0.1033
29543ION     NA48397  12.624   9.833   5.274 -0.1735 -0.0924  0.0709
29544ION     NA48398   0.698   6.883   3.486 -0.1283 -0.1244  0.1626
29545ION     NA48399   0.191  13.237  10.009 -0.1848  0.0444 -0.5240
29546ION     NA48400  16.116  18.271  13.422  0.0323  0.0704 -0.2620
29547ION     NA48401   9.620   7.073   1.976 -0.2631  0.0360 -0.0637
29548ION     NA48402  16.836   3.673  14.043  0.1210  0.0234 -0.0579
29549ION     NA48403  16.407   0.073   5.319 -0.0578 -0.2266  0.1474
29550ION     NA48404  11.199   6.030   0.709  0.0522  0.0416 -0.1867
29551ION     NA48405   9.198   3.259   5.728  0.0116 -0.1114 -0.1276
29552ION     NA48406  17.026  13.941  14.484 -0.0669 -0.1962  0.0654
29553ION     NA48407  17.256   4.943  12.239  0.0612  0.1568  0.0978
29554ION     NA48408  12.498  10.150  12.266  0.1100 -0.1960  0.1322
29555ION     NA48409   6.638  15.765  10.454 -0.0397 -0.1682  0.0383
29556ION     NA48410   8.021   7.540   4.167 -0.0576  0.0049  0.1087
29557ION     NA48411  15.698  12.645  10.748 -0.1300  0.1816 -0.0335
29558ION     NA48412   1.590  11.201  14.674 -0.0017  0.3544  0.2089
29559ION     NA48413  12.934   6.219  10.455 -0.0531 -0.0156  0.2481
29560ION     NA48414  18.005  11.428   0.681  0.1685 -0.1760  0.1273
29561ION     NA48415   1.342  16.633  11.702  0.1099 -0.1304 -0.1107
29562ION     NA48416   2.356  18.274  15.286 -0.1688 -0.1318 -0.2356
29563ION     NA48417   2.478   3.190   2.978  0.2761  0.0612  0.1192
29564ION     NA48418   7.256  14.019  10.229 -0.1206  0.0428  0.3305
29565ION     NA48419  17.824  13.020  10.027  0.0117 -0.1263 -0.0075
29566ION     NA48420  11.802   0.339   3.282  0.0040 -0.1530 -0.1976
29567ION     NA48421   8.062  17.572  10.210 -0.0124  0.1124 -0.1137
29568ION     NA48422   1.035  15.860  14.184  0.1498 -0.1033  0.0443
29569ION     NA48423   4.433   9.950  14.623  0.2115  0.0122  0.1440
29570ION     NA48424   0.310  15.946   5.019 -0.0353  0.1974  0.0262
29571ION     NA48425  13.990   9.537  14.984 -0.0912  0.0024 -0.1690
29572ION     NA48426  13.148  14.978   4.709  0.0597  0.2350  0.0953
29573ION     NA48427   5.635  12.971   9.988  0.1127  0.1430 -0.0226
29574ION     NA48428  11.679  14.221  12.896 -0.1031 -0.0820  0.0145
29575ION     NA48429   7.130   9.518  15.081  0.0953  0.1108 -0.1447
29576ION     NA48430   8.580   4.495  10.357 -0.2679 -0.0158 -0.0200
29577ION     NA48431  11.516   4.699  14.539 -0.2388 -0.2092  0.1051
29578ION     NA48432   9.367   2.273   3.458  0.2049 -0.1053  0.0039
29579ION     NA48433   9.239   8.614  10.742 -0.0523 -0.0097 -0.1972
29580ION     NA48434   0.376   8.475   5.260 -0.2194 -0.2384 -0.2880
29581ION     NA48435   7.678  13.787   4.830  0.0524  0.1608 -0.0261
29582ION     NA48436  15.269  16.057  11.055 -0.0007  0.0284 -0.3017
29583ION     NA48437  13.322  16.439   4.121  0.0927 -0.0353  0.2381
29584ION     NA48438  13.250   6.997  14.794 -0.1810  0.0117  0.2745
29585ION     NA48439  17.265  16.282  12.488 -0.1566  0.1715 -0.1873
29586ION     NA48440  14.406   4.931  10.189 -0.2922  0.3214  0.0338
29587ION     NA48441  12.150  17.143   3.720  0.0603  0.3413  0.3143
29588ION     NA48442   8.846   3.886   1.261  0.1835  0.2132  0.2399
29589ION     NA48443  13.219   5.022   0.557  0.2007  0.0065  0.2091
29590ION     NA48444   0.432   2.222   9.714 -0.1413 -0.1903  0.1395
29591ION     NA48445   2.149   2.292  10.006  0.1313  0.2149  0.3981
29592ION     NA48446   3.512   5.210   2.370  0.1257 -0.0295 -0.0611
29593ION     NA48447   4.705   3.291   1.401 -0.3802  0.2062  0.1777
29594ION     NA48448   0.654  14.568  11.454  0.0832  0.0934 -0.1948
29595ION     NA48449  16.323  17.592  10.511  0.1744 -0.4006 -0.2070
29596ION     NA48450  10.024  12.161  10.716  0.2986 -0.3300 -0.3091
29597ION     NA48451   0.321   5.124  14.908  0.0169 -0.2211 -0.0997
29598ION     NA48452  11.404   3.716   2.160  0.0717  0.0151  0.0172
29599ION     NA48453   8.945  10.838  10.354 -0.2454 -0.0159  0.0051
29600ION     NA48454  12.699   4.641  10.892  0.0125  0.2487 -0.0986
29601ION     NA48455  14.943  15.430   5.279 -0.0748 -0.1347 -0.0591
29602ION     NA48456   8.032   7.982  10.136  0.2510 -0.0664  0.2028
29603ION     NA48457  18.183   2.823  10.980 -0.2773 -0.2406 -0.3039
29604ION     NA48458  12.412   4.751  10.395  0.0767 -0.0271  0.0683
29605ION     NA48459  12.030  15.813  10.865 -0.1171  0.1830 -0.1280
29606ION     NA48460  12.682  17.431  14.374  0.1731  0.1294 -0.0509
29607ION     NA48461  17.811   5.273  10.035 -0.0445 -0.1220 -0.0059
29608ION     NA48462   1.171  16.704   0.658  0.1139  0.3166  0.0386
29609ION     NA48463  12.180  10.640   4.248  0.1161 -0.2802  0.1906
29610ION     NA48464   0.711   9.214  11.831 -0.0798 -0.1318  0.1826
29611ION     NA48465   6.531  12.004  10.096  0.0287  0.1167  0.2636
29612ION     NA48466  16.086  12.436   0.873  0.0028 -0.0671 -0.2020
29613ION     NA48467  10.276  16.052  10.496 -0.3798 -0.2779 -0.0905
29614ION     NA48468   8.672  14.715   2.455 -0.2027  0.1821  0.1106
29615ION     NA48469  15.709   8.779  15.425 -0.0664 -0.0687 -0.0212
29616ION     NA48470   6.253   3.613   5.086 -0.0456 -0.1865  0.0311
29617ION     NA48471  11.758  12.405  10.625  0.0513  0.0460 -0.1128
29618ION     NA48472   8.112   0.019   5.178 -0.1917 -0.1257 -0.0681
29619ION     NA48473   4.190  12.549   5.053  0.1028  0.2520  0.0020
29620ION     NA48474   8.168  18.413  14.729  0.0662  0.1859 -0.2448
29621ION     NA48475  17.372  16.024  10.306  0.1676 -0.2102  0.1356
29622ION     NA48476  15.861  14.087   3.404  0.1148  0.1053 -0.0066
29623ION     NA48477   9.821   2.682   5.790  0.0842  0.3198 -0.0313
29624ION     NA48478   7.783   3.237   5.197 -0.0583  0.0075  0.1756
29625ION     NA48479   3.527   8.988   1.642  0.1650 -0.0344 -0.1638
29626ION     NA48480  12.608   1.910   5.605 -0.2557 -0.0593  0.0566
29627ION     NA48481  18.129  12.475  12.281  0.1115 -0.0197  0.3348
29628ION     NA48482  13.147   3.745   1.007  0.2347  0.2854 -0.2374
29629ION     NA48483  13.621  17.337   1.245  0.0329  0.1112  0.1695
29630ION     NA48484   7.922  10.505   4.799 -0.1425 -0.0774  0.0165
29631ION     NA48485  16.154  14.535   0.432 -0.1013 -0.0490  0.1351
29632ION     NA48486   8.520   3.744   5.347  0.2099  0.0417 -0.0675
29633ION     NA48487  10.107  13.042   1.506  0.0472  0.1316  0.0606
29634ION     NA48488   7.712   9.209   5.316 -0.0616 -0.0095 -0.3999
29635ION     NA48489   4.971   0.731   4.721 -0.0769 -0.2534  0.0391
29636ION     NA48490  13.937  14.923   5.033 -0.0073 -0.1032 -0.0466
29637ION     NA48491   0.018  13.119  13.146 -0.2791  0.1030 -0.0759
29638ION     NA48492  12.951   2.821   5.499 -0.1735  0.4387  0.1820
29639ION     NA48493   4.569   1.888  12.007  0.2268  0.0702  0.2592
29640ION     NA48494  14.524   9.288  11.465 -0.4108  0.0415 -0.0271
29641ION     NA48495  13.402   9.838   0.051  0.3287 -0.0494 -0.1101
29642ION     NA48496  10.459  12.055   5.490  0.2013 -0.2662 -0.1530
29643ION     NA48497  15.200   3.979   5.264  0.0458 -0.0059  0.2039
29644ION     NA48498   5.150  10.676   1.147 -0.0812  0.3546 -0.1168
29645ION     NA48499  17.868   0.821  11.098 -0.3291 -0.0504 -0.0420
29646ION     NA48500  10.922   0.805   0.816  0.0049  0.0246  0.1888
29647ION     NA48501   1.220   1.113  10.021 -0.0931  0.1305 -0.2192
29648ION     NA48502  15.335   3.241  10.030 -0.2757 -0.2749 -0.0442
29649ION     NA48503   3.861   0.941   0.925  0.2330 -0.4643 -0.0858
29650ION     NA48504  15.933   2.857   5.628  0.1849  0.1070 -0.3424
29651ION     NA48505  12.361   2.201  12.175  0.2968 -0.0291  0.2328
29652ION     NA48506   3.248   9.857   2.095 -0.0733  0.1891  0.2799
29653ION     NA48507  11.524  17.058   0.256 -0.2637  0.0935  0.2394
29654ION     NA48508   3.116   8.470  12.193 -0.3344  0.1144 -0.1368
29655ION     NA48509  16.247   8.538   9.997  0.3748  0.1189  0.2247
29656ION     NA48510  10.780  18.527  10.477  0.0797 -0.2277 -0.0900
29657ION     NA48511  14.904   6.464   5.128 -0.3725 -0.0789  0.0943
29658ION     NA48512  16.530   4.028   2.467 -0.1723  0.1816  0.2366
29659ION     NA48513   0.894  12.892   4.851 -0.0112 -0.1692  0.1270
29660ION     NA48514   7.398  12.333   2.563 -0.3395 -0.0440  0.1845
29661ION     NA48515   5.011  15.675  14.844 -0.0185  0.0162 -0.0066
29662ION     NA48516  14.481  14.027  13.765 -0.1875  0.3468 -0.0783
29663ION     NA48517  13.218   0.336  10.314 -0.0661  0.1638  0.0740
29664ION     NA48518   3.469   6.908  10.413 -0.1246  0.2449 -0.3273
29665ION     NA48519   7.149  15.340   5.090 -0.3673 -0.1566 -0.1360
29666ION     NA48520  15.660   7.653   5.217 -0.0345 -0.1954 -0.0767
29667ION     NA48521  12.488   5.829   1.997  0.2349  0.0401 -0.0591
29668ION     NA48522  12.729   7.533  10.443 -0.1691  0.0126  0.1899
29669ION     NA48523  13.919   7.168  10.263  0.1770 -0.0988  0.0465
29670ION     NA48524  10.908  10.114   0.327  0.1361  0.2197 -0.2849
29671ION     NA48525   4.945  16.684   4.942  0.0091  0.1339 -0.3727
29672ION     NA48526  12.637   8.957   2.273 -0.1208 -0.0759 -0.0135
29673ION     NA48527  18.461   9.715  10.148 -0.1285 -0.1729 -0.0355
29674ION     NA48528  15.609  10.212  10.981 -0.2196 -0.1243 -0.1359
29675ION     NA48529  13.613  16.443  13.403 -0.0328  0.1159  0.1362
29676ION     NA48530  17.554   7.489   5.513  0.0926  0.3726  0.1517
29677ION     NA48531  14.375  13.761  10.154 -0.0661 -0.0795 -0.1476
29678ION     NA48532   8.105   6.736   0.363 -0.4239 -0.0895 -0.1382
29679ION     NA48533   9.432  16.233  15.065  0.0990  0.0103 -0.0225
29680ION     NA48534  18.120  12.587  13.787  0.0015  0.1743  0.0882
29681ION     NA48535   5.015   5.436  10.439 -0.0772  0.1056  0.1114
29682ION     NA48536  15.913   2.832  13.737  0.0370 -0.4349 -0.2605
29683ION     NA48537  10.479   2.437  11.051 -0.2202  0.0918 -0.1223
29684ION     NA48538  14.159   6.226  14.459 -0.0367 -0.1314  0.0502
29685ION     NA48539   7.323  10.953  11.211  0.4069  0.3107  0.0549
29686ION     NA48540  11.765  16.668   5.854  0.0639  0.2705  0.0597
29687ION     NA48541  17.363   4.399   9.658 -0.1284 -0.2151  0.1311
29688ION     NA48542  18.315  16.283  14.817 -0.0374 -0.0132 -0.2297
29689ION     NA48543  12.519  12.174  10.512 -0.2770 -0.2926 -0.2999
29690ION     NA48544   0.554  10.631  10.080  0.1729  0.1812  0.2326
29691ION     NA48545  17.720   8.651   2.511  0.0817 -0.0571 -0.3510
29692ION     NA48546  11.464  10.919   4.938 -0.2497  0.1070 -0.2296
29693ION     NA48547  15.563   9.678  10.317  0.0362  0.1330 -0.0536
29694ION     NA48548   6.013   1.175  10.492  0.2219  0.1690 -0.1716
29695ION     NA48549   2.281  12.981   0.597  0.0088 -0.1243  0.1482
29696ION     NA48550  18.277  18.278   0.963  0.0441 -0.1372 -0.0857
29697ION     NA48551  11.084   2.902   5.280 -0.0972 -0.0338  0.1952
29698ION     NA48552   5.121   9.807  15.390 -0.0419 -0.1915  0.1023
29699ION     NA48553   0.465   8.089  10.592 -0.1876  0.0936  0.0937
29700ION     NA48554   5.030   2.336  13.931 -0.2335  0.1308  0.0081
29701ION     NA48555   1.770  14.904  13.215 -0.0002 -0.2840  0.0480
29702ION     NA48556  17.683  12.215  10.268 -0.1149 -0.1548 -0.5134
29703ION     NA48557   6.343   8.267  10.359 -0.0196 -0.0040  0.1459
29704ION     NA48558   2.224   4.685  10.081 -0.0089 -0.0027 -0.0696
29705ION     NA48559   7.198  14.364   2.753  0.0120 -0.3739 -0.2198
29706ION     NA48560  12.271  17.855  13.508  0.3697 -0.1233 -0.1965
29707ION     NA48561   9.149   6.605  12.756  0.0381  0.0165 -0.2858
29708ION     NA48562  17.191   8.972   0.449 -0.0229 -0.0935 -0.2022
29709ION     NA48563   1.272  11.147  10.076 -0.2568 -0.0599 -0.1921
29710ION     NA48564   4.124   9.676   5.278 -0.2779 -0.0315  0.0001
29711ION     NA48565   4.677   4.641   1.741 -0.3263  0.0391  0.1293
29712ION     NA48566  10.923   0.963  14.764  0.0069  0.1099  0.2098
29713ION     NA48567  17.786   3.656   1.431 -0.1246 -0.1166  0.0896
29714ION     NA48568   8.472  12.717  13.125  0.0235  0.3005  0.1966
29715ION     NA48569  10.883  16.343  13.924  0.0378  0.3990 -0.1317
29716ION     NA48570  13.121   6.911   5.643 -0.1133  0.2176  0.0848
29717ION     NA48571   5.896   1.374   1.498 -0.0513 -0.3495  0.3166
29718ION     NA48572   9.056   8.823   5.376  0.1884  0.3221 -0.0262
29719ION     NA48573  14.409   6.556   5.373  0.0317  0.1584  0.0688
29720ION     NA48574  16.753   1.962  11.239 -0.0545 -0.0649  0.3225
29721ION     NA48575  12.977   2.619  10.780  0.0188  0.1136  0.0268
29722ION     NA48576  14.287  11.867   5.241  0.1218 -0.2368 -0.1427
29723ION     NA48577   1.758  10.555   5.190  0.0982  0.1314 -0.0899
29724ION     NA48578   6.571   6.473   5.089  0.0502 -0.1272  0.1088
29725ION     NA48579   2.144   1.263  10.158 -0.1518  0.2031 -0.3076
29726ION     NA48580   2.598  16.644   2.359 -0.0705  0.0336 -0.0844
29727ION     NA48581   8.146   5.509  10.940  0.1165  0.2269 -0.3946
29728ION     NA48582   2.663   3.370   4.636  0.0697 -0.1988  0.0191
29729ION     NA48583  12.641  13.828  10.686  0.1537 -0.2563 -0.1831
29730ION     NA48584   5.417   6.309  10.274 -0.0496  0.1166 -0.1399
29731ION     NA48585  16.478  13.291  10.015  0.2993 -0.0046  0.3166
29732ION     NA48586   7.300  16.365  10.408 -0.1572 -0.1286  0.1388
29733ION     NA48587  11.264  13.491  10.869  0.1142 -0.0697 -0.1516
29734ION     NA48588   5.002   0.498   0.561  0.2957 -0.0808 -0.1534
29735ION     NA48589   4.396   5.628   2.953 -0.3111  0.0832 -0.1659
29736ION     NA48590   3.764   1.101  12.260  0.0829 -0.1200  0.1947
29737ION     NA48591   8.844  11.624  10.316 -0.0276  0.1084  0.1584
29738ION     NA48592   4.439  10.050   2.372 -0.1867 -0.1705 -0.0075
29739ION     NA48593   1.079  18.451   5.295  0.0814  0.0414 -0.1374
29740ION     NA48594   6.230  13.112  12.891  0.1592 -0.5306 -0.2113
29741ION     NA48595   9.567  16.871  13.588  0.0022 -0.0947  0.0270
29742ION     NA48596   3.645   5.015  12.257 -0.1104  0.3528  0.2132
29743ION     NA48597   1.494   3.257   0.798  0.2344 -0.1809 -0.2099
29744ION     NA48598   4.119  14.044   3.351  0.0278 -0.3292 -0.0219
29745ION     NA48599  18.099  12.586  14.734 -0.0722  0.0704  0.0474
29746ION     NA48600  17.636   5.279   5.035  0.2257  0.1874 -0.1171
29747ION     NA48601  14.916   4.916  10.063 -0.1320 -0.2067  0.2799
29748ION     NA48602   5.781  17.537   1.731  0.0130  0.4338 -0.1020
29749ION     NA48603   6.156   4.523   5.303 -0.1135 -0.0586 -0.0357
29750ION     NA48604   5.463  11.655   5.132  0.0624  0.3328 -0.3502
29751ION     NA48605   9.700  13.999  14.848 -0.3767  0.0890 -0.2606
29752ION     NA48606   6.383   6.039  10.618 -0.0361 -0.1791  0.0644
29753ION     NA48607   7.469  10.602  10.075 -0.0806  0.0438 -0.2126
29754ION     NA48608   2.008  14.881   4.934 -0.0585  0.1138  0.1892
29755ION     NA48609  11.840   6.003  10.346 -0.0026 -0.0399 -0.0652
29756ION     NA48610   4.454   6.569   1.070  0.1208 -0.1027  0.0315
29757ION     NA48611  15.608   5.750   5.063  0.0302  0.0667 -0.1116
29758ION     NA48612  16.031   4.435   3.088 -0.0179  0.3366 -0.1058
29759ION     NA48613   6.709   8.890  10.059  0.1175 -0.0169  0.0773
29760ION     NA48614   1.699   8.310   0.780 -0.2205  0.1536  0.3442
29761ION     NA48615  14.065   7.134   3.845 -0.0896  0.1991 -0.0151
29762ION     NA48616   8.628   8.288  14.893 -0.4462  0.0246  0.1008
29763ION     NA48617   2.841  10.675   4.927 -0.0838 -0.4157 -0.1922
29764ION     NA48618  17.165   6.846  10.173 -0.0930  0.1544  0.3990
29765ION     NA48619   9.639  11.371  10.462  0.3519 -0.0806 -0.0032
29766ION     NA48620  18.190  18.415  10.132 -0.1835 -0.1849  0.0287
29767ION     NA48621  15.295  12.647  11.196  0.3143 -0.0284 -0.1786
29768ION     NA48622  12.406   1.785  10.793  0.1982 -0.2207  0.0383
29769ION     NA48623   4.032   1.825   2.875 -0.2103 -0.2069 -0.0588
29770ION     NA48624   5.353   3.595   2.674 -0.1617 -0.0775  0.3889
29771ION     NA48625  10.811   1.347   5.438 -0.2288  0.0653  0.1182
29772ION     NA48626   0.709  10.848   2.348 -0.1292  0.1420  0.3197
29773ION     NA48627   3.682   5.182  10.272  0.1328  0.0366 -0.1921
29774ION     NA48628   5.086  15.804   5.050  0.0980 -0.0213  0.1932
29775ION     NA48629  11.246  14.475   5.724  0.0699  0.0295  0.0254
29776ION     NA48630  11.601   0.746   5.454  0.2003 -0.1116 -0.3009
29777ION     NA48631  12.878   7.726   5.323  0.0033 -0.0826 -0.1583
29778ION     NA48632  14.751  15.672   0.129 -0.1077 -0.0128 -0.0568
29779ION     NA48633   4.318  15.226   5.128  0.0301  0.2073  0.1091
29780ION     NA48634   8.286  13.888  13.539 -0.1093  0.2071  0.0635
29781ION     NA48635   6.357  16.116  13.189 -0.1360  0.1784 -0.0346
29782ION     NA48636  12.692  18.178   1.904  0.1585 -0.0016  0.1583
29783ION     NA48637  14.920   0.510   2.032 -0.3929 -0.2608 -0.0184
29784ION     NA48638   0.145  11.359   4.266  0.1030 -0.2805 -0.0882
29785ION     NA48639   2.562   8.245  12.876  0.1989  0.1787 -0.0235
29786ION     NA48640  14.992   1.993  14.445  0.1618 -0.0622 -0.0477
29787ION     NA48641   3.766   4.029  10.183 -0.2105 -0.2700  0.0473
29788ION     NA48642  14.783  15.047  12.607  0.0387 -0.0644  0.1359
29789ION     NA48643  12.576  18.323   5.549  0.2361 -0.3407 -0.1893
29790ION     NA48644  15.801   2.563  10.094 -0.2161 -0.1052 -0.3645
29791ION     NA48645   8.416  18.360  11.540 -0.1387 -0.1796  0.1824
29792ION     NA48646   7.647  14.948  10.364 -0.0472  0.0797 -0.0317
29793ION     NA48647  13.336  13.591  14.877  0.0609 -0.0530  0.1054
29794ION     NA48648  12.978  18.248  11.319  0.1273 -0.0972 -0.3151
29795ION     NA48649   6.835   0.531   5.136 -0.0657  0.2255 -0.1452
29796ION     NA48650  11.036   3.129  10.540 -0.0747  0.1461  0.1285
29797ION     NA48651   5.680  15.582   1.466  0.1958  0.1300 -0.0340
29798ION     NA48652   3.998   7.553   3.516  0.2731  0.2324  0.2993
29799ION     NA48653   3.240  14.634  14.038  0.0968 -0.0639  0.0469
29800ION     NA48654  15.049   4.294  13.982  0.1866  0.2337  0.2391
29801ION     NA48655   3.165   7.931  10.610 -0.1982  0.0207  0.1454
29802ION     NA48656   8.337   3.611  10.279  0.2501  0.1806  0.1688
29803ION     NA48657  13.708   2.128  10.507  0.1043  0.1484 -0.2472
29804ION     NA48658   0.338   2.292  14.648 -0.1714  0.1512 -0.1739
29805ION     NA48659  14.899   3.741  10.297 -0.0535  0.0308 -0.1463
29806ION     NA48660   4.941   1.041  14.685  0.0224 -0.0285  0.2522
29807ION     NA48661   3.817   6.488   4.970 -0.1258  0.1664 -0.0033
29808ION     NA48662   9.860  13.414  13.570  0.0793  0.0152  0.1131
29809ION     NA48663  11.190  13.080  10.596  0.4809 -0.0117  0.1105
29810ION     NA48664  11.076  15.986   5.845 -0.1017  0.0170 -0.3849
29811ION     NA48665   9.472   1.413  13.830  0.0334 -0.1280  0.1749
29812ION     NA48666  16.835   2.435   5.562  0.3303  0.0733 -0.1683
29813ION     NA48667   7.331  12.476  11.043 -0.0955  0.2481  0.1733
29814ION     NA48668  11.692   1.694   5.627 -0.1022  0.0496  0.0405
29815ION     NA48669   3.895   2.510   2.041 -0.1844  0.2776  0.0908
29816ION     NA48670   6.775  11.633   1.788 -0.2776 -0.0069  0.1581
29817ION     NA48671  11.227   6.780   5.615 -0.0187 -0.1662  0.1536
29818ION     NA48672   1.604   2.837   9.963 -0.3185 -0.1911  0.1536
29819ION     NA48673  17.800   8.627   3.606  0.2624  0.0234  0.1220
29820ION     NA48674   3.167  16.769   2.615 -0.0201  0.0137  0.1069
29821ION     NA48675  17.012  12.592   3.529 -0.1646 -0.0053 -0.0679
29822ION     NA48676   7.086  16.972  14.824 -0.2118  0.0974 -0.0800
29823ION     NA48677  16.967   5.904  10.064 -0.0480  0.0686  0.2398
29824ION     NA48678  12.636   2.701  13.572 -0.3864 -0.1694 -0.1052
29825ION     NA48679   9.059   6.944   1.158 -0.1019 -0.3541 -0.0639
29826ION     NA48680   0.131   3.965   4.427 -0.0175  0.5051  0.1683
29827ION     NA48681  12.142   7.730   2.111  0.3885  0.0196  0.1141
29828ION     NA48682   9.538   4.420  10.290 -0.2117 -0.1832 -0.3309
29829ION     NA48683   4.056   7.297   3.101  0.1724 -0.0560 -0.0644
29830ION     NA48684   6.682  11.876   4.849 -0.0076 -0.2376 -0.2104
29831ION     NA48685   8.577  12.562  10.177  0.1661  0.0084 -0.1437
29832ION     NA48686   9.274  10.697  13.056  0.2929  0.2100  0.2326
29833ION     NA48687  10.884   3.738   0.922 -0.0125 -0.1053 -0.0433
29834ION     NA48688  16.714   9.002   2.036 -0.0769  0.0009 -0.1115
29835ION     NA48689   2.149  15.350   4.798  0.0308 -0.0775  0.0138
29836ION     NA48690  16.693   9.265   9.986 -0.0930  0.2454  0.0961
29837ION     NA48691  15.506  15.549  10.261 -0.1849  0.0836  0.0796
29838ION     NA48692   0.785   1.256   5.019  0.0004 -0.1566  0.1267
29839ION     NA48693  16.551  10.464   0.570 -0.1312 -0.1988 -0.0871
29840ION     NA48694  10.860   3.219  12.436  0.1460 -0.0971  0.0555
29841ION     NA48695  13.580   7.974  13.600  0.2248  0.2843 -0.2026
29842ION     NA48696   5.620  15.087  10.332  0.0364  0.0472  0.2168
29843ION     NA48697  11.767   2.746   1.531 -0.2886 -0.0008 -0.1200
29844ION     NA48698  15.650  13.930  12.836  0.0071  0.0821 -0.2390
29845ION     NA48699   5.667  11.846  10.141 -0.2191  0.2572  0.0768
29846ION     NA48700  11.783  13.331  12.017 -0.1837  0.2194 -0.2985
29847ION     NA48701  17.857   4.767  13.807  0.0371 -0.0687  0.2610
29848ION     NA48702  18.410   2.926  12.652 -0.0720 -0.0642 -0.1334
29849ION     NA48703  16.884   1.662   0.051 -0.1138  0.0019 -0.3452
29850ION     NA48704  12.408  12.596   5.539 -0.2039 -0.1582 -0.2128
29851ION     NA48705  17.760   6.708  12.577  0.0951 -0.0061  0.1490
29852ION     NA48706   5.698  12.532   5.404  0.1138 -0.2004 -0.0723
29853ION     NA48707  10.599  14.353  14.277 -0.1731 -0.1000  0.0880
29854ION     NA48708   0.156  14.478   4.914  0.0332 -0.0506 -0.0248
29855ION     NA48709  16.565   8.446  14.236  0.1092 -0.0423  0.0610
29856ION     NA48710   0.684   2.778  12.427 -0.1861  0.0250  0.2139
29857ION     NA48711   1.283   3.795   4.051  0.1030  0.0692  0.1893
29858ION     NA48712   4.679   8.153  10.264 -0.0021 -0.2458  0.1400
29859ION     NA48713  15.242  10.533   4.875  0.2558 -0.3079  0.1751
29860ION     NA48714  14.961   7.234  10.344  0.2189 -0.4898  0.2569
29861ION     NA48715   4.768  15.951  10.772 -0.0764 -0.0679 -0.1849
29862ION     NA48716  14.418  13.706   0.028  0.0605  0.2377  0.1216
29863ION     NA48717   4.535   4.651  10.185  0.1361  0.1019  0.0181
29864ION     NA48718   2.278   4.927  13.467 -0.2143  0.1913  0.3472
29865ION     NA48719  10.468  12.655   2.580 -0.1209  0.1162 -0.2462
29866ION     NA48720   2.016  10.885   1.200  0.1043 -0.2161 -0.3221
29867ION     NA48721  12.377  17.597   2.782 -0.0104 -0.0441  0.0344
29868ION     NA48722  15.926   0.177   5.479 -0.0889 -0.0722  0.0219
29869ION     NA48723   3.752  16.437   0.910 -0.1170 -0.1827  0.0200
29870ION     NA48724  11.210   9.620   5.296  0.3210 -0.0033 -0.2035
29871ION     NA48725  18.054  15.107   5.168 -0.0573 -0.2313  0.1434
29872ION     NA48726   6.062  16.454   1.797 -0.1316  0.1453 -0.3224
29873ION     NA48727  15.704  11.965   2.033  0.0423  0.1341 -0.2295
29874ION     NA48728   6.440   9.690   5.471 -0.0155  0.3531  0.3522
29875ION     NA48729  16.448  16.024  10.263 -0.0053 -0.1950  0.3685
29876ION     NA48730  14.766   8.077  10.399 -0.0455 -0.3151 -0.0258
29877ION     NA48731   4.585   5.672  10.258  0.0919 -0.2755  0.0304
29878ION     NA48732   7.449  12.486  14.389  0.0918  0.1923  0.2690
29879ION     NA48733   3.558  16.454  11.705 -0.2301  0.1001  0.2646
29880ION     NA48734   1.086  15.509   9.804  0.0485 -0.3673 -0.0015
29881ION     NA48735   8.467   1.376  13.382 -0.1487  0.0653  0.0204
29882ION     NA48736   4.803   5.541   1.242 -0.0321 -0.0370 -0.1505
29883ION     NA48737   2.958   4.135   9.937 -0.0031  0.1264  0.1173
29884ION     NA48738   0.750  15.243   4.923 -0.1187  0.3562  0.2077
29885ION     NA48739   7.465   0.044   0.656 -0.1377  0.3044 -0.2176
29886ION     NA48740   3.240  14.711  10.238 -0.2493 -0.0528  0.1054
29887ION     NA48741  11.313   1.639  10.590  0.1721  0.2918  0.0872
29888ION     NA48742  10.061   7.650   0.537 -0.0796 -0.2695  0.0273
29889ION     NA48743  17.238   3.052   9.976 -0.0413  0.0640  0.1731
29890ION     NA48744  11.897  15.414   5.728 -0.1598  0.2209  0.0089
29891ION     NA48745  15.493   0.367  14.745 -0.2699 -0.0454 -0.2113
29892ION     NA48746  10.808  12.000   0.390  0.3810  0.0165  0.0582
29893ION     NA48747   0.976   3.651  15.222  0.1041  0.2207 -0.0088
29894ION     NA48748  13.172   0.636   5.604 -0.0945 -0.0243  0.2922
29895ION     NA48749  12.018   7.357   5.380  0.0318 -0.0512 -0.2314
29896ION     NA48750   3.050  10.093  13.905  0.2836  0.1083  0.0825
29897ION     NA48751   2.005   0.053   4.749 -0.0508  0.0897  0.0092
29898ION     NA48752   5.208  18.493  10.331  0.3265 -0.1399  0.1555
29899ION     NA48753   1.836   3.621   9.942 -0.2646  0.0693 -0.0277
29900ION     NA48754  12.151   0.549   1.762 -0.2677 -0.0490 -0.2131
29901ION     NA48755   6.729   2.172   4.994 -0.0485 -0.1350 -0.1255
29902ION     NA48756  12.077  11.181   2.810 -0.0082  0.1246 -0.3396
29903ION     NA48757   8.254  15.508   2.228  0.0995 -0.0413 -0.2754
29904ION     NA48758   4.046  15.293  12.257  0.1110 -0.0821  0.0209
29905ION     NA48759  12.130  10.841  10.745 -0.1393 -0.3599  0.0664
29906ION     NA48760  13.873  14.465  10.256 -0.0601  0.0228 -0.1221
29907ION     NA48761   0.182   9.581   1.718  0.0807  0.1338  0.0910
29908ION     NA48762   0.991   6.342  10.075  0.3901 -0.3724 -0.0571
29909ION     NA48763  11.491  17.920   2.368  0.0520 -0.0788  0.1066
29910ION     NA48764   1.386  15.641   5.160 -0.1598 -0.0136 -0.0889
29911ION     NA48765   6.112  12.666  12.107  0.1572 -0.0011  0.0464
29912ION     NA48766   2.311   9.574  10.259  0.2856 -0.0767  0.0681
29913ION     NA48767  14.099   3.830   2.123 -0.2017  0.2038 -0.2668
29914ION     NA48768  13.838   0.734  10.155  0.0269  0.0310  0.0850
29915ION     NA48769  16.090  14.745  10.032  0.0410  0.0964  0.0012
29916ION     NA48770   2.881  11.237  15.091 -0.2549 -0.3857 -0.1182
29917ION     NA48771  12.940   8.924   4.010 -0.1768 -0.0652  0.3487
29918ION     NA48772  13.099   5.572  11.083  0.1529 -0.2236 -0.0209
29919ION     NA48773  15.440  11.526  10.308 -0.0589  0.2339  0.0170
29920ION     NA48774  14.202  10.356   0.931  0.3077 -0.1885 -0.1704
29921ION     NA48775   5.793   4.153   1.972  0.1507 -0.1200 -0.0599
29922ION     NA48776   8.283  13.800   5.109  0.2575 -0.0623 -0.2178
29923ION     NA48777  10.679  10.755  12.467 -0.0341  0.2393  0.4011
29924ION     NA48778  18.170   2.519   1.537 -0.1051 -0.2688 -0.0288
29925ION     NA48779   1.541  13.587   5.003 -0.1800 -0.1375 -0.2384
29926ION     NA48780  16.795   6.658   1.674 -0.1167  0.2430  0.1702
29927ION     NA48781  10.074   5.922   5.352 -0.1273 -0.0863  0.2126
29928ION     NA48782   5.763   3.678   5.213 -0.0645 -0.1724  0.3727
29929ION     NA48783   4.649   0.780  10.032  0.1397 -0.0732  0.1784
29930ION     NA48784   6.106   0.110  14.132 -0.2263 -0.0927  0.2943
29931ION     NA48785   3.444  15.966  10.299 -0.0298 -0.0625 -0.3075
29932ION     NA48786   8.365  16.113  13.113 -0.0990 -0.0645 -0.0532
29933ION     NA48787  14.340  15.848  14.196 -0.1035 -0.4118  0.2697
29934ION     NA48788   3.665  17.681  10.543  0.0559 -0.1525 -0.1753
29935ION     NA48789   3.295  12.383   4.882  0.0234  0.0378 -0.3866
29936ION     NA48790   4.168  17.082   5.039  0.0086 -0.0973 -0.2003
29937ION     NA48791   6.113   2.979  14.872  0.0049 -0.2857  0.2935
29938ION     NA48792   8.709  15.943   5.616 -0.1177  0.1268 -0.0677
29939ION     NA48793   1.445   1.815  10.097  0.1877 -0.0343 -0.2450
29940ION     NA48794  16.658   3.907   5.023 -0.3528 -0.1270 -0.1852
29941ION     NA48795   2.593   8.205   0.419 -0.2627  0.1089  0.3977
29942ION     NA48796   8.467   8.788   5.300  0.1099 -0.1382  0.3608
29943ION     NA48797  16.122  10.450  10.221 -0.1716 -0.1021 -0.1163
29944ION     NA48798   9.181  12.287   3.110 -0.2447  0.2091 -0.0555
29945ION     NA48799   4.916  12.623   4.839 -0.1309  0.1357 -0.0368
29946ION     NA48800   9.964  10.671  10.319 -0.1389  0.2701 -0.0043
29947ION     NA48801   7.005   5.507  10.444 -0.1188  0.0180 -0.1636
29948ION     NA48802   7.286  11.759   9.982  0.0388 -0.0241 -0.0984
29949ION     NA48803  18.507  12.440   1.455 -0.0213 -0.0350 -0.1744
29950ION     NA48804   2.228  15.179  12.243  0.0180 -0.1616  0.0432
29951ION     NA48805   9.914   2.694  12.454 -0.3914  0.2702  0.2659
29952ION     NA48806   6.390   1.260   2.911  0.1513 -0.2266  0.0303
29953ION     NA48807  13.074   4.178   1.631  0.2129  0.2510 -0.0788
29954ION     NA48808   4.660   3.825  10.156  0.0323  0.1181  0.1893
29955ION     NA48809   2.837  16.841  12.383 -0.1220 -0.2403 -0.2334
29956ION     NA48810   8.853   1.712   5.398  0.0460  0.1776  0.0361
29957ION     NA48811  13.906   6.250   2.646 -0.0276 -0.1161 -0.3018
29958ION     NA48812  16.504   4.535   9.740 -0.2901 -0.3176  0.1356
29959ION     NA48813   7.090  14.603   5.269  0.0298 -0.1372  0.2328
29960ION     NA48814  14.817   4.873   0.673  0.1162  0.1273 -0.2838
29961ION     NA48815   9.035  10.073  12.967  0.0685 -0.0150  0.0461
29962ION     NA48816  11.340  15.282  14.125  0.2844  0.0782  0.2056
29963ION     NA48817  14.940  14.234  12.861 -0.1619  0.0151 -0.0060
29964ION     NA48818   0.004   9.727  14.079  0.1638  0.0882  0.0957
29965ION     NA48819   6.751  12.725   0.719 -0.1076  0.3252  0.2554
29966ION     NA48820  17.623   9.263  14.575  0.1820  0.4667 -0.2559
29967ION     NA48821  10.314   6.023  14.024 -0.4923 -0.0800  0.0037
29968ION     NA48822  11.794   7.353   4.854 -0.0005  0.0076 -0.0137
29969ION     NA48823   7.185   0.717   1.583 -0.2530 -0.0012 -0.1136
29970ION     NA48824   2.680   5.570  12.849  0.5511 -0.2399 -0.1103
29971ION     NA48825  13.707   3.283   4.877  0.2749 -0.0626 -0.2671
29972ION     NA48826  11.373   5.653   2.643  0.1449 -0.0317  0.1893
29973ION     NA48827   0.912  16.917   5.134  0.1377 -0.0402 -0.1079
29974ION     NA48828   1.979  16.256   5.177  0.0119  0.3298 -0.2352
29975ION     NA48829  13.482  13.283  11.284  0.0867 -0.1813  0.0712
29976ION     NA48830  14.001   1.759  15.229  0.0341  0.2664  0.3373
29977ION     NA48831   0.844   1.217  13.862 -0.0114 -0.1159 -0.0222
29978ION     NA48832  15.205   2.250   5.536  0.1933 -0.2294 -0.1780
29979ION     NA48833  17.447  17.730  10.317 -0.0098 -0.0803 -0.0233
29980ION     NA48834   8.279  18.358  13.951  0.0121 -0.0348  0.0150
29981ION     NA48835  15.783   8.508   2.593  0.2433  0.1574 -0.1965
29982ION     NA48836   3.125   2.011  11.616  0.1042 -0.1157  0.0498
29983ION     NA48837  12.686  12.021  13.761 -0.0065  0.1568 -0.1149
29984ION     NA48838   6.695  14.421   3.705 -0.1779 -0.0640 -0.0616
29985ION     NA48839  14.742   7.478   5.133 -0.1567  0.0341 -0.0459
29986ION     NA48840   8.835   7.392  10.309  0.1514 -0.1983 -0.2251
29987ION     NA48841  17.600   9.824  10.139 -0.2409  0.0968 -0.1677
29988ION     NA48842  13.305  10.152   5.387  0.2859 -0.2509 -0.3705
29989ION     NA48843  10.471  13.841   5.805 -0.1269  0.0882  0.1835
29990ION     NA48844   0.584  18.208   2.219  0.1670  0.1739  0.1424
29991ION     NA48845  15.787   7.799  10.291  0.1984  0.0428 -0.1180
29992ION     NA48846   0.733  13.692  15.062 -0.0329  0.1724 -0.0714
29993ION     NA48847  10.096  14.765   5.578 -0.1430  0.0718 -0.0578
29994ION     NA48848  11.221  12.306  14.542 -0.1405  0.1054 -0.1166
29995ION     NA48849   3.349   9.799  13.139 -0.1174 -0.1238 -0.3961
29996ION     NA48850   9.482   4.607   3.232  0.2310 -0.1534 -0.0290
29997ION     NA48851  14.922   9.644   4.773  0.0472 -0.1177 -0.2334
29998ION     NA48852   5.373  17.613  10.184  0.0173  0.0817 -0.2371
29999ION     NA48853  11.740  11.804   5.262 -0.5359 -0.1620  0.2260
30000ION     NA48854   6.363  17.242   2.928 -0.0574  0.0177  0.1013
30001ION     NA48855   2.907  11.671   5.020  0.0286 -0.2889 -0.3202
30002ION     NA48856  11.334   2.994   3.615  0.1726 -0.1414  0.2672
30003ION     NA48857  15.397   8.267   5.362  0.2613 -0.0164 -0.1641
30004ION     NA48858   4.592   2.676   0.057  0.1252 -0.0026  0.1143
30005ION     NA48859  15.189  16.803  13.537  0.1789  0.2279  0.0380
30006ION     NA48860  18.402   6.039   5.118 -0.3357  0.0376  0.0370
30007ION     NA48861   9.548  10.462   5.176  0.3503  0.1341  0.1377
30008ION     NA48862   9.714   9.591  11.239 -0.1226  0.3070 -0.1882
30009ION     NA48863  13.012  14.131   5.615 -0.1766  0.2767  0.4993
30010ION     NA48864   6.925   4.398   2.128  0.3777  0.0835  0.0381
30011ION     NA48865  11.829   8.595   2.085  0.3101 -0.0858 -0.3328
30012ION     NA48866  10.336   9.807  10.630  0.2007 -0.1139  0.3303
30013ION     NA48867   2.511  15.389   2.386 -0.2864  0.1874  0.2514
30014ION     NA48868   6.367   8.872   5.218 -0.2706 -0.1812 -0.2396
30015ION     NA48869   6.147  13.626   5.277  0.0697  0.0595 -0.0978
30016ION     NA48870   9.470   0.967   2.937  0.0400  0.0968  0.0204
30017ION     NA48871   2.167   8.627  10.393  0.2772 -0.2005 -0.1006
30018ION     NA48872  10.472   0.978  10.312 -0.1080  0.0087 -0.0789
30019ION     NA48873   1.926  17.832   0.956  0.1148  0.1520  0.0722
30020ION     NA48874  11.121  10.534  13.267 -0.0024  0.0890  0.0203
30021ION     NA48875  12.396  17.838  12.070  0.2090  0.1301  0.0168
30022ION     NA48876  12.996   9.980   2.713  0.0324 -0.3006 -0.2018
30023ION     NA48877   8.489   4.573  13.949 -0.2541  0.0680 -0.0511
30024ION     NA48878  17.012  15.053  10.292  0.0137 -0.5985  0.1562
30025ION     NA48879   0.643  16.944  13.734 -0.3629 -0.1314  0.1922
30026ION     NA48880  17.626   6.261   1.386  0.3401 -0.3279 -0.0390
30027ION     NA48881   3.139   3.688   5.255 -0.0588 -0.1397 -0.0271
30028ION     NA48882   1.964  14.508  14.268  0.1705 -0.3054 -0.1659
30029ION     NA48883  13.301  15.495   5.651 -0.3708 -0.2492 -0.1043
30030ION     NA48884   5.007  14.658  10.284 -0.0119 -0.1131  0.2335
30031ION     NA48885  16.574   3.129  15.311  0.0328 -0.1696 -0.2885
30032ION     NA48886   6.985  12.446   5.299  0.0941  0.0703  0.0076
30033ION     NA48887  10.565  14.731  12.231 -0.0586 -0.0691  0.3289
30034ION     NA48888   2.738   4.454   4.877 -0.0676  0.1246 -0.0557
30035ION     NA48889   0.019   8.337   2.961 -0.2050  0.1824  0.1922
30036ION     NA48890   8.026   0.873  10.659  0.0735 -0.2169 -0.2412
30037ION     NA48891   2.134   5.460   4.765 -0.1065 -0.1950  0.3023
30038ION     NA48892   9.728   5.256  13.503  0.4559  0.0988  0.1448
30039ION     NA48893   2.658   6.669  12.086 -0.1638  0.0713 -0.1696
30040ION     NA48894   3.429   0.887   5.069 -0.1101 -0.0534 -0.0185
30041ION     NA48895   3.995  17.521   1.819  0.0578 -0.1382  0.0154
30042ION     NA48896   5.244  10.131  10.500  0.2010 -0.0573  0.0229
30043ION     NA48897   4.445  13.920  10.121  0.0624  0.0363  0.2922
30044ION     NA48898   9.567  15.707   0.383  0.0811 -0.0295 -0.1748
30045ION     NA48899   5.657   9.395   5.289  0.1115  0.2004 -0.2424
30046ION     NA48900   1.077  13.427   1.546 -0.4422  0.5678  0.0779
30047ION     NA48901  15.282  12.526  10.058  0.0946 -0.0184  0.0805
30048ION     NA48902  14.859  17.054  10.416 -0.2011  0.1607 -0.1208
30049ION     NA48903   4.485   2.590   4.964  0.0165  0.1723  0.0747
30050ION     NA48904   0.120  17.665  10.239 -0.2450  0.1714 -0.0011
30051ION     NA48905   5.704   7.721  15.430 -0.0030  0.0153 -0.1066
30052ION     NA48906   4.989   4.868   5.090 -0.0135 -0.1111 -0.2112
30053ION     NA48907  11.716   3.631  10.879  0.1694  0.1642 -0.1387
30054ION     NA48908   4.477   5.367  14.325 -0.0695  0.0116  0.0347
30055ION     NA48909  13.795   3.382   0.438 -0.1115 -0.2593 -0.0963
30056ION     NA48910   1.920   4.148   5.279  0.4292 -0.1519 -0.1427
30057ION     NA48911   3.206   7.347   2.551 -0.1720 -0.6303 -0.4052
30058ION     NA48912  13.931   2.904  10.510  0.1698 -0.0668 -0.0734
30059ION     NA48913   7.255  16.675   0.898 -0.2488  0.0616  0.0104
30060ION     NA48914   3.164  15.530   1.175 -0.0023 -0.2541 -0.3052
30061ION     NA48915   1.346  15.569  15.070  0.1253  0.1587  0.1139
30062ION     NA48916  14.488  16.177   5.408 -0.0748  0.2430 -0.1745
30063ION     NA48917  14.614  15.974   2.869 -0.1170  0.0391  0.0159
30064ION     NA48918   0.531   9.209   4.861 -0.2383 -0.1149  0.1405
30065ION     NA48919   8.049   1.119   3.748  0.1633 -0.0272  0.0802
30066ION     NA48920  17.021   6.859  14.912 -0.1666  0.2942  0.2398
30067ION     NA48921   1.054   8.327  13.179 -0.3144 -0.0917 -0.2158
30068ION     NA48922  14.176   7.201   2.358  0.0147 -0.1479 -0.1373
30069ION     NA48923   7.082   7.605  10.258  0.4623 -0.0113  0.0553
30070ION     NA48924  10.199   2.005   5.856 -0.4105 -0.1595  0.0343
30071ION     NA48925  16.373   3.123   9.833 -0.1243 -0.1393 -0.0983
30072ION     NA48926  14.013  16.743   0.101  0.0668  0.0897 -0.2036
30073ION     NA48927   8.104  11.225   5.222  0.1812  0.2726  0.0087
30074ION     NA48928   4.230  17.015  10.354  0.2659 -0.0642  0.1535
30075ION     NA48929   9.252   4.805   1.001 -0.1314  0.0605 -0.1752
30076ION     NA48930   2.185  17.180  14.160  0.0368  0.1676 -0.0571
30077ION     NA48931  17.575  15.330  13.999  0.3974  0.0346  0.1888
30078ION     NA48932   4.151   9.714   1.069 -0.0449 -0.2243  0.3022
30079ION     NA48933   2.133  11.846   9.967  0.1293  0.1587 -0.1364
30080ION     NA48934  15.282  14.109  10.119  0.1472  0.1342  0.2387
30081ION     NA48935   9.420  18.464   5.503  0.0817  0.1374  0.1058
30082ION     NA48936  13.887   1.345   2.110  0.2580 -0.5074 -0.1374
30083ION     NA48937  10.154   1.553   0.407  0.1240 -0.1337  0.3864
30084ION     NA48938   5.615   8.388  14.865  0.0185 -0.0452  0.1866
30085ION     NA48939   9.943   0.146  11.392  0.0742 -0.1202 -0.0972
30086ION     NA48940   4.025   2.095  10.328 -0.1043 -0.1232 -0.0052
30087ION     NA48941  14.569   1.084  10.139 -0.3733  0.0398 -0.1632
30088ION     NA48942   7.416   7.319  11.654 -0.2527 -0.0700  0.2458
30089ION     NA48943   8.525   2.617  10.455 -0.2112  0.0848 -0.3236
30090ION     NA48944  16.805  17.503  13.842 -0.0593 -0.1826  0.0292
30091ION     NA48945  16.751   7.738   1.645 -0.0530  0.2596  0.1342
30092ION     NA48946  11.056   5.676  10.435  0.2770 -0.3860 -0.0795
30093ION     NA48947  10.049   4.115  14.122  0.0348  0.0036  0.0319
30094ION     NA48948  17.165  10.496  10.390  0.1449  0.2913  0.1813
30095ION     NA48949  10.321   8.451   5.522  0.0188 -0.2384  0.3180
30096ION     NA48950   7.153  13.999   1.442  0.1253 -0.1640 -0.1041
30097ION     NA48951   6.923   8.018   5.305 -0.2210  0.0533  0.1832
30098ION     NA48952   8.818  16.812   5.557 -0.1156 -0.1875 -0.4009
30099ION     NA48953   0.854   7.374   4.842  0.0072  0.2470 -0.0806
30100ION     NA48954   5.402   2.910   4.997 -0.1431 -0.1031  0.0176
30101ION     NA48955  13.688   6.103   5.606 -0.2981  0.0230 -0.2348
30102ION     NA48956   3.781   8.358  10.291 -0.2132 -0.0208 -0.2311
30103ION     NA48957   4.425  17.916  10.206  0.0185 -0.1700 -0.0762
30104ION     NA48958   6.058  13.758   4.809 -0.2367  0.0893 -0.2185
30105ION     NA48959  12.157   6.398  10.160 -0.0335 -0.2723 -0.0536
30106ION     NA48960  17.862  12.518   5.165 -0.2605 -0.0900  0.0383
30107ION     NA48961  18.061   4.390   5.152  0.0534 -0.2544 -0.2235
30108ION     NA48962  16.612  15.259   5.320 -0.0739 -0.1389  0.1349
30109ION     NA48963  10.533   7.253   5.406  0.2414  0.0124 -0.0899
30110ION     NA48964  16.297  17.769   5.419  0.1045  0.1348 -0.2504
30111ION     NA48965  13.808  15.530   5.749 -0.0779 -0.1603 -0.0671
30112ION     NA48966  15.539   9.912   2.132  0.1791  0.1518  0.0357
30113ION     NA48967  17.915  17.969  11.954  0.1288  0.1387  0.3828
30114ION     NA48968   1.459  17.525   5.176  0.0725 -0.2079 -0.3618
30115ION     NA48969  13.616  14.382  11.524 -0.1071  0.1331  0.1440
30116ION     NA48970   7.295   4.869   3.337 -0.0877 -0.1853 -0.3120
30117ION     NA48971   2.917  13.978   4.964  0.0182  0.2803 -0.1020
30118ION     NA48972  14.792  10.930  11.141 -0.2536 -0.1429 -0.1110
30119ION     NA48973   5.247  14.571   2.281  0.1167  0.0463 -0.0315
30120ION     NA48974   3.341   9.366   5.096  0.1008  0.0797 -0.3879
30121ION     NA48975  11.075   2.334  12.706  0.1404  0.2077  0.0750
30122ION     NA48976   1.247   1.887   0.599 -0.0152 -0.1399  0.2966
30123ION     NA48977   5.109   0.807  10.306  0.0690 -0.0237  0.0481
30124ION     NA48978  13.777  13.454   5.581 -0.2091 -0.2168 -0.0781
30125ION     NA48979   1.799   9.182   4.979  0.0433  0.0786  0.1968
30126ION     NA48980  11.702   0.244  10.641 -0.0580 -0.0205  0.1481
30127ION     NA48981   6.257   4.242  10.110 -0.1303 -0.0199 -0.1441
30128ION     NA48982   2.607  17.079   4.429  0.0856  0.0160  0.2438
30129ION     NA48983   1.353   7.258  14.010  0.2165  0.0719  0.0655
30130ION     NA48984  10.010   1.886  15.160 -0.0008  0.1335  0.2643
30131ION     NA48985   1.443   9.709  12.529 -0.2710 -0.2515  0.1680
30132ION     NA48986  15.591   3.925  14.731 -0.3307  0.1525  0.0836
30133ION     NA48987   2.411   8.465  14.172 -0.0795  0.1918 -0.0030
30134ION     NA48988  14.730   5.072  12.480  0.0339 -0.1057  0.1434
30135ION     NA48989   1.547   0.116  10.215 -0.3284  0.1405 -0.3573
30136ION     NA48990   8.226  11.989   3.974 -0.0138  0.0161  0.1091
30137ION     NA48991  12.317  16.297  14.895 -0.2158 -0.3235  0.1995
30138ION     NA48992  12.030   2.595   5.428 -0.3053 -0.0726 -0.1960
30139ION     NA48993  14.469  13.372  13.135 -0.1275  0.2492  0.0414
30140ION     NA48994  18.334   3.635   5.162 -0.2771  0.0832  0.0725
30141ION     NA48995   9.487  13.030   5.580  0.1588  0.2476  0.0283
30142ION     NA48996   2.959   4.695  10.347 -0.1003 -0.0161  0.3193
30143ION     NA48997   2.089   3.299   5.165 -0.2667 -0.2318  0.1716
30144ION     NA48998  14.888   6.595   1.323 -0.0050 -0.2059 -0.1546
30145ION     NA48999   4.711  11.779  10.327  0.2584 -0.1407 -0.0458
30146ION     NA49000  16.447  11.749   5.655 -0.1664  0.1918  0.4407
30147ION     NA49001   6.376  11.778  11.692  0.1435 -0.0856 -0.0826
30148ION     NA49002  13.221   0.415   4.658  0.3883  0.0018 -0.0424
30149ION     NA49003   8.328   7.015   5.379 -0.1578 -0.1619 -0.1891
30150ION     NA49004  13.474   8.267   4.178  0.0218 -0.0696 -0.2692
30151ION     NA49005   3.344   7.251  11.615 -0.0020  0.2139  0.2118
30152ION     NA49006  14.373  16.580   4.018  0.0933  0.1613 -0.2821
30153ION     NA49007   5.972   1.517   0.385 -0.2561 -0.5461 -0.2721
30154ION     NA49008   6.080  10.466  13.341 -0.0614  0.2129  0.0012
30155ION     NA49009   8.035   0.032  10.210 -0.2842 -0.2911 -0.0951
30156ION     NA49010  12.890  13.314   5.496  0.0023  0.2150  0.0369
30157ION     NA49011  15.639  10.333  13.910 -0.1877  0.0404 -0.0826
30158ION     NA49012  15.395   0.934  10.418 -0.0282 -0.0331  0.0009
30159ION     NA49013  17.459   5.737   5.233 -0.0457 -0.1578 -0.2434
30160ION     NA49014  16.287  13.252   5.294  0.2081  0.4934 -0.1772
30161ION     NA49015   6.948   7.876   1.478  0.1505  0.0955  0.2158
30162ION     NA49016   6.159  11.803  13.411 -0.2731  0.1270  0.0659
30163ION     NA49017   2.172  16.856  10.023 -0.0500 -0.2618  0.0217
30164ION     NA49018  13.559  12.598   1.462 -0.1571  0.0393 -0.1983
30165ION     NA49019   1.356   4.291   0.944  0.1074 -0.1177  0.1441
  18.57210  18.57210  15.46684
