INSANE! Membrane UpperLeaflet>loPI:POPI:DPPI:PYPI:ERGO=80.0:5.0:3.0:2.0:10.0 LowerLeaflet>loPI:POPI:DPPI:PYPI:ERGO=80.0:5.0:3.0:2.0:10.0
49019
    1loPI    C1    1   9.725   0.294  10.189  0.0954  0.1702 -0.0557
    1loPI    C2    2   9.847   0.648  10.329 -0.0925  0.2984 -0.2102
    1loPI    C3    3   9.543   0.457  10.506 -0.0413  0.2498 -0.1740
    1loPI   PO4    4   9.637   0.332   9.928 -0.1381  0.0269 -0.2286
    1loPI   GL1    5   9.489   0.246   9.540 -0.0243 -0.4309 -0.2879
    1loPI   GL2    6   9.570   0.629   9.469  0.2371  0.0599 -0.0681
    1loPI   C1A    7   9.763   0.294   9.231 -0.0895 -0.0936  0.0182
    1loPI   C2A    8   9.710   0.369   8.767  0.2254 -0.3905 -0.2501
    1loPI   C3A    9   9.763   0.226   8.370 -0.1381 -0.2697  0.2844
    1loPI   C4A   10   9.602   0.167   7.872  0.0358 -0.0994  0.0412
    1loPI   C5A   11   9.533   0.138   7.430 -0.2895  0.2313  0.1501
    1loPI   C6A   12   9.474   0.269   6.978  0.2791 -0.2522  0.3820
    1loPI   C1B   13   9.491   0.846   9.030 -0.0622  0.3089 -0.1069
    1loPI   C2B   14   9.489   0.904   8.561 -0.0333  0.0741  0.2628
    1loPI   C3B   15   9.402   1.148   8.144  0.1783 -0.0477  0.1195
    1loPI   C4B   16   9.658   1.127   7.942 -0.0627 -0.0275  0.0433
    2loPI    C1   17  16.424   1.641  10.429  0.0963 -0.1132  0.0101
    2loPI    C2   18  16.252   1.428  10.721 -0.2253  0.0393 -0.0641
    2loPI    C3   19  16.251   1.828  10.737  0.1022  0.0437 -0.0805
    2loPI   PO4   20  16.283   1.415  10.143 -0.2525  0.0737 -0.1925
    2loPI   GL1   21  16.494   1.157   9.918  0.0187  0.1542  0.0041
    2loPI   GL2   22  16.521   1.429   9.705 -0.0395  0.3964  0.1691
    2loPI   C1A   23  16.439   0.918   9.578 -0.0306  0.1186  0.1429
    2loPI   C2A   24  16.177   0.894   9.107  0.2956  0.0841  0.0600
    2loPI   C3A   25  15.934   0.664   8.715  0.0160 -0.1127  0.1252
    2loPI   C4A   26  15.973   0.751   8.261  0.2116  0.0704  0.1770
    2loPI   C5A   27  15.848   0.767   7.826 -0.1457 -0.2192  0.0508
    2loPI   C6A   28  15.897   0.636   7.491  0.1398  0.0944  0.1554
    2loPI   C1B   29  16.677   1.520   9.340  0.1136 -0.0956 -0.0949
    2loPI   C2B   30  16.779   1.608   8.969  0.1652 -0.2293  0.2723
    2loPI   C3B   31  16.742   1.335   8.460 -0.0329 -0.1810  0.1248
    2loPI   C4B   32  16.983   1.295   8.127 -0.3355  0.0875  0.0570
    3loPI    C1   33  10.723   4.938  10.089  0.0620 -0.0170  0.1825
    3loPI    C2   34  10.429   4.895  10.357  0.1569  0.1785  0.3205
    3loPI    C3   35  10.804   4.798  10.455  0.1524  0.0072  0.1721
    3loPI   PO4   36  10.496   4.766   9.880 -0.1271 -0.2304  0.1775
    3loPI   GL1   37  10.660   4.655   9.531 -0.1825  0.1984  0.1460
    3loPI   GL2   38  10.649   4.388   9.313 -0.3904 -0.2696  0.1777
    3loPI   C1A   39  10.545   4.942   9.126 -0.1937  0.0790  0.0684
    3loPI   C2A   40  10.648   4.995   8.729 -0.0447 -0.1139 -0.2927
    3loPI   C3A   41  10.576   4.974   8.333 -0.1667 -0.2064 -0.0769
    3loPI   C4A   42  10.535   5.101   7.895 -0.0766  0.3296  0.2175
    3loPI   C5A   43  10.805   5.287   7.518  0.1088 -0.1902 -0.3395
    3loPI   C6A   44  11.024   5.360   7.069 -0.2511  0.5207  0.2672
    3loPI   C1B   45  10.661   4.521   8.885 -0.3701 -0.2784 -0.0223
    3loPI   C2B   46  10.631   4.497   8.456  0.0844 -0.1928  0.2383
    3loPI   C3B   47  10.725   4.564   8.059  0.1387 -0.2639  0.3251
    3loPI   C4B   48  10.568   4.605   7.691 -0.3140  0.1090  0.0202
    4loPI    C1   49   1.752  14.391   9.891 -0.0925 -0.0432  0.1665
    4loPI    C2   50   1.575  14.529  10.222 -0.2742  0.1128  0.0068
    4loPI    C3   51   1.443  14.643   9.862 -0.0253  0.0101 -0.1198
    4loPI   PO4   52   1.976  14.461   9.893 -0.1407  0.0086  0.2453
    4loPI   GL1   53   2.290  14.476   9.491 -0.1848  0.0771 -0.1993
    4loPI   GL2   54   2.055  14.258   9.378 -0.0925 -0.0556 -0.0463
    4loPI   C1A   55   2.245  14.710   9.145  0.0718  0.1736  0.2852
    4loPI   C2A   56   2.403  14.684   8.770 -0.0015 -0.4198 -0.0509
    4loPI   C3A   57   2.362  15.015   8.384  0.0803  0.1567 -0.3010
    4loPI   C4A   58   2.438  15.315   8.128 -0.0941 -0.0681  0.1718
    4loPI   C5A   59   2.111  15.407   7.821  0.1809  0.1011  0.3853
    4loPI   C6A   60   2.119  15.584   7.411  0.2098 -0.1580  0.0542
    4loPI   C1B   61   2.100  14.226   8.997  0.2294 -0.2914  0.0952
    4loPI   C2B   62   2.214  14.238   8.578 -0.3434  0.3724  0.0829
    4loPI   C3B   63   2.465  14.182   8.275 -0.1510 -0.2146  0.2444
    4loPI   C4B   64   2.633  14.260   7.853 -0.2831  0.0530 -0.1029
    5loPI    C1   65  13.765  10.901   9.875 -0.1589 -0.0945  0.1619
    5loPI    C2   66  13.409  11.040   9.756  0.0045  0.0958 -0.1161
    5loPI    C3   67  13.568  11.167  10.100 -0.0870  0.1955 -0.1098
    5loPI   PO4   68  13.808  10.719   9.687 -0.1643 -0.0446  0.0639
    5loPI   GL1   69  13.827  10.621   9.220 -0.0963 -0.0882 -0.1970
    5loPI   GL2   70  14.078  10.361   9.263  0.0925 -0.1886  0.1669
    5loPI   C1A   71  13.788  10.985   8.917 -0.2381  0.0633 -0.0567
    5loPI   C2A   72  13.795  11.118   8.480 -0.0008 -0.1018  0.0507
    5loPI   C3A   73  13.875  11.332   8.042  0.0175  0.0477  0.2172
    5loPI   C4A   74  14.073  11.602   7.602  0.1009 -0.2568 -0.0213
    5loPI   C5A   75  14.262  11.616   7.218 -0.1326  0.0531  0.1146
    5loPI   C6A   76  14.447  11.620   6.844  0.1146  0.1087  0.1059
    5loPI   C1B   77  14.140  10.504   8.815 -0.0481 -0.0921  0.0243
    5loPI   C2B   78  14.064  10.560   8.415 -0.1396  0.1010 -0.0741
    5loPI   C3B   79  13.714  10.355   8.096  0.2432  0.0191 -0.1068
    5loPI   C4B   80  13.492  10.436   7.768  0.1453 -0.2168  0.0448
    6loPI    C1   81  15.499   9.331   9.779 -0.1648  0.1952  0.1817
    6loPI    C2   82  15.318   9.066  10.017 -0.1253 -0.0608 -0.0680
    6loPI    C3   83  15.103   9.345   9.829 -0.1943 -0.0444  0.0347
    6loPI   PO4   84  15.706   9.175   9.704 -0.2568 -0.0263  0.3183
    6loPI   GL1   85  15.625   8.943   9.293 -0.0973 -0.0442 -0.0223
    6loPI   GL2   86  15.384   8.860   9.135 -0.1105  0.1222  0.0981
    6loPI   C1A   87  15.880   9.103   9.020  0.1877 -0.2937  0.1466
    6loPI   C2A   88  15.801   9.287   8.629  0.4252  0.2506  0.1675
    6loPI   C3A   89  15.704   9.311   8.210 -0.3821  0.1311  0.0744
    6loPI   C4A   90  15.628   9.179   7.805  0.0871 -0.0141  0.0093
    6loPI   C5A   91  15.620   9.084   7.371 -0.3472 -0.1576  0.2272
    6loPI   C6A   92  15.475   8.789   6.985  0.0915 -0.0166 -0.2485
    6loPI   C1B   93  15.430   8.880   8.679 -0.1183 -0.2435 -0.2315
    6loPI   C2B   94  15.377   8.938   8.228 -0.2691  0.0791  0.0995
    6loPI   C3B   95  15.440   8.750   7.744  0.1230  0.1705  0.0486
    6loPI   C4B   96  15.327   8.512   7.377  0.0123 -0.5028  0.0989
    7loPI    C1   97   9.500  18.372  10.117  0.1054 -0.0163 -0.0514
    7loPI    C2   98   9.284  18.072  10.269  0.0149  0.0410 -0.0654
    7loPI    C3   99   9.593  18.221  10.475  0.1877 -0.1961 -0.1470
    7loPI   PO4  100   9.366  18.535   9.929 -0.0296 -0.2432  0.0090
    7loPI   GL1  101   9.246  18.437   9.545 -0.1128 -0.1163 -0.1142
    7loPI   GL2  102   8.963  18.574   9.622 -0.0305 -0.2327 -0.2943
    7loPI   C1A  103   9.401  18.573   9.106 -0.1404  0.1896 -0.2599
    7loPI   C2A  104   9.593  18.686   8.817  0.0410  0.1349 -0.2602
    7loPI   C3A  105   9.635  18.527   8.413 -0.0863  0.1536 -0.0060
    7loPI   C4A  106   9.693  18.670   7.957  0.2714 -0.0652  0.1670
    7loPI   C5A  107   9.770  18.951   7.631  0.1587 -0.2281  0.1828
    7loPI   C6A  108  10.045  19.041   7.435 -0.0062  0.0463 -0.0690
    7loPI   C1B  109   8.983  18.852   9.260 -0.1615 -0.1740 -0.0214
    7loPI   C2B  110   8.878  19.187   9.213  0.2944  0.1317  0.1078
    7loPI   C3B  111   8.760  19.410   8.813 -0.1272  0.2898  0.1309
    7loPI   C4B  112   8.687  19.692   8.441 -0.3420 -0.1000  0.3032
    8loPI    C1  113  15.447   7.407   9.894  0.0359 -0.2580 -0.2149
    8loPI    C2  114  15.544   7.163  10.196 -0.1892 -0.2753 -0.1550
    8loPI    C3  115  15.277   7.455  10.253  0.0614 -0.0270 -0.2326
    8loPI   PO4  116  15.286   7.209   9.679  0.1234 -0.0229 -0.0201
    8loPI   GL1  117  15.435   6.948   9.330 -0.0626  0.0543  0.3234
    8loPI   GL2  118  15.756   6.913   9.278  0.0819  0.1392 -0.3936
    8loPI   C1A  119  15.325   7.040   8.894 -0.0023 -0.1830 -0.1675
    8loPI   C2A  120  15.053   7.298   8.650 -0.0053 -0.1854 -0.3779
    8loPI   C3A  121  15.230   7.614   8.512  0.0990  0.0389 -0.0912
    8loPI   C4A  122  15.319   7.622   8.094  0.0955 -0.0813  0.3705
    8loPI   C5A  123  15.654   7.333   8.018 -0.2543 -0.0464 -0.0481
    8loPI   C6A  124  15.854   7.173   7.686 -0.0644  0.1020  0.0570
    8loPI   C1B  125  15.884   7.118   8.782 -0.0433 -0.1036  0.1426
    8loPI   C2B  126  16.019   7.343   8.398 -0.2423 -0.0411  0.0357
    8loPI   C3B  127  16.147   7.431   8.059 -0.0167  0.2993  0.4260
    8loPI   C4B  128  16.281   7.642   7.642  0.0173  0.0654 -0.1328
    9loPI    C1  129   7.953   5.247  10.063  0.0235  0.0477  0.0444
    9loPI    C2  130   7.811   4.933  10.266  0.1232 -0.0636 -0.0560
    9loPI    C3  131   7.865   5.283  10.451  0.0762 -0.1243  0.0733
    9loPI   PO4  132   7.893   5.165   9.790  0.1568  0.0310 -0.1799
    9loPI   GL1  133   7.800   5.152   9.333 -0.3320 -0.0272  0.0594
    9loPI   GL2  134   8.032   5.204   9.036  0.0151 -0.1580  0.2903
    9loPI   C1A  135   7.699   5.554   9.132 -0.2203  0.1960 -0.0552
    9loPI   C2A  136   7.214   5.668   9.008  0.0192  0.2630 -0.2770
    9loPI   C3A  137   7.186   5.750   8.583 -0.0399  0.2129 -0.0453
    9loPI   C4A  138   7.312   5.867   8.223  0.3066  0.1396  0.2422
    9loPI   C5A  139   7.340   5.909   7.794 -0.0045 -0.0043 -0.1399
    9loPI   C6A  140   7.720   5.917   7.485  0.0062 -0.2497  0.2202
    9loPI   C1B  141   7.903   5.291   8.583 -0.2284 -0.1974 -0.3522
    9loPI   C2B  142   7.732   5.545   8.376  0.3230 -0.1157  0.1705
    9loPI   C3B  143   7.642   5.869   8.662 -0.2722 -0.0965  0.0155
    9loPI   C4B  144   7.552   6.191   8.986  0.2165 -0.4434 -0.0382
   10loPI    C1  145  17.545  16.160  10.228 -0.1883  0.2489  0.2088
   10loPI    C2  146  17.235  16.094  10.473 -0.0101  0.0810  0.3928
   10loPI    C3  147  17.609  16.059  10.610  0.0920  0.1476  0.1373
   10loPI   PO4  148  17.364  16.070   9.934 -0.1438  0.0477 -0.0496
   10loPI   GL1  149  17.495  16.016   9.465  0.3045 -0.2231 -0.1097
   10loPI   GL2  150  17.559  16.243   9.481  0.0321  0.1689 -0.2629
   10loPI   C1A  151  17.643  15.822   9.112  0.0723  0.0062  0.1897
   10loPI   C2A  152  17.886  15.609   8.686  0.0403  0.3584  0.1215
   10loPI   C3A  153  17.994  15.580   8.183 -0.5102 -0.1977 -0.0489
   10loPI   C4A  154  18.154  15.495   7.804 -0.2638  0.1602 -0.1032
   10loPI   C5A  155  18.155  15.402   7.444  0.1333  0.1425  0.2587
   10loPI   C6A  156  18.196  15.088   7.142 -0.1019 -0.2071 -0.0658
   10loPI   C1B  157  17.619  16.306   9.000 -0.3013 -0.1192 -0.1995
   10loPI   C2B  158  17.667  16.138   8.641  0.0658 -0.2604 -0.0848
   10loPI   C3B  159  17.821  16.013   8.323  0.4632 -0.0259 -0.1337
   10loPI   C4B  160  17.923  15.949   7.782  0.3601 -0.2174  0.0481
   11loPI    C1  161  18.841  16.243  10.109  0.0975 -0.1712  0.0972
   11loPI    C2  162  18.545  16.372  10.345  0.0904  0.0476 -0.0285
   11loPI    C3  163  18.725  16.023  10.422 -0.0255  0.0363  0.1994
   11loPI   PO4  164  18.953  16.520  10.024 -0.1413  0.1800  0.2548
   11loPI   GL1  165  18.960  16.800   9.642  0.2495  0.1165 -0.0326
   11loPI   GL2  166  18.727  16.621   9.559  0.2699  0.1566  0.0107
   11loPI   C1A  167  19.090  16.830   9.197  0.0045  0.0198  0.0574
   11loPI   C2A  168  19.028  16.970   8.861  0.2701  0.1571 -0.2183
   11loPI   C3A  169  19.010  17.195   8.491  0.2802  0.0988  0.1277
   11loPI   C4A  170  18.842  17.443   8.259 -0.0213 -0.1271  0.2360
   11loPI   C5A  171  18.743  17.438   7.886  0.0126  0.3555 -0.2730
   11loPI   C6A  172  18.663  17.404   7.481  0.3633  0.0308 -0.2126
   11loPI   C1B  173  18.476  16.578   9.132 -0.1748 -0.2535 -0.0947
   11loPI   C2B  174  18.501  16.772   8.788 -0.0971 -0.0643 -0.0395
   11loPI   C3B  175  18.307  17.021   8.532  0.0454 -0.0655  0.0273
   11loPI   C4B  176  18.382  17.278   8.170 -0.2710  0.2935 -0.0871
   12loPI    C1  177  14.728  13.339   9.992 -0.1829  0.1957  0.1712
   12loPI    C2  178  14.805  13.190  10.355 -0.1962  0.1970  0.1744
   12loPI    C3  179  14.494  13.436  10.301 -0.2690  0.0974  0.1372
   12loPI   PO4  180  14.877  13.483   9.921  0.2696  0.0645 -0.2206
   12loPI   GL1  181  14.902  13.744   9.593 -0.1461 -0.0511  0.0215
   12loPI   GL2  182  14.633  13.487   9.480 -0.1995  0.1215 -0.2334
   12loPI   C1A  183  15.200  13.971   9.474  0.1030 -0.1737  0.2750
   12loPI   C2A  184  15.556  13.999   9.334  0.1505  0.0904  0.1542
   12loPI   C3A  185  15.894  14.140   8.958 -0.2565  0.2677 -0.1125
   12loPI   C4A  186  16.043  14.464   8.640  0.0167 -0.3926  0.1448
   12loPI   C5A  187  16.321  14.746   8.506 -0.2399  0.0643 -0.2551
   12loPI   C6A  188  16.759  14.891   8.427  0.1861  0.5027  0.0012
   12loPI   C1B  189  14.822  13.399   9.148  0.1092  0.0203 -0.2555
   12loPI   C2B  190  14.657  13.132   8.836 -0.0002 -0.1202  0.0326
   12loPI   C3B  191  14.521  13.118   8.399 -0.0148  0.0397  0.0091
   12loPI   C4B  192  14.289  13.098   8.043  0.1014  0.1621 -0.0507
   13loPI    C1  193  15.313  12.237   9.930  0.0404 -0.0794 -0.4310
   13loPI    C2  194  15.374  12.204  10.324  0.0041 -0.1588 -0.4321
   13loPI    C3  195  15.059  12.409  10.188  0.0047 -0.1492 -0.4193
   13loPI   PO4  196  15.610  12.281   9.831  0.1182 -0.2075  0.2109
   13loPI   GL1  197  15.708  12.400   9.382 -0.0594  0.1587 -0.1138
   13loPI   GL2  198  15.379  12.574   9.310 -0.1019 -0.1135  0.0620
   13loPI   C1A  199  16.064  12.212   9.027  0.0844 -0.0550 -0.1058
   13loPI   C2A  200  16.289  12.257   8.745  0.0104 -0.1728  0.1243
   13loPI   C3A  201  16.362  12.394   8.292  0.0600 -0.2145  0.2728
   13loPI   C4A  202  16.273  12.414   7.874  0.0588  0.3554 -0.0475
   13loPI   C5A  203  16.474  12.806   7.673  0.3991 -0.1489  0.2089
   13loPI   C6A  204  16.895  12.921   7.843  0.2196  0.1290 -0.0082
   13loPI   C1B  205  15.485  12.473   8.927  0.1272  0.0217 -0.1349
   13loPI   C2B  206  15.452  12.532   8.519  0.0689  0.1127 -0.0102
   13loPI   C3B  207  15.496  12.593   8.062 -0.2029 -0.0791  0.1068
   13loPI   C4B  208  15.354  12.690   7.676 -0.0706 -0.0339 -0.0176
   14loPI    C1  209  13.301   8.330   9.501 -0.1228  0.2145 -0.1137
   14loPI    C2  210  13.349   7.959   9.643 -0.2158  0.1990 -0.1221
   14loPI    C3  211  13.503   8.271   9.841 -0.2791  0.1705 -0.0277
   14loPI   PO4  212  13.344   8.334   9.193 -0.0180 -0.0622  0.0074
   14loPI   GL1  213  13.099   8.210   8.818 -0.0717 -0.0061 -0.0875
   14loPI   GL2  214  12.791   8.158   8.872  0.2098  0.2238 -0.0017
   14loPI   C1A  215  13.346   8.006   8.416 -0.3744 -0.2917 -0.0368
   14loPI   C2A  216  13.373   8.341   8.078  0.0684  0.1089 -0.3404
   14loPI   C3A  217  13.430   8.333   7.686 -0.0462 -0.1430 -0.2164
   14loPI   C4A  218  13.612   8.539   7.373 -0.1798 -0.2688 -0.1754
   14loPI   C5A  219  14.035   8.593   7.110 -0.0693 -0.2614 -0.3765
   14loPI   C6A  220  14.083   9.064   6.817 -0.0971 -0.1836 -0.1579
   14loPI   C1B  221  12.816   8.062   8.435 -0.1175 -0.2416 -0.1418
   14loPI   C2B  222  13.004   8.036   8.021 -0.1406 -0.0209  0.0733
   14loPI   C3B  223  13.045   8.010   7.499  0.1605 -0.2060 -0.3098
   14loPI   C4B  224  13.221   7.811   7.086  0.0005 -0.0490  0.0098
   15loPI    C1  225  10.533  16.765  10.320  0.0633 -0.1583  0.1118
   15loPI    C2  226  10.902  16.917  10.346  0.0472 -0.0624 -0.1847
   15loPI    C3  227  10.595  17.108  10.516  0.1324 -0.1425  0.0627
   15loPI   PO4  228  10.580  16.599  10.104  0.0941  0.1187 -0.2780
   15loPI   GL1  229  10.584  16.429   9.738 -0.1609  0.0116 -0.2229
   15loPI   GL2  230  10.305  16.723   9.613  0.1629  0.0882  0.1633
   15loPI   C1A  231  10.658  16.674   9.302  0.1242 -0.1981  0.0909
   15loPI   C2A  232  10.737  16.912   8.896 -0.2174 -0.1776 -0.3010
   15loPI   C3A  233  10.870  16.898   8.436  0.0805  0.1658  0.4555
   15loPI   C4A  234  10.915  16.967   8.052  0.1534 -0.1386  0.1545
   15loPI   C5A  235  11.163  17.261   7.706 -0.0372 -0.2838  0.0293
   15loPI   C6A  236  11.585  17.374   7.471 -0.1351 -0.1513 -0.3430
   15loPI   C1B  237  10.222  16.965   9.228  0.0145 -0.0229 -0.2017
   15loPI   C2B  238  10.219  17.076   8.889 -0.1215 -0.0699  0.2052
   15loPI   C3B  239  10.446  17.245   8.579  0.4760  0.0093 -0.0051
   15loPI   C4B  240  10.503  17.584   8.303 -0.3621  0.1731 -0.1574
   16loPI    C1  241   4.448  15.424  10.229  0.2595  0.3985 -0.1347
   16loPI    C2  242   4.180  15.518  10.510  0.1913  0.0779 -0.0886
   16loPI    C3  243   4.522  15.338  10.612  0.2857  0.2029 -0.1824
   16loPI   PO4  244   4.485  15.562  10.031  0.2632 -0.3390 -0.0700
   16loPI   GL1  245   4.318  15.597   9.633 -0.0504 -0.1592  0.0755
   16loPI   GL2  246   4.298  15.922   9.729  0.1556 -0.0505  0.1831
   16loPI   C1A  247   4.558  15.640   9.230  0.0113  0.0925 -0.2365
   16loPI   C2A  248   4.658  15.879   8.862 -0.1336 -0.2937 -0.2599
   16loPI   C3A  249   4.717  15.695   8.464  0.1653 -0.2194  0.0336
   16loPI   C4A  250   4.600  15.537   8.173  0.1627 -0.0449 -0.1884
   16loPI   C5A  251   4.142  15.506   7.983 -0.0851  0.2218 -0.0896
   16loPI   C6A  252   3.743  15.322   7.726 -0.3038 -0.1896  0.2602
   16loPI   C1B  253   4.318  16.143   9.315 -0.1054  0.0488 -0.0910
   16loPI   C2B  254   4.251  16.276   8.825 -0.1411  0.0403 -0.1262
   16loPI   C3B  255   4.434  16.627   8.364 -0.2421 -0.0142 -0.1206
   16loPI   C4B  256   4.373  16.764   7.916  0.2975  0.1145  0.0635
   17loPI    C1  257  17.321   2.639  10.260  0.3106  0.0440  0.3179
   17loPI    C2  258  17.265   3.034  10.277  0.0510  0.0255 -0.0135
   17loPI    C3  259  16.984   2.787  10.417  0.0364 -0.0455 -0.1658
   17loPI   PO4  260  17.325   2.611  10.012 -0.0766  0.1753  0.2340
   17loPI   GL1  261  17.325   2.759   9.575  0.4049 -0.0999 -0.0512
   17loPI   GL2  262  17.281   2.471   9.537  0.2843  0.0141  0.0787
   17loPI   C1A  263  17.270   2.907   9.175  0.1166  0.1340 -0.0271
   17loPI   C2A  264  17.253   2.967   8.808 -0.0610 -0.0628 -0.1902
   17loPI   C3A  265  17.271   3.148   8.403 -0.0922  0.0456 -0.2325
   17loPI   C4A  266  17.249   3.193   8.015 -0.0371 -0.0822 -0.1452
   17loPI   C5A  267  17.531   3.195   7.686  0.0055 -0.1384  0.2213
   17loPI   C6A  268  17.579   3.353   7.300  0.1418 -0.0414 -0.1766
   17loPI   C1B  269  16.997   2.218   9.187  0.1438  0.0935 -0.0434
   17loPI   C2B  270  16.980   2.066   8.784 -0.3742 -0.2639 -0.0707
   17loPI   C3B  271  16.972   1.777   8.450  0.1180  0.0586  0.1729
   17loPI   C4B  272  16.869   1.757   8.059 -0.1276 -0.0645 -0.0032
   18loPI    C1  273   8.109  15.199  10.275  0.0608  0.0490  0.1122
   18loPI    C2  274   7.954  14.871  10.445  0.1867  0.0960  0.3222
   18loPI    C3  275   7.912  15.227  10.622 -0.2110  0.2461 -0.0542
   18loPI   PO4  276   7.978  15.162  10.026 -0.0646  0.1376 -0.2020
   18loPI   GL1  277   7.939  15.470   9.671  0.0068 -0.0062  0.3146
   18loPI   GL2  278   7.936  15.147   9.523  0.1658 -0.0657  0.3625
   18loPI   C1A  279   7.990  15.675   9.248 -0.3331  0.1955 -0.0908
   18loPI   C2A  280   8.032  15.685   8.911  0.2153 -0.1071 -0.1711
   18loPI   C3A  281   8.226  15.787   8.548  0.4062 -0.0139 -0.0280
   18loPI   C4A  282   8.205  16.021   8.127 -0.2523 -0.2537  0.0510
   18loPI   C5A  283   7.894  16.289   7.884 -0.1615 -0.2175  0.2196
   18loPI   C6A  284   7.969  16.552   7.546 -0.0660 -0.2115  0.0393
   18loPI   C1B  285   8.378  15.398   9.369 -0.0674  0.3364 -0.3069
   18loPI   C2B  286   8.452  15.867   9.136 -0.2586  0.3140  0.2259
   18loPI   C3B  287   8.585  16.106   8.788  0.1923  0.0378  0.2504
   18loPI   C4B  288   8.685  16.064   8.439  0.1116 -0.1693  0.3204
   19loPI    C1  289   3.264  15.347  10.339 -0.0302  0.1614 -0.1065
   19loPI    C2  290   3.059  15.685  10.276 -0.0710  0.1649  0.0429
   19loPI    C3  291   3.187  15.594  10.644 -0.1101 -0.0109  0.0140
   19loPI   PO4  292   3.405  15.314  10.045  0.2126 -0.1546  0.0630
   19loPI   GL1  293   3.711  15.492   9.657  0.1168  0.0129  0.0501
   19loPI   GL2  294   3.801  15.683   9.754  0.3005  0.0600  0.0810
   19loPI   C1A  295   3.566  15.432   9.206 -0.1794 -0.1318  0.0441
   19loPI   C2A  296   3.353  15.442   8.792  0.0595  0.2455  0.0082
   19loPI   C3A  297   3.226  15.460   8.373  0.1013  0.2762 -0.0716
   19loPI   C4A  298   3.235  15.434   8.008  0.1559  0.0624 -0.3287
   19loPI   C5A  299   3.306  15.190   7.651  0.2022 -0.4202 -0.1949
   19loPI   C6A  300   3.242  15.090   7.209  0.1140 -0.0262  0.1696
   19loPI   C1B  301   3.940  15.809   9.413  0.1590 -0.2706  0.0441
   19loPI   C2B  302   4.029  15.816   9.020  0.1130 -0.0952 -0.2431
   19loPI   C3B  303   4.222  15.834   8.668 -0.0438  0.1165 -0.3880
   19loPI   C4B  304   4.308  16.008   8.338  0.1566 -0.0025 -0.0315
   20loPI    C1  305   1.161   4.649  10.488  0.1440  0.3212 -0.0302
   20loPI    C2  306   0.932   4.536  10.795  0.2059  0.0011 -0.0983
   20loPI    C3  307   1.325   4.590  10.848  0.2074  0.0005 -0.1087
   20loPI   PO4  308   1.032   4.512  10.234 -0.3039 -0.6967 -0.2265
   20loPI   GL1  309   1.065   4.558   9.719 -0.0349  0.1551 -0.0971
   20loPI   GL2  310   0.753   4.633   9.556 -0.0642  0.2960  0.0371
   20loPI   C1A  311   1.101   4.375   9.253  0.2667  0.3233  0.3365
   20loPI   C2A  312   0.951   4.429   8.790 -0.3330  0.1030 -0.0679
   20loPI   C3A  313   1.110   4.504   8.363  0.0031 -0.1958  0.1145
   20loPI   C4A  314   1.086   4.393   7.978  0.2304 -0.3570  0.0511
   20loPI   C5A  315   1.151   4.388   7.540  0.0781  0.2701  0.0265
   20loPI   C6A  316   0.934   4.511   7.206  0.1274 -0.3375  0.3809
   20loPI   C1B  317   0.560   4.618   9.195  0.0104  0.4035 -0.0388
   20loPI   C2B  318   0.441   4.549   8.844  0.0497  0.2237 -0.2043
   20loPI   C3B  319   0.196   4.306   8.565 -0.0723  0.0410 -0.0160
   20loPI   C4B  320   0.181   4.200   8.114 -0.1617  0.1849  0.0998
   21loPI    C1  321   6.320  11.587   9.989 -0.2463  0.0628 -0.3902
   21loPI    C2  322   6.004  11.718  10.196  0.1125  0.2510  0.0560
   21loPI    C3  323   6.315  11.961  10.131  0.2373  0.0184 -0.2372
   21loPI   PO4  324   6.250  11.430   9.745  0.1322 -0.4543  0.1732
   21loPI   GL1  325   6.390  11.298   9.321  0.1510  0.0591 -0.1175
   21loPI   GL2  326   6.342  11.036   9.196 -0.0558 -0.0158  0.1884
   21loPI   C1A  327   6.289  11.419   8.875 -0.2731  0.2020  0.1400
   21loPI   C2A  328   6.423  11.312   8.445 -0.4753  0.1164  0.0558
   21loPI   C3A  329   6.495  11.289   8.051 -0.2229  0.0289 -0.0842
   21loPI   C4A  330   6.850  11.447   7.808  0.1588 -0.1025 -0.0954
   21loPI   C5A  331   7.254  11.577   7.784  0.1946  0.1855  0.0822
   21loPI   C6A  332   7.679  11.359   7.907 -0.3104  0.3717  0.1208
   21loPI   C1B  333   6.446  10.926   8.716 -0.0683 -0.2430 -0.3133
   21loPI   C2B  334   6.494  10.829   8.187 -0.0232 -0.2113 -0.0681
   21loPI   C3B  335   6.402  10.806   7.696  0.2417  0.2779  0.1585
   21loPI   C4B  336   6.657  11.084   7.436  0.2060 -0.3291 -0.0963
   22loPI    C1  337  17.080  16.755   9.965 -0.2801 -0.0288 -0.0673
   22loPI    C2  338  17.262  16.586   9.652 -0.2955 -0.2436  0.0375
   22loPI    C3  339  17.442  16.590  10.009 -0.0987  0.3612 -0.0565
   22loPI   PO4  340  16.985  16.937   9.844 -0.2695  0.1471 -0.0347
   22loPI   GL1  341  16.825  17.184   9.643 -0.0782  0.0173  0.1337
   22loPI   GL2  342  16.554  17.161   9.366 -0.2974  0.1796  0.0895
   22loPI   C1A  343  17.123  17.207   9.264 -0.2499  0.0071 -0.1118
   22loPI   C2A  344  17.041  17.103   8.857 -0.1145  0.1093 -0.0691
   22loPI   C3A  345  17.233  16.981   8.410  0.3418  0.1688  0.0582
   22loPI   C4A  346  17.448  16.969   7.996  0.0307  0.5336 -0.1574
   22loPI   C5A  347  17.506  16.945   7.601  0.2557 -0.0353 -0.0176
   22loPI   C6A  348  17.823  16.749   7.426 -0.1303  0.2037  0.1121
   22loPI   C1B  349  16.354  16.859   9.114  0.1060  0.5458 -0.0771
   22loPI   C2B  350  16.129  16.842   8.861  0.1908  0.2653  0.2417
   22loPI   C3B  351  15.964  16.602   8.382  0.4187 -0.1457 -0.0437
   22loPI   C4B  352  15.773  16.476   8.061  0.0723 -0.1409  0.3384
   23loPI    C1  353   2.617  11.030  10.475  0.0168  0.1130  0.2507
   23loPI    C2  354   2.561  11.397  10.622 -0.1297  0.1438  0.1204
   23loPI    C3  355   2.336  11.094  10.752 -0.1037  0.1267  0.1257
   23loPI   PO4  356   2.684  11.075  10.188 -0.1596  0.3569  0.0651
   23loPI   GL1  357   2.629  11.150   9.850  0.0434  0.0086  0.2039
   23loPI   GL2  358   2.277  11.196   9.656 -0.2031 -0.0754 -0.3199
   23loPI   C1A  359   2.693  11.172   9.420  0.1367 -0.0358 -0.0124
   23loPI   C2A  360   2.563  11.143   9.018 -0.0751  0.2467 -0.0369
   23loPI   C3A  361   2.675  11.271   8.538  0.0421 -0.1731  0.1197
   23loPI   C4A  362   2.753  11.185   8.173  0.1095  0.1487  0.1540
   23loPI   C5A  363   2.723  11.166   7.728  0.0156  0.1647  0.0760
   23loPI   C6A  364   2.993  11.332   7.287 -0.2225 -0.0513 -0.0370
   23loPI   C1B  365   2.183  11.485   9.317 -0.0814 -0.2765  0.0229
   23loPI   C2B  366   2.265  11.573   8.978  0.1992  0.5501 -0.1351
   23loPI   C3B  367   2.123  11.612   8.624  0.0035 -0.1842 -0.1561
   23loPI   C4B  368   1.892  11.519   8.412  0.1664  0.1113  0.2207
   24loPI    C1  369   3.362   3.907  10.010  0.1824  0.1488 -0.0048
   24loPI    C2  370   3.450   3.550   9.853 -0.1296  0.0385  0.0655
   24loPI    C3  371   3.742   3.781   9.998  0.0672 -0.2206  0.0904
   24loPI   PO4  372   3.130   3.944   9.759 -0.0589 -0.3025  0.0845
   24loPI   GL1  373   3.329   3.996   9.228 -0.3170 -0.0266  0.1911
   24loPI   GL2  374   3.735   3.975   9.164 -0.3266  0.0625  0.0266
   24loPI   C1A  375   3.156   3.728   8.997 -0.2944 -0.2746 -0.1442
   24loPI   C2A  376   2.774   3.467   8.743  0.0723  0.0265 -0.2309
   24loPI   C3A  377   2.681   3.383   8.417  0.0116  0.1125  0.0657
   24loPI   C4A  378   2.630   3.364   7.982 -0.0043 -0.2383 -0.1393
   24loPI   C5A  379   2.626   3.030   7.651  0.3487  0.1833 -0.0658
   24loPI   C6A  380   2.352   2.665   7.684 -0.0652  0.0342 -0.2508
   24loPI   C1B  381   3.818   4.053   8.702 -0.1189 -0.0340  0.0528
   24loPI   C2B  382   3.686   3.913   8.320  0.0691  0.1279  0.0728
   24loPI   C3B  383   3.745   3.772   7.865 -0.0262 -0.0112 -0.1005
   24loPI   C4B  384   3.505   3.546   7.478  0.2393  0.1525  0.1879
   25loPI    C1  385  17.235   1.681  10.282 -0.0847  0.0507 -0.0373
   25loPI    C2  386  17.147   1.316  10.422 -0.0871  0.1713  0.2851
   25loPI    C3  387  16.977   1.640  10.585 -0.2402  0.3084 -0.1314
   25loPI   PO4  388  17.303   1.736   9.960  0.2025 -0.2123  0.3354
   25loPI   GL1  389  17.548   1.743   9.649  0.3669  0.1305  0.0606
   25loPI   GL2  390  17.723   1.596   9.358 -0.0511  0.0443  0.1274
   25loPI   C1A  391  17.250   1.699   9.275  0.0279  0.1479  0.1652
   25loPI   C2A  392  17.262   1.464   8.860 -0.0890 -0.3570  0.1929
   25loPI   C3A  393  17.131   1.063   8.717  0.2411 -0.0813  0.1131
   25loPI   C4A  394  16.864   0.839   8.505  0.0436  0.0996 -0.1234
   25loPI   C5A  395  16.453   0.949   8.247  0.2793 -0.2693  0.0424
   25loPI   C6A  396  16.210   1.226   8.047 -0.4020  0.3292 -0.1113
   25loPI   C1B  397  17.797   1.430   8.916  0.2274 -0.0266  0.1240
   25loPI   C2B  398  17.719   1.518   8.527  0.2249  0.3007 -0.3958
   25loPI   C3B  399  17.959   1.709   8.237  0.1954  0.1287 -0.0081
   25loPI   C4B  400  17.847   1.829   7.872  0.0064  0.1565 -0.0245
   26loPI    C1  401  13.855   7.960   9.423 -0.0431 -0.1007  0.0651
   26loPI    C2  402  14.229   8.088   9.482  0.0156 -0.2362 -0.0080
   26loPI    C3  403  13.989   8.024   9.795 -0.0083  0.0293  0.0307
   26loPI   PO4  404  13.766   8.098   9.230 -0.0251  0.2697 -0.0400
   26loPI   GL1  405  13.636   8.200   8.776 -0.3794  0.2579  0.2463
   26loPI   GL2  406  13.800   7.779   8.773 -0.1413 -0.1490  0.1698
   26loPI   C1A  407  13.412   8.581   8.500 -0.0232 -0.2143 -0.2443
   26loPI   C2A  408  13.325   8.860   8.094  0.1050  0.0194  0.2225
   26loPI   C3A  409  13.513   8.837   7.770  0.2760 -0.2437 -0.0856
   26loPI   C4A  410  13.825   9.070   7.430 -0.1398 -0.4313 -0.3980
   26loPI   C5A  411  14.313   9.260   7.258 -0.0302  0.0882 -0.0469
   26loPI   C6A  412  14.493   9.596   7.292 -0.0515 -0.0393 -0.0135
   26loPI   C1B  413  14.097   7.678   8.342  0.1004 -0.0340  0.0325
   26loPI   C2B  414  14.354   7.607   7.959  0.2624 -0.1685 -0.1585
   26loPI   C3B  415  14.581   7.290   7.734 -0.1386 -0.0822  0.2652
   26loPI   C4B  416  14.661   7.113   7.314 -0.0287  0.2313  0.2421
   27loPI    C1  417   5.548  12.428   9.994 -0.0385  0.1444  0.1330
   27loPI    C2  418   5.268  12.163  10.102 -0.0421  0.0879 -0.0129
   27loPI    C3  419   5.649  12.046  10.062 -0.0061  0.1530  0.1335
   27loPI   PO4  420   5.379  12.536   9.747 -0.2587 -0.1301  0.0337
   27loPI   GL1  421   5.172  12.622   9.399  0.0162  0.1563  0.0655
   27loPI   GL2  422   5.468  12.567   9.215 -0.0022  0.3050  0.2159
   27loPI   C1A  423   5.033  12.632   9.000 -0.3778 -0.2513 -0.0105
   27loPI   C2A  424   4.940  12.560   8.624  0.0051 -0.0054  0.1665
   27loPI   C3A  425   4.722  12.579   8.278  0.2776  0.2455  0.0149
   27loPI   C4A  426   4.648  12.505   7.727  0.2989 -0.1752 -0.0133
   27loPI   C5A  427   4.946  12.693   7.381  0.4483  0.1923 -0.3869
   27loPI   C6A  428   5.279  12.884   7.121 -0.0679  0.5106 -0.0342
   27loPI   C1B  429   5.678  12.444   8.871  0.0357 -0.1702 -0.1238
   27loPI   C2B  430   5.792  12.150   8.591 -0.0117 -0.1302 -0.1067
   27loPI   C3B  431   5.755  12.078   8.235  0.1250 -0.3710 -0.1240
   27loPI   C4B  432   5.658  12.378   7.958 -0.1126 -0.2169 -0.3648
   28loPI    C1  433  10.856   3.885  10.062  0.0688 -0.0579 -0.0565
   28loPI    C2  434  10.628   3.956  10.383 -0.2159  0.1223 -0.2928
   28loPI    C3  435  11.022   3.899  10.426 -0.2726 -0.0052  0.1015
   28loPI   PO4  436  10.727   3.985   9.920  0.0150  0.0275  0.1510
   28loPI   GL1  437  10.704   3.883   9.538 -0.2325  0.0201  0.3060
   28loPI   GL2  438  10.981   3.930   9.275  0.6730  0.1473  0.0349
   28loPI   C1A  439  10.398   3.780   9.215  0.0364  0.1538  0.1663
   28loPI   C2A  440  10.332   3.508   8.793 -0.1478  0.2022  0.0957
   28loPI   C3A  441  10.243   3.364   8.420  0.0606  0.0507 -0.1305
   28loPI   C4A  442  10.471   3.255   8.022  0.1272  0.0694  0.0663
   28loPI   C5A  443  10.293   2.975   7.753 -0.0485 -0.2695 -0.2292
   28loPI   C6A  444  10.070   2.819   7.417 -0.1095 -0.2179  0.1671
   28loPI   C1B  445  10.790   4.060   8.936  0.2095 -0.1483 -0.0280
   28loPI   C2B  446  10.744   3.770   8.632 -0.0111  0.3158 -0.1401
   28loPI   C3B  447  10.717   3.652   8.313 -0.1803 -0.2611 -0.1014
   28loPI   C4B  448  10.892   3.610   7.962  0.0210  0.0383  0.1007
   29loPI    C1  449   1.829   5.503  10.096  0.0305 -0.3161 -0.0183
   29loPI    C2  450   1.454   5.439   9.972 -0.0178 -0.1490  0.0390
   29loPI    C3  451   1.606   5.221  10.271 -0.0541 -0.2465 -0.0134
   29loPI   PO4  452   2.031   5.541   9.903  0.2609  0.0776  0.0166
   29loPI   GL1  453   2.128   5.743   9.533 -0.1126 -0.1949 -0.0302
   29loPI   GL2  454   2.345   5.996   9.435 -0.3678 -0.2014  0.0778
   29loPI   C1A  455   2.180   5.654   9.078  0.1375 -0.0529 -0.5161
   29loPI   C2A  456   2.049   5.649   8.660 -0.0829  0.1714  0.3071
   29loPI   C3A  457   2.053   5.821   8.226 -0.1675 -0.0687  0.3870
   29loPI   C4A  458   1.868   6.064   7.952  0.2443 -0.0106 -0.0126
   29loPI   C5A  459   1.956   6.204   7.469 -0.3550  0.0475 -0.2734
   29loPI   C6A  460   2.145   6.374   7.210  0.4356  0.0665  0.3036
   29loPI   C1B  461   2.302   6.205   8.947 -0.0905 -0.3576  0.1911
   29loPI   C2B  462   2.186   6.204   8.548  0.1052  0.2262 -0.0033
   29loPI   C3B  463   2.228   6.358   8.141  0.0899  0.0015 -0.0727
   29loPI   C4B  464   1.855   6.619   7.882 -0.0136 -0.3289 -0.0369
   30loPI    C1  465   0.173   8.237   9.878  0.1218  0.0426  0.1797
   30loPI    C2  466  -0.004   8.478  10.144  0.0517  0.2769 -0.0740
   30loPI    C3  467  -0.116   8.095  10.115 -0.0504  0.2903  0.1224
   30loPI   PO4  468   0.151   8.491   9.602  0.2552  0.4006 -0.1317
   30loPI   GL1  469  -0.094   8.354   9.244 -0.0225 -0.1044  0.1201
   30loPI   GL2  470  -0.400   8.498   9.083 -0.0315  0.3147  0.2080
   30loPI   C1A  471  -0.036   8.368   8.763 -0.0252 -0.2946 -0.0399
   30loPI   C2A  472  -0.269   8.695   8.334  0.1032  0.2634  0.0513
   30loPI   C3A  473  -0.628   8.690   7.980  0.0584  0.2206 -0.3705
   30loPI   C4A  474  -0.846   8.314   7.833  0.1248  0.1258  0.2449
   30loPI   C5A  475  -1.152   8.133   7.461 -0.1938 -0.0248 -0.3048
   30loPI   C6A  476  -1.589   7.862   7.559 -0.0326  0.0695 -0.0365
   30loPI   C1B  477  -0.612   8.505   8.708 -0.0227  0.1472 -0.0284
   30loPI   C2B  478  -0.922   8.685   8.428 -0.0234  0.3676  0.0397
   30loPI   C3B  479  -1.052   8.863   8.062 -0.1136  0.0690  0.2064
   30loPI   C4B  480  -1.233   9.117   7.782  0.3000  0.1930  0.2785
   31loPI    C1  481  14.841  16.938  10.168  0.0159  0.0513  0.0360
   31loPI    C2  482  14.446  16.890  10.203  0.0037  0.2278  0.1554
   31loPI    C3  483  14.659  17.026  10.513  0.1599  0.1245  0.0942
   31loPI   PO4  484  14.911  17.042   9.934 -0.1660  0.2469  0.2115
   31loPI   GL1  485  14.963  17.433   9.635 -0.0365  0.0131 -0.3200
   31loPI   GL2  486  15.323  17.513   9.625 -0.0799 -0.0676 -0.1373
   31loPI   C1A  487  14.713  17.344   9.184  0.0666  0.1912  0.2793
   31loPI   C2A  488  14.650  17.113   8.995 -0.2532  0.1898 -0.0497
   31loPI   C3A  489  14.725  17.214   8.570  0.0936  0.4535 -0.0930
   31loPI   C4A  490  14.884  17.239   8.132  0.3790  0.0565  0.1435
   31loPI   C5A  491  15.187  17.062   7.965  0.1179 -0.2218  0.1458
   31loPI   C6A  492  15.450  16.896   7.635  0.1865 -0.0296  0.2338
   31loPI   C1B  493  15.293  17.334   9.247 -0.1452  0.3213  0.1387
   31loPI   C2B  494  15.629  17.236   8.882  0.3132 -0.0993 -0.1133
   31loPI   C3B  495  15.772  17.105   8.572 -0.4171 -0.0761 -0.1044
   31loPI   C4B  496  15.645  16.970   8.102  0.1225 -0.2334 -0.1806
   32loPI    C1  497   3.938   6.542   9.723  0.0725 -0.1226 -0.0847
   32loPI    C2  498   4.154   6.425  10.039  0.0587  0.0359 -0.0159
   32loPI    C3  499   3.980   6.152   9.804 -0.0786 -0.0795  0.2166
   32loPI   PO4  500   3.906   6.801   9.681  0.1655 -0.1002  0.3336
   32loPI   GL1  501   3.656   6.946   9.420 -0.3831 -0.0959 -0.0368
   32loPI   GL2  502   3.243   6.876   9.372  0.2607  0.2452  0.4707
   32loPI   C1A  503   3.852   6.679   9.093  0.4256  0.1145  0.2394
   32loPI   C2A  504   4.000   6.659   8.642  0.1853 -0.2830  0.0351
   32loPI   C3A  505   3.846   6.627   8.294  0.1747 -0.1674 -0.1795
   32loPI   C4A  506   3.685   6.472   7.866 -0.1298  0.1231 -0.2101
   32loPI   C5A  507   3.763   6.204   7.455  0.4169  0.5759 -0.0611
   32loPI   C6A  508   3.960   5.985   7.120 -0.0943 -0.1128  0.1474
   32loPI   C1B  509   3.399   6.919   8.986  0.1653  0.1148 -0.2809
   32loPI   C2B  510   3.614   6.986   8.689  0.2483 -0.3885  0.1016
   32loPI   C3B  511   3.454   6.993   8.250  0.0194  0.0526 -0.0623
   32loPI   C4B  512   3.765   6.981   7.919 -0.3924 -0.0472 -0.0117
   33loPI    C1  513   3.903  11.882  10.095 -0.1203 -0.0732  0.0922
   33loPI    C2  514   4.257  11.868  10.280  0.0968 -0.0783 -0.3123
   33loPI    C3  515   3.949  12.057  10.451  0.2394 -0.2324  0.1280
   33loPI   PO4  516   3.993  11.898   9.764  0.0421  0.2909  0.1516
   33loPI   GL1  517   3.781  11.923   9.424  0.1972 -0.2371  0.1010
   33loPI   GL2  518   3.652  11.648   9.258  0.2140 -0.1804  0.1348
   33loPI   C1A  519   3.558  12.286   9.196 -0.3576  0.1938 -0.2782
   33loPI   C2A  520   3.389  12.544   8.824  0.1747 -0.1969  0.2389
   33loPI   C3A  521   3.222  12.615   8.482  0.4191  0.2729 -0.2838
   33loPI   C4A  522   3.246  12.330   8.062  0.2051 -0.1138 -0.0071
   33loPI   C5A  523   3.126  12.040   7.755 -0.1020  0.0286  0.0262
   33loPI   C6A  524   2.943  11.643   7.683  0.0117  0.0013 -0.0414
   33loPI   C1B  525   3.766  11.839   8.877  0.1317 -0.0721 -0.0318
   33loPI   C2B  526   3.555  11.877   8.410  0.1393 -0.0903 -0.0420
   33loPI   C3B  527   3.555  11.807   7.992 -0.2932  0.2231  0.0364
   33loPI   C4B  528   3.920  11.712   7.673 -0.2739 -0.2912  0.1717
   34loPI    C1  529  13.099  15.588  10.166  0.0424 -0.1369  0.0229
   34loPI    C2  530  12.751  15.696  10.330  0.0374 -0.0252 -0.0595
   34loPI    C3  531  12.864  15.312  10.335 -0.1148 -0.0713 -0.0863
   34loPI   PO4  532  13.055  15.768   9.925  0.1437  0.1066  0.1151
   34loPI   GL1  533  13.017  15.718   9.469  0.0425  0.0208  0.1964
   34loPI   GL2  534  12.883  16.003   9.466 -0.1419 -0.3697  0.1139
   34loPI   C1A  535  13.260  15.808   9.049 -0.4567 -0.2298 -0.1605
   34loPI   C2A  536  13.404  15.787   8.677 -0.0324  0.1443 -0.0564
   34loPI   C3A  537  13.453  15.682   8.246  0.0609  0.2396 -0.3298
   34loPI   C4A  538  13.578  15.482   7.901  0.0936 -0.2507  0.1388
   34loPI   C5A  539  14.070  15.447   7.714 -0.1455 -0.0380  0.2341
   34loPI   C6A  540  14.423  15.219   7.423 -0.3493 -0.1641  0.0256
   34loPI   C1B  541  12.781  16.014   9.113 -0.1242  0.4529 -0.1889
   34loPI   C2B  542  12.720  16.275   8.694  0.1309 -0.1297  0.0886
   34loPI   C3B  543  12.851  16.354   8.222  0.2309 -0.2114 -0.2939
   34loPI   C4B  544  13.113  16.460   7.887  0.2041  0.1565 -0.0253
   35loPI    C1  545   9.398   3.214  10.173 -0.1056  0.0426 -0.1730
   35loPI    C2  546   9.186   3.265  10.508 -0.1162 -0.3646 -0.1125
   35loPI    C3  547   9.415   2.940  10.464  0.1694 -0.1360 -0.3522
   35loPI   PO4  548   9.335   3.177   9.921  0.0004 -0.1563  0.1037
   35loPI   GL1  549   9.620   3.314   9.586 -0.1189  0.0556 -0.0602
   35loPI   GL2  550   9.539   3.047   9.391  0.0604  0.3239  0.1333
   35loPI   C1A  551   9.483   3.645   9.247 -0.2540  0.0694 -0.1728
   35loPI   C2A  552   9.360   3.636   8.809  0.0508 -0.3332 -0.0922
   35loPI   C3A  553   9.123   3.602   8.411  0.0455 -0.1172  0.0355
   35loPI   C4A  554   9.086   3.569   7.960 -0.0645  0.2051 -0.0123
   35loPI   C5A  555   8.755   3.826   7.681  0.0311  0.0495 -0.0275
   35loPI   C6A  556   8.754   4.078   7.380 -0.0330 -0.0098 -0.0415
   35loPI   C1B  557   9.702   3.204   9.021  0.1574 -0.0403  0.2170
   35loPI   C2B  558   9.723   3.203   8.580  0.1656 -0.0459 -0.1540
   35loPI   C3B  559   9.594   3.385   8.185 -0.1753  0.2628 -0.1563
   35loPI   C4B  560   9.935   3.375   7.920 -0.0480 -0.1346 -0.1456
   36loPI    C1  561  11.327   0.595  10.040 -0.0714  0.0316  0.1545
   36loPI    C2  562  11.243   0.275  10.266 -0.1821  0.0422  0.1286
   36loPI    C3  563  11.163   0.643  10.402 -0.0972  0.0568  0.1394
   36loPI   PO4  564  11.119   0.521   9.797  0.0477  0.2848 -0.1863
   36loPI   GL1  565  11.031   0.423   9.451  0.1176  0.0696 -0.1196
   36loPI   GL2  566  11.260   0.623   9.358 -0.1662  0.0438 -0.0410
   36loPI   C1A  567  11.001   0.081   9.255  0.0278 -0.2731  0.1673
   36loPI   C2A  568  11.169   0.107   8.827  0.0838 -0.0016 -0.0402
   36loPI   C3A  569  11.217   0.185   8.394 -0.1382  0.3104  0.2654
   36loPI   C4A  570  11.068   0.383   8.090 -0.0641 -0.3248 -0.3913
   36loPI   C5A  571  10.666   0.428   7.844 -0.1662  0.1395  0.0315
   36loPI   C6A  572  10.408   0.669   7.535 -0.1131  0.1538 -0.2010
   36loPI   C1B  573  11.342   0.563   9.017  0.0459 -0.0341  0.1000
   36loPI   C2B  574  11.527   0.540   8.665 -0.4130  0.2246 -0.0521
   36loPI   C3B  575  11.739   0.337   8.203 -0.1363  0.1276 -0.0458
   36loPI   C4B  576  11.851   0.220   7.816 -0.0981  0.0297 -0.0122
   37loPI    C1  577  14.720  15.086  10.024  0.0254 -0.0910  0.1627
   37loPI    C2  578  14.980  14.870  10.238  0.1360  0.1983  0.3242
   37loPI    C3  579  14.717  15.109  10.423 -0.3392 -0.1893  0.1697
   37loPI   PO4  580  14.881  15.105   9.847  0.1075 -0.1161 -0.2121
   37loPI   GL1  581  14.830  15.159   9.503 -0.2073  0.0893 -0.4006
   37loPI   GL2  582  14.864  14.880   9.417  0.0194  0.1019 -0.1067
   37loPI   C1A  583  15.099  15.292   9.190 -0.3748 -0.1618  0.0106
   37loPI   C2A  584  15.170  15.425   8.844 -0.1895 -0.1874  0.1395
   37loPI   C3A  585  15.467  15.345   8.432  0.2871 -0.1690  0.0054
   37loPI   C4A  586  15.647  15.424   7.958 -0.2007  0.1125  0.0848
   37loPI   C5A  587  15.735  15.197   7.592  0.0563  0.3889 -0.0055
   37loPI   C6A  588  15.376  14.873   7.539 -0.2011  0.1244 -0.1475
   37loPI   C1B  589  15.109  14.501   9.202 -0.2072  0.0867 -0.0543
   37loPI   C2B  590  15.252  14.069   8.943 -0.3868 -0.2842 -0.1023
   37loPI   C3B  591  15.480  13.919   8.580  0.4376  0.2220 -0.0034
   37loPI   C4B  592  15.763  13.550   8.663 -0.2161  0.2455 -0.1447
   38loPI    C1  593  10.005  13.367  10.145 -0.1283  0.1645  0.0371
   38loPI    C2  594   9.659  13.564  10.186 -0.1858  0.1202 -0.2187
   38loPI    C3  595   9.671  13.167  10.237 -0.0767  0.1788  0.2628
   38loPI   PO4  596  10.110  13.398   9.886  0.2989  0.1071  0.6461
   38loPI   GL1  597   9.963  13.374   9.386 -0.0995  0.0782 -0.0050
   38loPI   GL2  598  10.239  13.481   9.226 -0.0096 -0.1874  0.0561
   38loPI   C1A  599   9.908  13.095   9.072  0.2884  0.0376  0.1473
   38loPI   C2A  600   9.901  13.061   8.622  0.1868  0.2968  0.0780
   38loPI   C3A  601   9.747  13.065   8.170 -0.0479  0.3178  0.0305
   38loPI   C4A  602   9.911  12.934   7.761  0.0213  0.4431  0.3266
   38loPI   C5A  603  10.186  12.969   7.402  0.3032  0.3957  0.3071
   38loPI   C6A  604  10.330  12.875   7.018  0.4306 -0.0393  0.0743
   38loPI   C1B  605  10.159  13.890   9.079 -0.0483  0.2935 -0.0435
   38loPI   C2B  606  10.272  13.808   8.650 -0.1715  0.2058  0.1703
   38loPI   C3B  607  10.226  13.855   8.182 -0.0891  0.1060 -0.0009
   38loPI   C4B  608  10.504  13.957   7.872 -0.2683  0.2947 -0.4616
   39loPI    C1  609   2.880   1.229   9.827  0.1819 -0.2901 -0.3329
   39loPI    C2  610   3.043   1.594   9.831 -0.1040 -0.1605 -0.0197
   39loPI    C3  611   3.096   1.348  10.142 -0.0310 -0.3345 -0.1680
   39loPI   PO4  612   2.998   1.100   9.606  0.1653 -0.0062 -0.0744
   39loPI   GL1  613   3.035   1.116   9.221 -0.1694 -0.0835  0.0519
   39loPI   GL2  614   2.997   0.742   9.214 -0.2381 -0.2591  0.0589
   39loPI   C1A  615   3.158   1.109   8.834  0.0626  0.2563  0.2534
   39loPI   C2A  616   3.074   1.182   8.521  0.3862  0.0070  0.4180
   39loPI   C3A  617   3.033   1.162   8.117  0.0860  0.0488  0.3439
   39loPI   C4A  618   2.867   1.445   7.817 -0.2505 -0.0973 -0.0487
   39loPI   C5A  619   2.584   1.604   7.595 -0.0296 -0.1610 -0.3155
   39loPI   C6A  620   2.206   1.694   7.518 -0.0698 -0.0592 -0.2045
   39loPI   C1B  621   2.830   0.587   8.726  0.0953  0.2133  0.1553
   39loPI   C2B  622   2.874   0.569   8.301  0.0348  0.0786 -0.0895
   39loPI   C3B  623   2.775   0.720   7.853 -0.3163 -0.0739 -0.3087
   39loPI   C4B  624   2.597   1.106   7.616  0.1663  0.2173  0.1470
   40loPI    C1  625  17.757  11.897  10.177 -0.0946  0.1776  0.1234
   40loPI    C2  626  17.462  11.648  10.280  0.1074 -0.1007  0.0418
   40loPI    C3  627  17.670  11.839  10.563  0.1098 -0.2117  0.1157
   40loPI   PO4  628  17.828  11.836   9.987  0.0582  0.2969  0.1250
   40loPI   GL1  629  18.031  11.534   9.712  0.3326  0.4102 -0.1057
   40loPI   GL2  630  18.053  11.231   9.847 -0.1201 -0.0915  0.0069
   40loPI   C1A  631  17.915  11.462   9.222  0.1409 -0.1337 -0.0811
   40loPI   C2A  632  17.820  11.460   8.782  0.2637 -0.2227 -0.2049
   40loPI   C3A  633  17.917  11.741   8.458  0.0914  0.1419  0.1604
   40loPI   C4A  634  17.881  11.965   8.105  0.0683 -0.4606  0.3776
   40loPI   C5A  635  17.769  12.332   7.865 -0.1563 -0.0623  0.0788
   40loPI   C6A  636  17.542  12.345   7.439  0.0855  0.2027  0.5248
   40loPI   C1B  637  18.053  11.029   9.409 -0.1431 -0.0238 -0.2113
   40loPI   C2B  638  18.201  11.012   8.970  0.0947  0.3491  0.0861
   40loPI   C3B  639  17.998  10.971   8.503 -0.2085  0.4246 -0.2458
   40loPI   C4B  640  18.004  11.158   8.094 -0.0674  0.0283  0.1637
   41loPI    C1  641   5.432  13.521  10.050  0.0066 -0.0945  0.0285
   41loPI    C2  642   5.317  13.701  10.389 -0.1678 -0.0798 -0.0376
   41loPI    C3  643   5.260  13.307  10.342 -0.0753 -0.0954 -0.0200
   41loPI   PO4  644   5.347  13.758   9.860 -0.0178 -0.3062  0.2278
   41loPI   GL1  645   5.288  14.037   9.485 -0.0272  0.1181  0.0971
   41loPI   GL2  646   5.495  13.930   9.412  0.2925 -0.1407 -0.1063
   41loPI   C1A  647   5.155  14.236   9.104 -0.0626 -0.2520 -0.1069
   41loPI   C2A  648   5.167  14.246   8.777 -0.2695 -0.0412  0.0322
   41loPI   C3A  649   5.127  14.179   8.322 -0.1044 -0.2260 -0.3420
   41loPI   C4A  650   5.253  14.123   7.896  0.1919 -0.0246 -0.1988
   41loPI   C5A  651   5.132  14.045   7.533  0.0475  0.0221  0.1950
   41loPI   C6A  652   4.988  13.806   7.113  0.0930  0.0524 -0.1735
   41loPI   C1B  653   5.501  13.815   9.032  0.0068  0.0606 -0.4412
   41loPI   C2B  654   5.549  13.946   8.603 -0.1176 -0.2106 -0.0887
   41loPI   C3B  655   5.673  14.021   8.130 -0.0268 -0.0888  0.0882
   41loPI   C4B  656   5.557  13.716   7.817  0.3746 -0.0959 -0.0675
   42loPI    C1  657  12.303   9.802   9.586  0.1929 -0.1517 -0.2033
   42loPI    C2  658  12.011   9.623   9.793  0.0740  0.3186  0.0504
   42loPI    C3  659  12.385   9.623   9.934  0.0991  0.1629 -0.0149
   42loPI   PO4  660  12.313   9.730   9.378  0.0647 -0.0354  0.0719
   42loPI   GL1  661  12.437   9.754   8.987  0.0878  0.1759  0.3721
   42loPI   GL2  662  12.759   9.458   9.041 -0.0473  0.0304 -0.1868
   42loPI   C1A  663  12.331   9.548   8.604  0.2765 -0.0857  0.2398
   42loPI   C2A  664  12.017   9.763   8.283  0.1543  0.3980  0.1665
   42loPI   C3A  665  11.867   9.794   7.887 -0.2273 -0.2241 -0.2194
   42loPI   C4A  666  12.067   9.881   7.521 -0.0527  0.0225  0.3231
   42loPI   C5A  667  11.987   9.779   7.038 -0.2108  0.1500 -0.0174
   42loPI   C6A  668  11.830   9.408   6.832 -0.2003 -0.2395  0.3198
   42loPI   C1B  669  12.934   9.615   8.674 -0.2153  0.2626  0.0928
   42loPI   C2B  670  12.703   9.659   8.332 -0.1884 -0.0561  0.1630
   42loPI   C3B  671  12.499   9.716   7.995 -0.1822  0.1134 -0.1255
   42loPI   C4B  672  12.402   9.515   7.526 -0.0287 -0.0389  0.0627
   43loPI    C1  673  10.639  13.346   9.795 -0.0888  0.0630 -0.0332
   43loPI    C2  674  10.792  13.000   9.926  0.1143  0.1014 -0.1632
   43loPI    C3  675  10.474  13.161  10.109  0.1736 -0.0257  0.0551
   43loPI   PO4  676  10.703  13.190   9.475  0.1384 -0.1406 -0.0095
   43loPI   GL1  677  10.518  13.074   9.106 -0.4284  0.2931  0.1700
   43loPI   GL2  678  10.288  12.739   9.108 -0.0544 -0.0831 -0.0123
   43loPI   C1A  679  10.401  13.285   8.757 -0.0544 -0.0130 -0.0084
   43loPI   C2A  680  10.227  13.335   8.464  0.0409 -0.2120  0.1828
   43loPI   C3A  681  10.160  13.369   8.058  0.1653 -0.2408  0.1105
   43loPI   C4A  682  10.097  13.439   7.625  0.1160  0.1451  0.0624
   43loPI   C5A  683  10.296  13.807   7.400 -0.1098  0.1391 -0.1536
   43loPI   C6A  684  10.694  13.898   7.202  0.3039  0.1678  0.1031
   43loPI   C1B  685  10.373  12.778   8.683  0.0030  0.2338  0.0138
   43loPI   C2B  686  10.630  13.006   8.374  0.0711 -0.2096 -0.2201
   43loPI   C3B  687  10.706  13.421   8.193 -0.0809  0.3129 -0.1889
   43loPI   C4B  688  10.758  13.893   8.313 -0.0405  0.3245  0.0154
   44loPI    C1  689   1.958  12.288  10.416  0.0216 -0.0005  0.0405
   44loPI    C2  690   1.768  12.052  10.678  0.0376 -0.2201 -0.1428
   44loPI    C3  691   1.877  12.422  10.784 -0.2895 -0.1719  0.0379
   44loPI   PO4  692   1.810  12.162  10.144 -0.0277  0.1695 -0.1009
   44loPI   GL1  693   2.038  11.795   9.871  0.0146  0.1101  0.0467
   44loPI   GL2  694   2.207  11.969   9.756  0.4249 -0.0147  0.2648
   44loPI   C1A  695   1.759  11.495   9.647 -0.0890 -0.0161 -0.1011
   44loPI   C2A  696   1.668  11.372   9.232 -0.0817 -0.3629 -0.0594
   44loPI   C3A  697   1.595  11.344   8.824  0.0653 -0.0468  0.2396
   44loPI   C4A  698   1.396  11.373   8.463 -0.1616 -0.1242  0.0090
   44loPI   C5A  699   1.294  11.428   8.049 -0.0459  0.0426 -0.3324
   44loPI   C6A  700   1.073  11.654   7.697  0.2658  0.4363 -0.0022
   44loPI   C1B  701   2.346  11.988   9.272 -0.0544 -0.0890 -0.1030
   44loPI   C2B  702   2.330  12.079   8.917 -0.2129  0.0969 -0.0004
   44loPI   C3B  703   2.106  12.156   8.458 -0.2063  0.0142  0.0419
   44loPI   C4B  704   2.091  11.910   8.172  0.2580 -0.2950  0.0805
   45loPI    C1  705  16.550  16.109   9.958 -0.1398  0.0374  0.2304
   45loPI    C2  706  16.833  15.999  10.218 -0.0599  0.0849  0.1641
   45loPI    C3  707  16.881  16.330   9.999 -0.0382 -0.0585 -0.0511
   45loPI   PO4  708  16.563  15.919   9.756 -0.0036 -0.0476 -0.1159
   45loPI   GL1  709  16.710  15.926   9.386 -0.0057  0.3435  0.2836
   45loPI   GL2  710  16.918  16.145   9.509 -0.1815 -0.0375  0.1388
   45loPI   C1A  711  17.081  15.738   9.180  0.1253 -0.0542  0.3179
   45loPI   C2A  712  17.312  15.708   8.747 -0.1089  0.1368 -0.2438
   45loPI   C3A  713  17.518  15.591   8.394 -0.0090 -0.0819  0.0455
   45loPI   C4A  714  17.468  15.692   8.015 -0.3091  0.1030 -0.1338
   45loPI   C5A  715  17.364  15.915   7.491 -0.0935 -0.0873  0.0395
   45loPI   C6A  716  17.492  16.335   7.458 -0.2135  0.0839 -0.2285
   45loPI   C1B  717  17.081  16.316   9.155 -0.1707 -0.1371 -0.2050
   45loPI   C2B  718  17.168  16.226   8.733  0.0184  0.0231 -0.0232
   45loPI   C3B  719  17.230  16.008   8.349 -0.0220 -0.2559  0.1367
   45loPI   C4B  720  17.108  16.026   8.005  0.0348  0.1728  0.2185
   46loPI    C1  721   5.858  14.330   9.892  0.1115 -0.1438 -0.0556
   46loPI    C2  722   5.535  14.205  10.092  0.1132 -0.1560 -0.0604
   46loPI    C3  723   5.818  14.414  10.281  0.1167 -0.1708 -0.0493
   46loPI   PO4  724   5.725  14.316   9.667  0.0375  0.1642  0.0787
   46loPI   GL1  725   5.698  14.338   9.200  0.0349 -0.1286  0.1392
   46loPI   GL2  726   5.888  14.477   9.220  0.1746  0.2404 -0.0797
   46loPI   C1A  727   5.665  14.387   8.775  0.1279  0.2155 -0.0835
   46loPI   C2A  728   5.546  14.469   8.395  0.1479 -0.2713  0.4833
   46loPI   C3A  729   5.534  14.519   7.993  0.0872  0.1397 -0.0041
   46loPI   C4A  730   5.317  14.637   7.590 -0.0099 -0.3088 -0.3971
   46loPI   C5A  731   5.395  14.548   7.143  0.0904  0.0571  0.1758
   46loPI   C6A  732   5.459  14.669   6.726  0.0363  0.2557 -0.1465
   46loPI   C1B  733   6.111  14.495   8.888  0.0332 -0.2234 -0.1963
   46loPI   C2B  734   6.422  14.722   8.597 -0.1851  0.1285 -0.2700
   46loPI   C3B  735   6.608  14.607   8.224 -0.1292  0.0411 -0.1367
   46loPI   C4B  736   6.771  14.578   7.754 -0.0225 -0.0430  0.0542
   47loPI    C1  737  11.400   2.332   9.793 -0.1895  0.1482  0.0152
   47loPI    C2  738  11.367   2.027  10.050 -0.1412  0.0587 -0.0840
   47loPI    C3  739  11.306   2.402  10.175 -0.0515  0.0218  0.0732
   47loPI   PO4  740  11.285   2.245   9.604 -0.0796 -0.0569  0.1264
   47loPI   GL1  741  11.354   2.000   9.219 -0.2821  0.0345  0.0819
   47loPI   GL2  742  11.032   2.122   9.186  0.0455  0.0662 -0.1118
   47loPI   C1A  743  11.307   1.828   8.794 -0.3863  0.2957  0.1147
   47loPI   C2A  744  11.243   1.629   8.305 -0.1589  0.0320  0.2785
   47loPI   C3A  745  11.198   1.644   7.843  0.1289 -0.1050  0.0342
   47loPI   C4A  746  10.945   1.705   7.493  0.2454  0.0358  0.2527
   47loPI   C5A  747  10.669   1.576   7.139  0.0099  0.2820 -0.2025
   47loPI   C6A  748  10.640   1.273   6.814 -0.1204  0.1419 -0.2283
   47loPI   C1B  749  11.034   2.321   8.734  0.0805 -0.0034  0.0037
   47loPI   C2B  750  11.149   2.147   8.345  0.0199 -0.1311  0.0656
   47loPI   C3B  751  11.143   2.166   7.902 -0.1481 -0.1482 -0.0348
   47loPI   C4B  752  11.502   1.920   7.581  0.4212 -0.1088 -0.0844
   48loPI    C1  753   8.930   1.887   9.871  0.0809 -0.2368 -0.0021
   48loPI    C2  754   9.280   1.765  10.020  0.0780 -0.3023 -0.0490
   48loPI    C3  755   9.009   1.933  10.261  0.1870 -0.1462 -0.0335
   48loPI   PO4  756   8.988   1.956   9.662 -0.0124  0.4542  0.0762
   48loPI   GL1  757   8.888   2.159   9.341  0.2197  0.4087  0.0895
   48loPI   GL2  758   8.843   2.457   9.467  0.1196 -0.0355 -0.0248
   48loPI   C1A  759   8.735   1.882   8.959  0.0153 -0.2230  0.1514
   48loPI   C2A  760   8.700   1.819   8.490  0.1748 -0.0418  0.0285
   48loPI   C3A  761   8.559   1.744   8.113 -0.0522  0.2076 -0.0990
   48loPI   C4A  762   8.372   1.609   7.689 -0.1702 -0.2707  0.1632
   48loPI   C5A  763   8.077   1.369   7.531  0.0636  0.0408 -0.1964
   48loPI   C6A  764   7.994   1.003   7.230  0.0757 -0.0173  0.1504
   48loPI   C1B  765   8.726   2.400   8.991  0.0518 -0.0385  0.1471
   48loPI   C2B  766   8.786   2.286   8.573  0.0521 -0.0928  0.0426
   48loPI   C3B  767   8.582   2.232   8.191  0.0780 -0.0091  0.3951
   48loPI   C4B  768   8.652   2.075   7.743  0.2094 -0.1144 -0.2029
   49loPI    C1  769   9.962  14.501  10.123  0.0927  0.0155  0.1647
   49loPI    C2  770   9.711  14.323  10.379  0.0800 -0.1828  0.0164
   49loPI    C3  771   9.814  14.706  10.433 -0.4321 -0.0293 -0.0471
   49loPI   PO4  772   9.890  14.414   9.821  0.0850  0.0304 -0.0305
   49loPI   GL1  773   9.857  14.704   9.430 -0.1234 -0.1675  0.0176
   49loPI   GL2  774  10.100  14.434   9.360  0.3693  0.3143  0.4700
   49loPI   C1A  775  10.086  14.882   9.112  0.0739 -0.0105 -0.1087
   49loPI   C2A  776  10.053  15.020   8.721 -0.3729  0.0621 -0.0563
   49loPI   C3A  777   9.929  15.302   8.462 -0.3758  0.3871  0.1068
   49loPI   C4A  778   9.657  15.356   8.140 -0.6394  0.0973  0.0871
   49loPI   C5A  779   9.197  15.369   8.001 -0.2405 -0.1067 -0.0789
   49loPI   C6A  780   8.808  15.430   8.012 -0.1153  0.0162 -0.0090
   49loPI   C1B  781  10.134  14.398   8.926  0.0165 -0.4751 -0.0950
   49loPI   C2B  782  10.208  14.279   8.435  0.0850  0.2628 -0.2844
   49loPI   C3B  783  10.147  14.290   7.925  0.4944  0.1828 -0.0086
   49loPI   C4B  784  10.037  14.241   7.512  0.2381  0.1415 -0.0117
   50loPI    C1  785   8.014  14.008  10.238 -0.2995 -0.0456 -0.0703
   50loPI    C2  786   7.688  14.164  10.068 -0.1851  0.0985 -0.1598
   50loPI    C3  787   7.659  13.973  10.418 -0.3723  0.0707 -0.1894
   50loPI   PO4  788   8.232  14.271  10.232 -0.1222 -0.0901 -0.1927
   50loPI   GL1  789   8.447  14.443   9.891 -0.0184 -0.0088 -0.0533
   50loPI   GL2  790   8.492  14.300   9.562  0.0346 -0.2364  0.3683
   50loPI   C1A  791   8.221  14.679   9.467  0.0622 -0.2671  0.0650
   50loPI   C2A  792   8.275  14.918   9.117  0.2476 -0.0387  0.0703
   50loPI   C3A  793   8.180  15.224   8.828 -0.1483 -0.0931 -0.1990
   50loPI   C4A  794   8.060  15.325   8.514  0.4163  0.2568  0.0641
   50loPI   C5A  795   7.797  15.189   8.074  0.3421 -0.0933 -0.1135
   50loPI   C6A  796   7.758  14.963   7.728  0.1158  0.1593 -0.2492
   50loPI   C1B  797   8.273  14.333   9.079 -0.0032  0.1331 -0.0170
   50loPI   C2B  798   8.278  14.407   8.739  0.0048 -0.0719  0.1434
   50loPI   C3B  799   7.978  14.341   8.398 -0.2818  0.6839 -0.4775
   50loPI   C4B  800   7.914  14.072   8.165  0.0971  0.0676 -0.1040
   51loPI    C1  801  17.446  15.635  10.292  0.0195  0.0524 -0.4652
   51loPI    C2  802  17.061  15.528  10.294  0.0244  0.0324 -0.2097
   51loPI    C3  803  17.266  15.545  10.637  0.1802  0.3010 -0.3124
   51loPI   PO4  804  17.522  15.546  10.086  0.0182 -0.0197  0.1887
   51loPI   GL1  805  17.538  15.527   9.676  0.1681  0.3147  0.0223
   51loPI   GL2  806  17.717  15.566   9.482 -0.1403 -0.0157 -0.2401
   51loPI   C1A  807  17.307  15.303   9.319  0.2099 -0.0209 -0.1051
   51loPI   C2A  808  17.570  15.256   8.884  0.0546 -0.0030 -0.0933
   51loPI   C3A  809  17.593  15.044   8.444  0.0906  0.2618 -0.1237
   51loPI   C4A  810  17.693  15.220   8.032  0.0520  0.0063  0.0105
   51loPI   C5A  811  17.653  15.506   7.593  0.0849 -0.3313  0.0304
   51loPI   C6A  812  17.896  15.796   7.341  0.1111  0.0583  0.1489
   51loPI   C1B  813  17.956  15.466   9.174 -0.2235 -0.0529  0.2217
   51loPI   C2B  814  18.031  15.127   8.865  0.2516 -0.1091 -0.1991
   51loPI   C3B  815  18.109  15.105   8.411  0.1293 -0.0717  0.2022
   51loPI   C4B  816  18.360  14.894   8.134  0.0876  0.0496 -0.0596
   52loPI    C1  817   0.074  19.182  10.082 -0.1031 -0.0704  0.0940
   52loPI    C2  818  -0.268  19.353   9.964  0.0207  0.0282 -0.1288
   52loPI    C3  819  -0.170  19.347  10.352 -0.2233  0.0164 -0.0659
   52loPI   PO4  820   0.125  18.998   9.927  0.0795 -0.1152 -0.0334
   52loPI   GL1  821  -0.165  18.850   9.588  0.1731 -0.2624 -0.3839
   52loPI   GL2  822  -0.111  18.483   9.568  0.1950  0.2095 -0.0954
   52loPI   C1A  823  -0.240  19.236   9.380 -0.2004  0.1884 -0.1047
   52loPI   C2A  824  -0.359  19.571   9.035 -0.1341  0.3416 -0.1551
   52loPI   C3A  825  -0.146  19.642   8.648 -0.1844  0.1306  0.3043
   52loPI   C4A  826  -0.050  19.287   8.372  0.0060  0.1584  0.1697
   52loPI   C5A  827   0.060  19.361   7.906  0.2091  0.1354 -0.0211
   52loPI   C6A  828   0.040  19.373   7.459  0.0624 -0.3695  0.0656
   52loPI   C1B  829  -0.269  18.456   9.218 -0.4117  0.0603  0.2706
   52loPI   C2B  830  -0.026  18.341   8.768  0.2728 -0.1448 -0.0026
   52loPI   C3B  831   0.265  18.341   8.360  0.1865 -0.2013  0.0061
   52loPI   C4B  832   0.743  18.336   8.403  0.0037  0.0663 -0.0786
   53loPI    C1  833  11.947  10.093   9.345 -0.0027  0.4292  0.1399
   53loPI    C2  834  11.678   9.883   9.554  0.3352 -0.0657  0.0938
   53loPI    C3  835  11.937  10.121   9.744  0.2788 -0.0812  0.1909
   53loPI   PO4  836  11.919  10.300   9.112 -0.2571 -0.1119 -0.1974
   53loPI   GL1  837  11.963  10.551   8.733  0.2173 -0.1930  0.2219
   53loPI   GL2  838  12.097  10.826   8.910  0.2966 -0.1195  0.2115
   53loPI   C1A  839  12.328  10.684   8.410  0.0980  0.2953 -0.0938
   53loPI   C2A  840  12.651  10.531   8.185  0.1312  0.0914  0.0685
   53loPI   C3A  841  12.939  10.412   7.778 -0.0034  0.3025  0.2185
   53loPI   C4A  842  13.152  10.327   7.378  0.1577 -0.3023  0.1957
   53loPI   C5A  843  13.287  10.200   7.006 -0.1404  0.2312  0.4160
   53loPI   C6A  844  13.250  10.166   6.552 -0.2482 -0.1760  0.0128
   53loPI   C1B  845  12.020  11.073   8.503  0.1281  0.3173 -0.0377
   53loPI   C2B  846  11.906  11.419   8.285  0.2249 -0.1395 -0.0329
   53loPI   C3B  847  11.803  11.618   7.833 -0.1224  0.0772  0.0234
   53loPI   C4B  848  11.759  11.988   7.628 -0.2041 -0.1007  0.0259
   54loPI    C1  849  14.439   6.801   9.805  0.1922  0.1571  0.1271
   54loPI    C2  850  14.695   6.497   9.851  0.1599  0.0985 -0.0726
   54loPI    C3  851  14.644   6.761  10.147  0.1176 -0.1430  0.1399
   54loPI   PO4  852  14.518   6.982   9.527 -0.5151 -0.0544  0.0901
   54loPI   GL1  853  14.650   6.862   9.143 -0.0430  0.0105  0.1952
   54loPI   GL2  854  14.447   6.717   9.031 -0.5137  0.0741 -0.0840
   54loPI   C1A  855  14.982   6.695   8.929  0.1352  0.2302 -0.0106
   54loPI   C2A  856  15.147   6.720   8.443  0.1597  0.1646  0.1708
   54loPI   C3A  857  15.435   6.681   8.130 -0.2433  0.1358 -0.3341
   54loPI   C4A  858  15.421   6.872   7.733  0.3828  0.0014  0.1328
   54loPI   C5A  859  15.004   6.949   7.676 -0.0558  0.2647 -0.2345
   54loPI   C6A  860  14.542   6.795   7.662  0.0690 -0.2144 -0.0268
   54loPI   C1B  861  14.128   6.676   8.800 -0.1928  0.3453  0.0765
   54loPI   C2B  862  13.964   6.362   8.694 -0.0880 -0.0176  0.3624
   54loPI   C3B  863  13.765   6.155   8.401 -0.2356  0.2398 -0.2114
   54loPI   C4B  864  13.941   6.152   7.931  0.2418 -0.0721  0.0283
   55loPI    C1  865   6.191   2.989  10.156 -0.0314  0.0170  0.0820
   55loPI    C2  866   6.572   2.977  10.276 -0.1158  0.0170  0.3565
   55loPI    C3  867   6.354   3.307  10.336 -0.0617  0.1455 -0.1149
   55loPI   PO4  868   6.269   2.877   9.831 -0.1540 -0.1438  0.1205
   55loPI   GL1  869   6.182   3.044   9.388 -0.1962  0.0216  0.1680
   55loPI   GL2  870   6.506   3.212   9.395 -0.0089  0.0667 -0.0822
   55loPI   C1A  871   6.003   2.907   8.955  0.2313  0.2632 -0.2864
   55loPI   C2A  872   6.146   3.009   8.627 -0.2332  0.0999  0.1444
   55loPI   C3A  873   6.187   3.225   8.212  0.0766 -0.2624  0.0416
   55loPI   C4A  874   6.111   3.014   7.850  0.2151 -0.0498 -0.1495
   55loPI   C5A  875   5.873   2.836   7.543 -0.0146  0.1587 -0.4442
   55loPI   C6A  876   5.854   2.515   7.201 -0.0856 -0.1971  0.0065
   55loPI   C1B  877   6.395   3.294   8.985  0.2645 -0.0020 -0.0527
   55loPI   C2B  878   6.547   3.475   8.547  0.1137 -0.0078  0.1110
   55loPI   C3B  879   6.577   3.500   8.150 -0.1750 -0.2887 -0.1809
   55loPI   C4B  880   6.717   3.663   7.847 -0.3204  0.3070 -0.3415
   56loPI    C1  881   7.140  11.461   9.854  0.1797 -0.0018 -0.2722
   56loPI    C2  882   7.268  11.813   9.993 -0.0577 -0.0036 -0.0429
   56loPI    C3  883   7.426  11.473  10.134 -0.2871 -0.0051  0.2202
   56loPI   PO4  884   7.235  11.477   9.518  0.3918 -0.3011 -0.0074
   56loPI   GL1  885   7.501  11.482   9.149  0.1159  0.0462  0.1146
   56loPI   GL2  886   7.858  11.635   9.170  0.1030  0.2168  0.0917
   56loPI   C1A  887   7.668  11.617   8.748  0.0097 -0.0838 -0.2772
   56loPI   C2A  888   7.861  11.621   8.252  0.2601 -0.0774 -0.0509
   56loPI   C3A  889   7.931  11.897   7.937 -0.0309  0.1914  0.0840
   56loPI   C4A  890   7.662  11.717   7.562 -0.0244 -0.1842 -0.0508
   56loPI   C5A  891   7.508  11.400   7.376  0.0298 -0.1909 -0.0469
   56loPI   C6A  892   7.130  11.360   7.266 -0.1814  0.0173 -0.2382
   56loPI   C1B  893   8.116  11.759   8.847  0.3518 -0.0834 -0.3487
   56loPI   C2B  894   8.260  11.895   8.436  0.3666 -0.0533 -0.0223
   56loPI   C3B  895   8.398  11.800   8.022  0.2701 -0.2059  0.0578
   56loPI   C4B  896   8.516  12.007   7.712 -0.1487  0.0688 -0.1548
   57loPI    C1  897   3.163   7.392   9.918 -0.3844  0.1849  0.0436
   57loPI    C2  898   3.300   7.157  10.212  0.1204  0.0874 -0.2578
   57loPI    C3  899   2.931   7.311  10.234  0.0645 -0.1055  0.3097
   57loPI   PO4  900   3.075   7.263   9.678 -0.0689 -0.0815  0.1747
   57loPI   GL1  901   2.848   7.554   9.448 -0.0220 -0.1519  0.1246
   57loPI   GL2  902   2.683   7.113   9.395 -0.1622  0.1900 -0.2090
   57loPI   C1A  903   2.975   7.852   9.095  0.1880  0.2705  0.2590
   57loPI   C2A  904   3.210   7.963   8.691 -0.0458  0.3274  0.2371
   57loPI   C3A  905   3.262   7.953   8.335  0.0777  0.0324  0.0136
   57loPI   C4A  906   3.242   8.070   7.853 -0.2235 -0.2277  0.1085
   57loPI   C5A  907   3.029   8.118   7.525  0.3154 -0.2362 -0.2620
   57loPI   C6A  908   2.908   8.379   7.153  0.2082 -0.3669 -0.0569
   57loPI   C1B  909   2.798   7.306   8.892  0.1084  0.1102  0.1293
   57loPI   C2B  910   2.835   7.536   8.525 -0.1413  0.0306  0.0526
   57loPI   C3B  911   2.823   7.671   8.044  0.0605 -0.0932 -0.2789
   57loPI   C4B  912   2.637   7.834   7.698  0.0571  0.1485 -0.1455
   58loPI    C1  913  14.351  11.360   9.548  0.1616 -0.1481  0.0492
   58loPI    C2  914  14.602  11.406   9.856  0.0641 -0.2914  0.1514
   58loPI    C3  915  14.698  11.162   9.553  0.2018 -0.0787  0.0210
   58loPI   PO4  916  14.225  11.610   9.513 -0.0664  0.0261 -0.0922
   58loPI   GL1  917  14.356  11.900   9.241  0.4751  0.1329 -0.1447
   58loPI   GL2  918  14.640  12.054   9.351  0.2659  0.0584 -0.1607
   58loPI   C1A  919  14.636  11.925   8.831 -0.1499 -0.1077 -0.3121
   58loPI   C2A  920  14.806  11.822   8.406 -0.0054 -0.2711  0.4661
   58loPI   C3A  921  14.933  11.965   8.028 -0.0652  0.1481  0.2985
   58loPI   C4A  922  14.709  11.998   7.665  0.1393 -0.0439 -0.4417
   58loPI   C5A  923  14.377  11.978   7.550 -0.0495  0.2796  0.1060
   58loPI   C6A  924  14.061  12.074   7.390  0.2287 -0.0943 -0.0174
   58loPI   C1B  925  14.989  12.194   9.053 -0.2404  0.0415  0.3424
   58loPI   C2B  926  15.240  11.994   8.722 -0.2266  0.1187  0.2216
   58loPI   C3B  927  15.341  12.161   8.211 -0.1279  0.1433 -0.1754
   58loPI   C4B  928  15.280  12.213   7.664 -0.0796 -0.0889 -0.0314
   59loPI    C1  929   4.987  15.724  10.029 -0.0903 -0.4853  0.2005
   59loPI    C2  930   5.228  15.899  10.297 -0.0955 -0.0455 -0.0712
   59loPI    C3  931   4.907  15.695  10.420 -0.0108  0.0164  0.2611
   59loPI   PO4  932   5.176  15.610   9.836  0.0108 -0.2297  0.1183
   59loPI   GL1  933   5.219  15.557   9.427  0.0025  0.0350  0.1360
   59loPI   GL2  934   5.636  15.530   9.511 -0.0663 -0.1351  0.1627
   59loPI   C1A  935   5.118  15.598   8.980 -0.2307 -0.0785 -0.0036
   59loPI   C2A  936   5.053  15.380   8.506  0.1140  0.1682 -0.0950
   59loPI   C3A  937   5.007  15.282   8.071 -0.1379 -0.0683  0.3926
   59loPI   C4A  938   4.685  15.303   7.784 -0.1013  0.0715 -0.0325
   59loPI   C5A  939   4.264  15.187   7.576 -0.0181 -0.2078 -0.0258
   59loPI   C6A  940   3.927  14.865   7.323 -0.0246  0.0937  0.0700
   59loPI   C1B  941   5.622  15.680   9.104 -0.0667  0.4075 -0.1886
   59loPI   C2B  942   5.450  15.782   8.584  0.0556 -0.0805  0.0203
   59loPI   C3B  943   5.323  16.112   8.259  0.0174  0.1012  0.1352
   59loPI   C4B  944   5.130  16.355   7.866 -0.1570 -0.0044  0.1664
   60loPI    C1  945   3.109  17.493  10.142  0.3269 -0.1479 -0.1361
   60loPI    C2  946   2.956  17.171  10.325  0.1968 -0.1008 -0.1609
   60loPI    C3  947   3.124  17.463  10.541 -0.1381  0.0496 -0.0975
   60loPI   PO4  948   2.905  17.523   9.927  0.2493 -0.2503 -0.0598
   60loPI   GL1  949   2.796  17.629   9.450 -0.0030 -0.4376 -0.1282
   60loPI   GL2  950   3.164  17.624   9.380  0.0011 -0.0524 -0.1527
   60loPI   C1A  951   2.513  17.742   9.227 -0.2675  0.1829  0.2825
   60loPI   C2A  952   2.604  17.885   8.882 -0.0487  0.3017 -0.2735
   60loPI   C3A  953   2.593  17.733   8.474  0.0810 -0.1030 -0.1725
   60loPI   C4A  954   2.357  17.843   8.061 -0.1769  0.3455 -0.2510
   60loPI   C5A  955   2.189  17.904   7.660 -0.0118 -0.1500  0.3386
   60loPI   C6A  956   2.211  18.038   7.206 -0.2078 -0.2630 -0.2974
   60loPI   C1B  957   3.127  17.770   8.992  0.3342 -0.3153 -0.0635
   60loPI   C2B  958   3.101  17.689   8.553  0.2172  0.0483  0.0601
   60loPI   C3B  959   2.953  17.543   8.096 -0.0671  0.0043 -0.1228
   60loPI   C4B  960   3.167  17.532   7.661 -0.1015  0.2690 -0.0937
   61loPI    C1  961  15.668   1.608  10.111 -0.0054  0.0260  0.0021
   61loPI    C2  962  15.479   1.635  10.462  0.0163 -0.2002  0.0324
   61loPI    C3  963  15.872   1.707  10.440 -0.0415  0.1166 -0.0026
   61loPI   PO4  964  15.714   1.375  10.002 -0.0383 -0.0145  0.1110
   61loPI   GL1  965  15.560   1.057   9.765 -0.0935  0.3558 -0.2600
   61loPI   GL2  966  15.214   1.226   9.641 -0.0662 -0.0854  0.1316
   61loPI   C1A  967  15.574   1.030   9.363 -0.2923 -0.1028  0.2504
   61loPI   C2A  968  15.725   1.168   8.941 -0.0468 -0.2880 -0.1587
   61loPI   C3A  969  15.433   1.160   8.586  0.3378  0.0918  0.0820
   61loPI   C4A  970  15.554   1.144   8.162 -0.0648 -0.0148  0.1759
   61loPI   C5A  971  15.717   1.389   7.823 -0.0520  0.0466  0.2476
   61loPI   C6A  972  15.840   1.570   7.443 -0.1971  0.4479 -0.2448
   61loPI   C1B  973  15.227   1.425   9.254 -0.0986 -0.1102 -0.0848
   61loPI   C2B  974  15.036   1.381   8.807  0.2329 -0.0992  0.0870
   61loPI   C3B  975  15.007   1.368   8.325  0.1652  0.1694 -0.1003
   61loPI   C4B  976  15.127   1.050   7.960  0.1581 -0.0729 -0.1258
   62loPI    C1  977  15.057   2.670  10.453  0.0508  0.3546  0.4391
   62loPI    C2  978  14.733   2.839  10.290  0.0434  0.0970  0.1784
   62loPI    C3  979  14.699   2.497  10.495  0.1541  0.0495  0.1188
   62loPI   PO4  980  15.238   2.608  10.200  0.2013 -0.1625 -0.0944
   62loPI   GL1  981  15.357   2.395   9.722  0.2770  0.0595  0.0829
   62loPI   GL2  982  15.227   2.102   9.770  0.3524 -0.0918  0.2351
   62loPI   C1A  983  15.028   2.350   9.408  0.0378 -0.1322  0.0354
   62loPI   C2A  984  15.116   2.301   8.970  0.0629 -0.1468 -0.0641
   62loPI   C3A  985  14.998   2.439   8.495 -0.1931  0.0927  0.1366
   62loPI   C4A  986  14.997   2.369   8.055  0.0191  0.0771  0.0244
   62loPI   C5A  987  15.037   2.055   7.821  0.0727 -0.0579 -0.1936
   62loPI   C6A  988  15.125   1.822   7.507 -0.1792  0.0957  0.2054
   62loPI   C1B  989  15.133   1.873   9.297 -0.0792 -0.1147 -0.0517
   62loPI   C2B  990  15.314   1.854   8.859 -0.1002 -0.2579  0.0189
   62loPI   C3B  991  15.267   1.837   8.442 -0.2281 -0.0621  0.1964
   62loPI   C4B  992  15.308   1.729   8.000 -0.0613 -0.1634  0.0155
   63loPI    C1  993   0.346   5.172  10.290  0.0733  0.0908 -0.1035
   63loPI    C2  994   0.582   5.407  10.511 -0.0381  0.0984  0.0083
   63loPI    C3  995   0.219   5.305  10.645 -0.0552 -0.0028 -0.1137
   63loPI   PO4  996   0.392   5.175   9.947  0.1853 -0.2763  0.2870
   63loPI   GL1  997   0.254   5.147   9.584 -0.2354 -0.4302  0.1271
   63loPI   GL2  998  -0.040   5.240   9.451  0.1710  0.0891  0.0701
   63loPI   C1A  999   0.533   5.135   9.108  0.1336 -0.1620 -0.2355
   63loPI   C2A 1000   0.887   5.392   8.845  0.0450 -0.0730  0.0420
   63loPI   C3A 1001   1.201   5.506   8.520  0.1730 -0.0487  0.0222
   63loPI   C4A 1002   1.299   5.364   8.019 -0.1622 -0.0376  0.2387
   63loPI   C5A 1003   1.196   5.535   7.663  0.0278 -0.3188  0.1075
   63loPI   C6A 1004   1.207   5.642   7.212 -0.2808 -0.1088  0.1266
   63loPI   C1B 1005   0.093   5.351   9.002 -0.0467  0.0776  0.1489
   63loPI   C2B 1006   0.351   5.422   8.677 -0.0454 -0.2117  0.0374
   63loPI   C3B 1007   0.725   5.186   8.359 -0.0052 -0.2617  0.1166
   63loPI   C4B 1008   0.883   4.980   8.029 -0.2521  0.2754 -0.0136
   64loPI    C1 1009   8.224   3.473   9.935 -0.2158  0.0187 -0.0354
   64loPI    C2 1010   8.032   3.341  10.260  0.1057 -0.0018  0.1508
   64loPI    C3 1011   8.295   3.641  10.291  0.0859  0.0446 -0.1049
   64loPI   PO4 1012   8.098   3.575   9.775  0.0622  0.1597 -0.0793
   64loPI   GL1 1013   8.244   3.715   9.443  0.2642  0.4835  0.2858
   64loPI   GL2 1014   8.274   4.034   9.652 -0.1483 -0.0885  0.0856
   64loPI   C1A 1015   8.430   3.598   9.073  0.2595 -0.1740  0.2034
   64loPI   C2A 1016   8.595   3.347   8.689 -0.3794 -0.1503 -0.0007
   64loPI   C3A 1017   8.892   3.153   8.317  0.2449 -0.1381  0.1971
   64loPI   C4A 1018   9.000   3.076   7.881  0.1926  0.1107 -0.0585
   64loPI   C5A 1019   8.988   3.319   7.505  0.0346 -0.1305 -0.0169
   64loPI   C6A 1020   8.740   3.620   7.239 -0.0640 -0.0225  0.0089
   64loPI   C1B 1021   8.253   4.170   9.223 -0.1526 -0.0255  0.0794
   64loPI   C2B 1022   8.341   4.076   8.816  0.2315  0.0422  0.1315
   64loPI   C3B 1023   8.309   4.086   8.325 -0.0067 -0.0986  0.2209
   64loPI   C4B 1024   8.481   4.131   7.965  0.0895 -0.3085 -0.2254
   65loPI    C1 1025   1.830  16.136  10.081  0.0580  0.0870 -0.0632
   65loPI    C2 1026   1.981  16.504  10.035  0.1304  0.0683  0.0227
   65loPI    C3 1027   2.087  16.282  10.351  0.0916 -0.0286 -0.0320
   65loPI   PO4 1028   1.959  15.998   9.881 -0.3779  0.1198  0.1753
   65loPI   GL1 1029   1.903  16.326   9.516  0.0585 -0.0880  0.0924
   65loPI   GL2 1030   1.680  15.969   9.480  0.0289  0.0059 -0.0036
   65loPI   C1A 1031   1.866  16.599   9.228  0.0034 -0.0206 -0.0780
   65loPI   C2A 1032   2.051  16.810   8.813  0.1717  0.0578  0.0099
   65loPI   C3A 1033   2.354  16.836   8.438  0.0118  0.0028  0.1417
   65loPI   C4A 1034   2.561  16.848   8.100 -0.2107 -0.2807  0.2473
   65loPI   C5A 1035   2.780  16.702   7.661 -0.2301  0.1441 -0.1944
   65loPI   C6A 1036   2.970  16.597   7.326 -0.2265  0.3605  0.0574
   65loPI   C1B 1037   1.604  16.081   9.100 -0.3239  0.0614 -0.2616
   65loPI   C2B 1038   1.665  15.940   8.641  0.0044 -0.0201 -0.2906
   65loPI   C3B 1039   1.481  16.104   8.235 -0.0362 -0.3367 -0.2731
   65loPI   C4B 1040   1.327  15.922   7.858 -0.1968  0.3032 -0.2623
   66loPI    C1 1041   1.312  18.772  10.228  0.2677 -0.3107 -0.0296
   66loPI    C2 1042   1.300  18.673  10.615 -0.1744 -0.0251  0.0379
   66loPI    C3 1043   1.537  18.971  10.493 -0.2177  0.0473  0.1291
   66loPI   PO4 1044   1.152  18.792  10.004 -0.1673 -0.1675  0.0107
   66loPI   GL1 1045   1.057  18.937   9.578  0.0915 -0.0763 -0.0372
   66loPI   GL2 1046   1.275  19.022   9.562 -0.1649  0.0899  0.0928
   66loPI   C1A 1047   1.194  18.822   9.128  0.0459  0.1323  0.0864
   66loPI   C2A 1048   1.194  19.065   8.788 -0.0187  0.0614  0.4151
   66loPI   C3A 1049   1.342  18.997   8.394  0.1386 -0.1471  0.3039
   66loPI   C4A 1050   1.463  18.912   8.014  0.3093  0.1393 -0.2899
   66loPI   C5A 1051   1.387  19.114   7.647 -0.0484 -0.2079  0.1189
   66loPI   C6A 1052   0.981  19.315   7.465  0.0382 -0.2593 -0.1957
   66loPI   C1B 1053   1.675  18.793   9.327  0.0400 -0.4450  0.0798
   66loPI   C2B 1054   1.955  18.555   9.099 -0.1815  0.1661 -0.1129
   66loPI   C3B 1055   1.984  18.316   8.702 -0.0207 -0.2404 -0.2708
   66loPI   C4B 1056   2.369  18.262   8.488  0.0581 -0.0977  0.0897
   67loPI    C1 1057   3.972  12.312  10.031 -0.0534  0.2413  0.0111
   67loPI    C2 1058   4.330  12.341  10.205 -0.0602  0.2168  0.0292
   67loPI    C3 1059   4.014  12.527  10.366 -0.1479 -0.1278  0.2661
   67loPI   PO4 1060   3.984  12.416   9.850  0.0222 -0.0504  0.0805
   67loPI   GL1 1061   4.148  12.478   9.456  0.1689  0.1899  0.1544
   67loPI   GL2 1062   4.137  12.875   9.561 -0.3456 -0.0162 -0.0197
   67loPI   C1A 1063   4.029  12.417   9.099 -0.2050 -0.0799  0.0871
   67loPI   C2A 1064   3.809  12.305   8.749  0.2286 -0.1815 -0.2306
   67loPI   C3A 1065   3.700  12.348   8.428 -0.1103  0.1588  0.1374
   67loPI   C4A 1066   3.826  12.544   8.136 -0.1171 -0.2436  0.1130
   67loPI   C5A 1067   3.792  12.455   7.710  0.0349 -0.0976  0.1536
   67loPI   C6A 1068   3.591  12.568   7.325 -0.0761  0.0026  0.2389
   67loPI   C1B 1069   3.978  13.287   9.366 -0.0315 -0.1445 -0.0075
   67loPI   C2B 1070   3.815  13.416   8.954 -0.2114 -0.1136 -0.0866
   67loPI   C3B 1071   3.811  13.448   8.525  0.1366 -0.0850  0.0801
   67loPI   C4B 1072   3.751  13.605   8.126 -0.2373  0.1061  0.1729
   68loPI    C1 1073  12.974   4.306   9.823 -0.1282 -0.0136  0.1352
   68loPI    C2 1074  12.833   4.621  10.026 -0.1309 -0.0784  0.2347
   68loPI    C3 1075  13.062   4.350  10.211  0.1432  0.0366  0.0700
   68loPI   PO4 1076  12.949   4.440   9.545  0.3208  0.1833  0.2636
   68loPI   GL1 1077  13.212   4.602   9.307 -0.0236 -0.0842 -0.0079
   68loPI   GL2 1078  13.545   4.678   9.193  0.2585 -0.1035 -0.0031
   68loPI   C1A 1079  13.099   4.580   8.879 -0.0873  0.3711  0.0005
   68loPI   C2A 1080  12.994   4.230   8.584  0.1425 -0.2246  0.2416
   68loPI   C3A 1081  12.926   4.007   8.160 -0.2216 -0.0531 -0.0382
   68loPI   C4A 1082  12.896   3.805   7.953 -0.0174  0.0296  0.2695
   68loPI   C5A 1083  13.028   3.617   7.641 -0.4158  0.0675 -0.0441
   68loPI   C6A 1084  13.093   3.437   7.232 -0.2576 -0.1364  0.0018
   68loPI   C1B 1085  13.603   4.814   8.789 -0.0180 -0.0827 -0.3139
   68loPI   C2B 1086  13.464   4.687   8.451 -0.0442  0.0139 -0.0883
   68loPI   C3B 1087  13.454   4.601   8.030 -0.2917 -0.4233 -0.1587
   68loPI   C4B 1088  13.550   4.529   7.581  0.5246 -0.2051 -0.1340
   69loPI    C1 1089   2.683   0.872  10.067  0.0128  0.0611 -0.1126
   69loPI    C2 1090   2.569   0.645  10.376 -0.0660  0.0307 -0.1636
   69loPI    C3 1091   2.773   0.983  10.441 -0.1641  0.0729 -0.0727
   69loPI   PO4 1092   2.789   0.681   9.918  0.3972 -0.2541 -0.2271
   69loPI   GL1 1093   2.901   0.294   9.598  0.0366 -0.0402 -0.0349
   69loPI   GL2 1094   3.229   0.239   9.482  0.1667 -0.0833  0.0685
   69loPI   C1A 1095   2.740   0.297   9.198  0.3340  0.1171  0.2116
   69loPI   C2A 1096   2.535   0.057   8.803 -0.1641 -0.0319  0.1062
   69loPI   C3A 1097   2.316  -0.039   8.422  0.2005 -0.0893 -0.1171
   69loPI   C4A 1098   2.364  -0.314   8.101  0.1130 -0.0367 -0.0996
   69loPI   C5A 1099   2.250  -0.228   7.567  0.0105  0.1194 -0.0702
   69loPI   C6A 1100   2.365  -0.322   7.138 -0.0244  0.1462 -0.1049
   69loPI   C1B 1101   3.332   0.433   9.035 -0.2150 -0.0706 -0.1932
   69loPI   C2B 1102   3.365   0.577   8.676  0.1045 -0.0541 -0.1998
   69loPI   C3B 1103   3.303   0.716   8.245  0.0407 -0.1124 -0.1824
   69loPI   C4B 1104   3.297   0.555   7.852 -0.0725 -0.2059 -0.0936
   70loPI    C1 1105   4.812  18.835  10.088 -0.3507 -0.0933  0.2034
   70loPI    C2 1106   4.853  18.443  10.020  0.0259 -0.0497  0.1598
   70loPI    C3 1107   4.839  18.580  10.395 -0.1832 -0.1103  0.1754
   70loPI   PO4 1108   4.616  18.991   9.885  0.2236  0.1185  0.0421
   70loPI   GL1 1109   4.421  19.052   9.591  0.0699  0.0676  0.0933
   70loPI   GL2 1110   4.216  18.845   9.543 -0.0321 -0.0102  0.4266
   70loPI   C1A 1111   4.504  19.139   9.186  0.1171 -0.1200 -0.1719
   70loPI   C2A 1112   4.579  19.033   8.763 -0.3727 -0.1540 -0.1350
   70loPI   C3A 1113   4.625  18.711   8.376 -0.0357 -0.0837  0.3116
   70loPI   C4A 1114   4.609  18.666   7.904  0.1767 -0.0590 -0.2499
   70loPI   C5A 1115   4.522  18.438   7.564  0.4684 -0.0073  0.1033
   70loPI   C6A 1116   4.325  17.981   7.512  0.2082  0.0714 -0.0642
   70loPI   C1B 1117   4.038  18.969   9.207  0.0503 -0.0965 -0.2321
   70loPI   C2B 1118   4.012  18.943   8.761 -0.2832  0.1603 -0.0005
   70loPI   C3B 1119   4.247  19.100   8.343 -0.3654 -0.1004  0.1259
   70loPI   C4B 1120   4.555  19.144   7.962 -0.0959  0.0061 -0.1184
   71loPI    C1 1121   4.803   5.688  10.039  0.2047 -0.0856  0.0133
   71loPI    C2 1122   5.049   5.787  10.338 -0.0852  0.2263  0.1548
   71loPI    C3 1123   5.036   6.011  10.007  0.0084  0.0595  0.0365
   71loPI   PO4 1124   4.766   5.465   9.965 -0.2628  0.1413 -0.2131
   71loPI   GL1 1125   4.947   5.190   9.595 -0.0706  0.2263 -0.0291
   71loPI   GL2 1126   4.834   5.344   9.329  0.0083 -0.1568  0.1240
   71loPI   C1A 1127   4.930   4.882   9.126 -0.0866  0.0989  0.0630
   71loPI   C2A 1128   5.163   4.618   8.859 -0.0283  0.1938 -0.0660
   71loPI   C3A 1129   5.475   4.567   8.497  0.1688  0.0718  0.1015
   71loPI   C4A 1130   5.300   4.544   8.049 -0.0632  0.0644  0.0440
   71loPI   C5A 1131   5.171   4.699   7.731  0.0680  0.0514 -0.0836
   71loPI   C6A 1132   5.085   5.167   7.604 -0.2419  0.0652  0.3594
   71loPI   C1B 1133   4.550   5.383   8.922  0.1844  0.0402  0.0383
   71loPI   C2B 1134   4.530   5.349   8.470 -0.0894 -0.0985  0.0902
   71loPI   C3B 1135   4.360   5.210   8.064  0.1096 -0.2727 -0.4080
   71loPI   C4B 1136   4.383   5.405   7.728 -0.0063 -0.2166 -0.1996
   72loPI    C1 1137   8.671   0.967   9.894  0.1530 -0.1119 -0.0584
   72loPI    C2 1138   8.976   1.029  10.146  0.1673  0.0536 -0.1154
   72loPI    C3 1139   8.702   0.749  10.229  0.3304 -0.0918 -0.0607
   72loPI   PO4 1140   8.758   1.208   9.683  0.1696  0.2094  0.0206
   72loPI   GL1 1141   8.697   1.452   9.307  0.2410  0.3086  0.1172
   72loPI   GL2 1142   8.645   1.094   9.231  0.1067  0.1396  0.3213
   72loPI   C1A 1143   8.394   1.534   8.999  0.4164  0.0638  0.2021
   72loPI   C2A 1144   8.425   1.438   8.518 -0.2866  0.3687  0.2163
   72loPI   C3A 1145   8.803   1.371   8.337  0.2472 -0.1063  0.2377
   72loPI   C4A 1146   8.972   1.472   7.950 -0.2440  0.3252 -0.1655
   72loPI   C5A 1147   9.226   1.261   7.640  0.0944  0.2424  0.2295
   72loPI   C6A 1148   9.473   1.044   7.343 -0.0966  0.0276 -0.0625
   72loPI   C1B 1149   8.792   1.362   8.850  0.0217  0.3711  0.2171
   72loPI   C2B 1150   9.199   1.360   8.611 -0.0256  0.0800 -0.2200
   72loPI   C3B 1151   9.352   1.615   8.264 -0.2771  0.0432 -0.2030
   72loPI   C4B 1152   9.476   1.678   7.875 -0.0349 -0.0737 -0.1223
   73loPI    C1 1153   6.831   0.666   9.628  0.0747  0.3871 -0.0261
   73loPI    C2 1154   7.205   0.761   9.733  0.0994  0.2534  0.0079
   73loPI    C3 1155   6.915   0.755  10.009  0.1764 -0.1580  0.0865
   73loPI   PO4 1156   6.888   0.398   9.523 -0.3113 -0.1657  0.0050
   73loPI   GL1 1157   7.152   0.151   9.223 -0.0697 -0.2341  0.0070
   73loPI   GL2 1158   6.879   0.060   9.178  0.1083  0.2244  0.0011
   73loPI   C1A 1159   7.370  -0.078   8.876  0.0672  0.1981  0.3276
   73loPI   C2A 1160   7.346  -0.421   8.661  0.1466  0.1786  0.0719
   73loPI   C3A 1161   7.178  -0.530   8.230 -0.0552  0.2573 -0.0486
   73loPI   C4A 1162   7.308  -0.718   7.841  0.2207 -0.1825  0.2167
   73loPI   C5A 1163   7.608  -0.986   7.611 -0.2934 -0.2237 -0.2049
   73loPI   C6A 1164   8.007  -0.932   7.441 -0.1118 -0.4148  0.2628
   73loPI   C1B 1165   6.908   0.015   8.761  0.1126 -0.2298  0.3367
   73loPI   C2B 1166   7.008  -0.094   8.398  0.0176  0.0875 -0.2203
   73loPI   C3B 1167   6.824  -0.271   7.936  0.0271 -0.0210  0.2381
   73loPI   C4B 1168   6.566  -0.179   7.584  0.2884  0.0966 -0.2465
   74loPI    C1 1169   0.941  13.484  10.219  0.2765  0.1847  0.1515
   74loPI    C2 1170   1.004  13.368  10.596  0.2276 -0.0341  0.0937
   74loPI    C3 1171   1.194  13.688  10.451  0.4318 -0.0920  0.2298
   74loPI   PO4 1172   0.923  13.304  10.094 -0.1286  0.2524 -0.0138
   74loPI   GL1 1173   0.739  13.010   9.683  0.2436  0.2050 -0.2293
   74loPI   GL2 1174   0.507  13.159   9.828 -0.1655 -0.0591  0.6325
   74loPI   C1A 1175   0.685  12.934   9.272 -0.0284  0.1243  0.3291
   74loPI   C2A 1176   0.608  13.136   9.022  0.1188  0.0083  0.0329
   74loPI   C3A 1177   0.535  13.348   8.716 -0.0915 -0.2753  0.2615
   74loPI   C4A 1178   0.541  13.103   8.303 -0.1588 -0.0189  0.0559
   74loPI   C5A 1179   0.505  13.273   7.887 -0.0001  0.0845  0.1764
   74loPI   C6A 1180   0.217  13.401   7.632  0.4188  0.0040 -0.1845
   74loPI   C1B 1181   0.396  13.393   9.410 -0.0623 -0.1010 -0.0253
   74loPI   C2B 1182   0.039  13.776   9.203 -0.2576  0.1067  0.1146
   74loPI   C3B 1183   0.004  13.994   8.855 -0.2404  0.0543  0.5203
   74loPI   C4B 1184   0.128  13.713   8.546  0.0100  0.1778 -0.0934
   75loPI    C1 1185   4.056  10.393   9.746  0.0906 -0.0051  0.1544
   75loPI    C2 1186   4.140  10.025   9.880  0.1461 -0.0446  0.0142
   75loPI    C3 1187   4.270  10.347  10.081 -0.0642 -0.0985  0.2415
   75loPI   PO4 1188   4.092  10.383   9.519  0.2877  0.1486  0.2743
   75loPI   GL1 1189   4.000  10.133   9.175  0.2555  0.2922 -0.2491
   75loPI   GL2 1190   4.133   9.977   9.147 -0.0922  0.0929  0.1223
   75loPI   C1A 1191   3.909  10.441   8.928 -0.1525 -0.0472 -0.0164
   75loPI   C2A 1192   3.888  10.405   8.478  0.0904 -0.1420  0.0120
   75loPI   C3A 1193   3.715  10.364   8.133  0.0299 -0.2655 -0.0551
   75loPI   C4A 1194   3.788  10.416   7.678 -0.1872  0.0478  0.2294
   75loPI   C5A 1195   3.658  10.660   7.329  0.2031  0.2060  0.0934
   75loPI   C6A 1196   3.520  10.975   7.052 -0.6494  0.0123  0.4259
   75loPI   C1B 1197   4.037   9.977   8.718 -0.2217  0.1100 -0.1708
   75loPI   C2B 1198   3.909   9.832   8.395 -0.2362 -0.1107 -0.0151
   75loPI   C3B 1199   3.827   9.668   8.016 -0.1985 -0.0689 -0.1192
   75loPI   C4B 1200   3.557   9.308   7.804  0.1430 -0.2376 -0.0815
   76loPI    C1 1201   0.700  16.746  10.048 -0.2440  0.0217 -0.0695
   76loPI    C2 1202   0.441  16.838  10.339 -0.2395 -0.2459  0.0217
   76loPI    C3 1203   0.768  16.623  10.422  0.0644  0.1642 -0.0751
   76loPI   PO4 1204   0.712  16.957   9.874 -0.2532 -0.0266 -0.2037
   76loPI   GL1 1205   0.535  17.277   9.650  0.3320  0.3480  0.4348
   76loPI   GL2 1206   0.395  17.012   9.477 -0.0902  0.1926 -0.0504
   76loPI   C1A 1207   0.718  17.400   9.284 -0.0847 -0.2508 -0.0580
   76loPI   C2A 1208   0.779  17.376   8.849 -0.0797 -0.1093 -0.1228
   76loPI   C3A 1209   0.760  17.479   8.414  0.2616  0.2579 -0.1789
   76loPI   C4A 1210   0.964  17.875   8.205  0.1541 -0.1478 -0.0617
   76loPI   C5A 1211   0.985  18.288   7.956 -0.0485 -0.0636 -0.1320
   76loPI   C6A 1212   1.016  18.652   7.735  0.0703 -0.3248 -0.2987
   76loPI   C1B 1213   0.567  16.970   9.028 -0.1230 -0.3249  0.4286
   76loPI   C2B 1214   0.551  17.018   8.601 -0.0037 -0.0824 -0.1576
   76loPI   C3B 1215   0.210  16.873   8.378  0.2327 -0.0306 -0.1945
   76loPI   C4B 1216  -0.066  16.924   8.006  0.0619 -0.0986 -0.2812
   77loPI    C1 1217   6.271   9.797   9.861 -0.1119  0.1842  0.0929
   77loPI    C2 1218   5.882   9.824   9.952 -0.0895 -0.0446  0.2640
   77loPI    C3 1219   6.135   9.644  10.205  0.0994 -0.0471  0.0759
   77loPI   PO4 1220   6.310   9.641   9.560  0.0514  0.3773  0.0011
   77loPI   GL1 1221   6.470   9.638   9.073  0.2060 -0.0177  0.0342
   77loPI   GL2 1222   6.081   9.663   9.065 -0.1410 -0.0560 -0.2040
   77loPI   C1A 1223   6.369   9.372   8.716 -0.0544 -0.1761  0.0719
   77loPI   C2A 1224   6.171   9.418   8.286 -0.0997  0.0678  0.0547
   77loPI   C3A 1225   6.317   9.479   7.868 -0.5048  0.2604 -0.1975
   77loPI   C4A 1226   6.185   9.433   7.528 -0.1619 -0.0141  0.3297
   77loPI   C5A 1227   6.024   9.943   7.422  0.3259  0.0642  0.1709
   77loPI   C6A 1228   6.106  10.294   7.080 -0.2688 -0.2292  0.1395
   77loPI   C1B 1229   5.952   9.633   8.716  0.1483  0.0046 -0.0436
   77loPI   C2B 1230   5.910   9.888   8.318 -0.3001  0.1767 -0.3874
   77loPI   C3B 1231   5.814  10.253   8.129  0.2465 -0.0521  0.1536
   77loPI   C4B 1232   6.006  10.648   8.047 -0.0696 -0.1858  0.2211
   78loPI    C1 1233  13.338   8.750   9.755  0.1825 -0.0985 -0.0450
   78loPI    C2 1234  13.550   8.844  10.081  0.1703 -0.2926  0.0198
   78loPI    C3 1235  13.172   8.716  10.117  0.1057 -0.1337 -0.0831
   78loPI   PO4 1236  13.512   8.886   9.572  0.0176  0.2578  0.0249
   78loPI   GL1 1237  13.584   8.727   9.226 -0.4134  0.0397 -0.4963
   78loPI   GL2 1238  13.794   8.596   9.081 -0.1362  0.1079  0.0675
   78loPI   C1A 1239  13.538   8.989   8.876 -0.1646 -0.1200  0.1303
   78loPI   C2A 1240  13.621   9.066   8.409  0.0046  0.1386 -0.0570
   78loPI   C3A 1241  13.641   9.269   7.964  0.1414 -0.0615  0.0509
   78loPI   C4A 1242  13.312   9.440   7.754 -0.2529  0.2890  0.1503
   78loPI   C5A 1243  12.884   9.656   7.763 -0.1353  0.0166  0.0423
   78loPI   C6A 1244  12.716  10.000   7.569  0.0721  0.4591 -0.2763
   78loPI   C1B 1245  13.988   8.538   8.638 -0.1402  0.2312  0.1701
   78loPI   C2B 1246  13.818   8.238   8.302 -0.0847 -0.0383 -0.3024
   78loPI   C3B 1247  13.781   8.049   7.957  0.1492 -0.1096 -0.0874
   78loPI   C4B 1248  14.039   8.012   7.553  0.1481  0.2139  0.0670
   79loPI    C1 1249   2.795  14.287  10.064 -0.0500 -0.0178  0.2400
   79loPI    C2 1250   2.409  14.372  10.000  0.0162  0.0003 -0.1603
   79loPI    C3 1251   2.557  14.017   9.890  0.0301 -0.1604  0.3495
   79loPI   PO4 1252   2.965  14.423   9.960  0.0660 -0.2022  0.1359
   79loPI   GL1 1253   3.177  14.246   9.749 -0.0024 -0.0179 -0.2550
   79loPI   GL2 1254   3.220  14.684   9.623  0.0728  0.2574 -0.1826
   79loPI   C1A 1255   3.004  14.025   9.413 -0.2418  0.0678  0.2639
   79loPI   C2A 1256   3.124  13.946   9.018  0.4135 -0.0919 -0.0347
   79loPI   C3A 1257   3.186  14.032   8.577  0.3406 -0.0259 -0.0392
   79loPI   C4A 1258   3.088  14.134   8.191  0.0105 -0.1045  0.1619
   79loPI   C5A 1259   3.042  14.570   7.985 -0.0046 -0.0734 -0.2019
   79loPI   C6A 1260   2.983  14.791   7.616 -0.0828 -0.1684 -0.2342
   79loPI   C1B 1261   3.184  14.478   9.214  0.1076 -0.0044  0.0249
   79loPI   C2B 1262   3.253  14.510   8.816  0.1090  0.3863  0.3767
   79loPI   C3B 1263   3.227  14.553   8.480 -0.1174  0.1363  0.1471
   79loPI   C4B 1264   3.428  14.951   8.205 -0.0288  0.2580  0.2509
   80loPI    C1 1265   2.289   6.203   9.882 -0.1847  0.3878  0.4067
   80loPI    C2 1266   2.643   6.231   9.699 -0.4474  0.2510 -0.1413
   80loPI    C3 1267   2.602   6.362  10.075  0.1673  0.3127 -0.0851
   80loPI   PO4 1268   2.096   6.341   9.709  0.0889  0.1096 -0.0456
   80loPI   GL1 1269   1.848   6.222   9.289  0.2103 -0.1076 -0.3968
   80loPI   GL2 1270   1.793   6.563   9.365 -0.2969  0.0887 -0.0003
   80loPI   C1A 1271   1.768   5.994   8.945 -0.0661 -0.0435  0.2191
   80loPI   C2A 1272   1.666   6.011   8.499  0.0679 -0.3264  0.0180
   80loPI   C3A 1273   1.448   5.871   8.072 -0.0982  0.0787  0.2403
   80loPI   C4A 1274   1.059   6.078   7.834 -0.3173  0.0743 -0.1759
   80loPI   C5A 1275   0.809   6.187   7.626 -0.1634 -0.1280  0.0509
   80loPI   C6A 1276   0.765   6.500   7.286 -0.0968 -0.1500  0.1107
   80loPI   C1B 1277   1.830   6.469   8.862 -0.0004 -0.1768  0.1226
   80loPI   C2B 1278   1.824   6.560   8.434 -0.0689 -0.1833  0.0589
   80loPI   C3B 1279   2.162   6.881   8.261  0.0968 -0.2222 -0.0384
   80loPI   C4B 1280   2.433   6.838   7.912  0.1618 -0.1824  0.1369
   81loPI    C1 1281  11.243  18.240  10.473  0.1037  0.0297  0.1324
   81loPI    C2 1282  10.959  18.013  10.640  0.0998  0.0036  0.0906
   81loPI    C3 1283  11.333  17.875  10.610  0.0373 -0.1120 -0.1905
   81loPI   PO4 1284  11.205  18.322  10.247  0.1050 -0.1078 -0.0379
   81loPI   GL1 1285  11.418  18.322   9.712  0.1922  0.0209 -0.3020
   81loPI   GL2 1286  11.230  18.555   9.760  0.2502  0.3609  0.0559
   81loPI   C1A 1287  11.179  18.416   9.250 -0.1718 -0.0468  0.0380
   81loPI   C2A 1288  10.997  18.760   8.858 -0.0436 -0.1310  0.5093
   81loPI   C3A 1289  10.870  19.012   8.548 -0.1392 -0.1243 -0.1003
   81loPI   C4A 1290  10.940  19.012   8.126 -0.2324  0.1027 -0.0368
   81loPI   C5A 1291  11.013  19.265   7.671  0.1498  0.0031 -0.2585
   81loPI   C6A 1292  11.010  19.630   7.465 -0.2621  0.3276  0.0432
   81loPI   C1B 1293  10.925  18.787   9.550  0.0761  0.2197  0.4168
   81loPI   C2B 1294  10.655  18.883   9.217  0.2211 -0.3834  0.1309
   81loPI   C3B 1295  10.471  18.713   8.879  0.2333 -0.2340  0.1820
   81loPI   C4B 1296  10.097  18.641   8.641  0.1463  0.0990  0.2888
   82loPI    C1 1297  14.163   5.056   9.576 -0.1181 -0.0447 -0.1844
   82loPI    C2 1298  14.485   4.838   9.669  0.0180  0.1606 -0.1697
   82loPI    C3 1299  14.315   5.073   9.945 -0.0017  0.2328 -0.2428
   82loPI   PO4 1300  13.981   4.863   9.455  0.0958 -0.0974 -0.3884
   82loPI   GL1 1301  14.026   4.732   9.135 -0.0997  0.0543 -0.3788
   82loPI   GL2 1302  14.039   4.437   9.049  0.3420 -0.0024  0.2404
   82loPI   C1A 1303  14.144   4.931   8.825 -0.5416 -0.0385  0.2225
   82loPI   C2A 1304  14.505   5.166   8.806 -0.1050 -0.0798  0.0899
   82loPI   C3A 1305  14.734   5.272   8.424  0.0589  0.0431 -0.3487
   82loPI   C4A 1306  14.861   4.976   8.035 -0.0736 -0.0745 -0.7500
   82loPI   C5A 1307  15.096   4.942   7.578  0.1184  0.0931 -0.1720
   82loPI   C6A 1308  15.361   4.744   7.275 -0.0400  0.2027  0.2398
   82loPI   C1B 1309  13.949   4.428   8.552 -0.1605  0.2223  0.1209
   82loPI   C2B 1310  13.921   4.569   8.140  0.1790 -0.2323 -0.0858
   82loPI   C3B 1311  14.077   4.959   7.943  0.1838  0.0025 -0.3576
   82loPI   C4B 1312  14.157   5.236   7.867  0.1405 -0.0387  0.1926
   83loPI    C1 1313  11.718   4.106   9.931  0.0462  0.1191 -0.1397
   83loPI    C2 1314  11.666   4.385  10.213  0.0511 -0.2165  0.2011
   83loPI    C3 1315  12.035   4.295  10.086  0.0534 -0.1050  0.1281
   83loPI   PO4 1316  11.551   4.233   9.666 -0.1992 -0.0307 -0.0726
   83loPI   GL1 1317  11.422   4.275   9.303  0.1803  0.2228 -0.2976
   83loPI   GL2 1318  11.556   4.071   9.084 -0.0753  0.0229 -0.3391
   83loPI   C1A 1319  11.231   4.295   8.819 -0.0944  0.2357  0.2825
   83loPI   C2A 1320  11.012   4.143   8.391 -0.1389 -0.0613  0.0144
   83loPI   C3A 1321  11.187   3.964   8.042  0.1915  0.0035  0.2915
   83loPI   C4A 1322  11.261   3.858   7.664 -0.0985  0.1513 -0.0394
   83loPI   C5A 1323  11.128   3.509   7.501  0.5008  0.0565  0.0610
   83loPI   C6A 1324  10.908   3.057   7.706 -0.0819  0.1154  0.0400
   83loPI   C1B 1325  11.717   4.025   8.636 -0.1895  0.0629 -0.0805
   83loPI   C2B 1326  11.665   4.082   8.194  0.0060  0.0664 -0.1719
   83loPI   C3B 1327  11.671   4.108   7.748  0.1071 -0.0580  0.0763
   83loPI   C4B 1328  11.660   3.982   7.327 -0.1710  0.0251  0.3646
   84loPI    C1 1329  15.016   4.544   9.776 -0.1169  0.2030 -0.0288
   84loPI    C2 1330  14.874   4.813  10.035  0.0208  0.0476  0.2124
   84loPI    C3 1331  15.009   4.461  10.167  0.2162  0.0180 -0.0585
   84loPI   PO4 1332  14.829   4.505   9.548  0.1816  0.1159 -0.0871
   84loPI   GL1 1333  14.528   4.666   9.203 -0.1166 -0.1565 -0.3442
   84loPI   GL2 1334  14.769   4.790   8.991 -0.2076  0.0011 -0.0181
   84loPI   C1A 1335  14.494   4.407   8.808  0.1586 -0.0136 -0.2830
   84loPI   C2A 1336  14.474   4.135   8.514 -0.0512 -0.2217 -0.0430
   84loPI   C3A 1337  14.251   4.176   8.098  0.0759  0.1531 -0.0405
   84loPI   C4A 1338  14.222   4.129   7.648 -0.1443  0.1523  0.3637
   84loPI   C5A 1339  14.129   4.362   7.395  0.3072 -0.1062  0.0871
   84loPI   C6A 1340  13.708   4.266   7.193 -0.1658  0.0172 -0.1696
   84loPI   C1B 1341  14.831   4.814   8.588  0.0502 -0.0002 -0.3227
   84loPI   C2B 1342  14.803   4.483   8.193  0.3553  0.2427 -0.1277
   84loPI   C3B 1343  14.930   4.521   7.816  0.0286  0.1480  0.0011
   84loPI   C4B 1344  14.879   4.405   7.466 -0.4393  0.1155 -0.0413
   85loPI    C1 1345  15.302   5.642   9.721  0.0476  0.0618 -0.0993
   85loPI    C2 1346  15.605   5.887   9.812  0.0031  0.0633  0.0473
   85loPI    C3 1347  15.374   5.963   9.494  0.1229  0.0918 -0.0333
   85loPI   PO4 1348  15.418   5.437   9.670  0.1665  0.2437 -0.0466
   85loPI   GL1 1349  15.395   5.238   9.291 -0.4175  0.2351  0.2158
   85loPI   GL2 1350  15.388   4.968   9.216  0.2138  0.1915  0.3110
   85loPI   C1A 1351  15.603   5.302   8.974  0.0203 -0.2551 -0.1343
   85loPI   C2A 1352  15.642   5.007   8.780 -0.2732  0.1801  0.3128
   85loPI   C3A 1353  15.787   4.849   8.363 -0.1309  0.0704  0.1590
   85loPI   C4A 1354  16.018   4.882   8.103 -0.2432 -0.0048 -0.0860
   85loPI   C5A 1355  16.235   4.933   7.736 -0.0636 -0.0229 -0.2175
   85loPI   C6A 1356  16.554   5.389   7.638 -0.1625 -0.1456  0.0730
   85loPI   C1B 1357  15.275   4.661   8.887  0.1753  0.0874  0.4968
   85loPI   C2B 1358  15.295   4.703   8.482 -0.0579  0.3347 -0.1534
   85loPI   C3B 1359  15.349   4.794   8.011 -0.0276 -0.4377 -0.0521
   85loPI   C4B 1360  15.599   5.164   7.803  0.1625 -0.4350  0.0060
   86loPI    C1 1361  13.410   0.800  10.415 -0.0129 -0.0127  0.1043
   86loPI    C2 1362  13.598   0.918  10.747  0.0720 -0.5369  0.2514
   86loPI    C3 1363  13.199   0.914  10.735  0.0682 -0.3490  0.2819
   86loPI   PO4 1364  13.629   0.582  10.206 -0.3056 -0.0681 -0.3937
   86loPI   GL1 1365  13.837   0.585   9.768  0.2062 -0.0256  0.3819
   86loPI   GL2 1366  13.574   0.629   9.569 -0.0828 -0.1877  0.0052
   86loPI   C1A 1367  14.056   0.433   9.416 -0.0056 -0.0383 -0.2727
   86loPI   C2A 1368  14.145   0.328   9.030  0.1169 -0.1168  0.0020
   86loPI   C3A 1369  14.099   0.170   8.641  0.2854  0.4589 -0.2502
   86loPI   C4A 1370  14.086   0.347   8.261  0.0714  0.0930 -0.0467
   86loPI   C5A 1371  14.167   0.590   7.829 -0.1263  0.2549 -0.1258
   86loPI   C6A 1372  14.407   0.479   7.479  0.2070  0.0517  0.1931
   86loPI   C1B 1373  13.717   0.986   9.490  0.1311 -0.1981 -0.1929
   86loPI   C2B 1374  13.919   1.289   9.261 -0.0362 -0.2615  0.2220
   86loPI   C3B 1375  13.860   1.358   8.788 -0.0713  0.0515  0.0618
   86loPI   C4B 1376  14.133   1.265   8.635 -0.0543  0.3230  0.2184
   87loPI    C1 1377  12.474  14.903  10.071 -0.0493  0.1164 -0.1122
   87loPI    C2 1378  12.383  14.568   9.872 -0.0973  0.0337  0.0473
   87loPI    C3 1379  12.189  14.659  10.210 -0.0742  0.2156  0.0125
   87loPI   PO4 1380  12.535  15.059   9.854 -0.0840 -0.1846  0.0068
   87loPI   GL1 1381  12.342  14.876   9.451 -0.0868 -0.0676 -0.1199
   87loPI   GL2 1382  12.359  15.158   9.325  0.0533 -0.0738 -0.2099
   87loPI   C1A 1383  12.376  14.731   9.105  0.2122 -0.0525  0.0051
   87loPI   C2A 1384  12.446  14.721   8.705  0.2640 -0.0863  0.2032
   87loPI   C3A 1385  12.395  14.723   8.222 -0.0996 -0.2384 -0.1296
   87loPI   C4A 1386  12.281  14.822   7.896 -0.3153 -0.0850 -0.0537
   87loPI   C5A 1387  11.847  14.815   7.666 -0.3272 -0.1580  0.0753
   87loPI   C6A 1388  11.441  15.064   7.565  0.1938 -0.0038 -0.1915
   87loPI   C1B 1389  12.206  15.176   8.941 -0.3214  0.0740  0.1635
   87loPI   C2B 1390  12.473  15.235   8.596  0.1727 -0.0316  0.0087
   87loPI   C3B 1391  12.620  15.227   8.128  0.2277 -0.0769  0.2113
   87loPI   C4B 1392  12.467  15.585   7.734 -0.1665 -0.0633  0.1356
   88loPI    C1 1393  14.136  16.235  10.157  0.1438  0.0291 -0.1248
   88loPI    C2 1394  14.071  16.611  10.037 -0.0203  0.0323 -0.0289
   88loPI    C3 1395  14.423  16.436   9.966  0.1304  0.2751  0.1080
   88loPI   PO4 1396  14.030  16.102   9.923  0.1626 -0.0657 -0.0292
   88loPI   GL1 1397  14.013  15.944   9.715 -0.0262 -0.0957  0.2097
   88loPI   GL2 1398  14.192  15.747   9.395 -0.1303  0.0162  0.0855
   88loPI   C1A 1399  13.747  15.904   9.290  0.0019 -0.1523 -0.0907
   88loPI   C2A 1400  13.893  15.779   8.905  0.0483 -0.2165 -0.2003
   88loPI   C3A 1401  14.114  15.771   8.537  0.2707  0.3545  0.0943
   88loPI   C4A 1402  13.922  15.835   8.083  0.0072  0.0017 -0.0496
   88loPI   C5A 1403  13.777  15.856   7.662 -0.1801  0.1581 -0.1896
   88loPI   C6A 1404  13.953  15.957   7.310  0.0262 -0.1974 -0.0450
   88loPI   C1B 1405  14.377  15.856   9.048  0.0417 -0.0587  0.3145
   88loPI   C2B 1406  14.665  16.013   8.900  0.2287 -0.1844 -0.1574
   88loPI   C3B 1407  14.717  16.183   8.489 -0.1998 -0.0098  0.0586
   88loPI   C4B 1408  14.913  16.194   8.104  0.0825  0.1233  0.2252
   89loPI    C1 1409   0.015  18.008  10.211 -0.3059 -0.3224 -0.0901
   89loPI    C2 1410  -0.217  18.309  10.335  0.1815  0.1826 -0.3635
   89loPI    C3 1411   0.132  18.238  10.516 -0.0734 -0.4409 -0.0879
   89loPI   PO4 1412  -0.118  17.967   9.955 -0.0074 -0.1767  0.2962
   89loPI   GL1 1413   0.026  17.903   9.533  0.0501 -0.3769 -0.1921
   89loPI   GL2 1414   0.245  17.680   9.411  0.0173 -0.2177 -0.1917
   89loPI   C1A 1415  -0.017  17.960   9.119 -0.3264 -0.2391  0.1744
   89loPI   C2A 1416  -0.039  17.788   8.737 -0.2214 -0.1029 -0.2995
   89loPI   C3A 1417  -0.038  17.876   8.305  0.0490  0.1380  0.1172
   89loPI   C4A 1418  -0.011  17.751   7.903 -0.1050  0.1747 -0.1470
   89loPI   C5A 1419   0.023  17.475   7.594  0.1006 -0.0097  0.1728
   89loPI   C6A 1420  -0.161  17.123   7.397  0.0297  0.0407  0.4476
   89loPI   C1B 1421   0.444  17.785   9.024  0.0769 -0.1228  0.1603
   89loPI   C2B 1422   0.877  17.865   8.962 -0.0675 -0.0638  0.2924
   89loPI   C3B 1423   1.160  17.985   8.628  0.0532 -0.1885 -0.0526
   89loPI   C4B 1424   1.246  18.347   8.424 -0.2767 -0.1224  0.1793
   90loPI    C1 1425  13.345   5.881   9.708  0.0192 -0.0607 -0.0938
   90loPI    C2 1426  13.149   6.230   9.705  0.1514  0.0167  0.0733
   90loPI    C3 1427  13.208   6.037  10.050  0.1623 -0.1244 -0.0066
   90loPI   PO4 1428  13.426   5.920   9.458 -0.2362 -0.2505  0.0100
   90loPI   GL1 1429  13.337   5.803   8.990  0.0608  0.1632 -0.0220
   90loPI   GL2 1430  13.149   5.546   8.995  0.0830 -0.0572 -0.1776
   90loPI   C1A 1431  13.777   5.786   8.882  0.3016 -0.0007 -0.1132
   90loPI   C2A 1432  13.819   5.672   8.365  0.1120 -0.0993  0.2322
   90loPI   C3A 1433  14.145   5.657   8.141 -0.2846 -0.0740  0.0018
   90loPI   C4A 1434  14.290   5.721   7.676  0.4793 -0.2878  0.0817
   90loPI   C5A 1435  14.579   5.581   7.535  0.0140  0.3053 -0.0172
   90loPI   C6A 1436  14.820   5.295   7.172 -0.4065 -0.0160 -0.3245
   90loPI   C1B 1437  13.314   5.512   8.574  0.4352 -0.2443  0.4441
   90loPI   C2B 1438  13.221   5.506   8.123 -0.1217  0.3733  0.2472
   90loPI   C3B 1439  13.230   5.432   7.644  0.0266 -0.1473 -0.1328
   90loPI   C4B 1440  13.260   5.618   7.154  0.2043  0.1023 -0.0975
   91loPI    C1 1441  14.118  14.586  10.073 -0.0864 -0.1808 -0.0783
   91loPI    C2 1442  14.331  14.324  10.288 -0.1357 -0.2225 -0.0801
   91loPI    C3 1443  14.447  14.706  10.266  0.0165 -0.2741 -0.1933
   91loPI   PO4 1444  14.085  14.445   9.782  0.0997 -0.1461  0.2458
   91loPI   GL1 1445  14.093  14.418   9.396 -0.2200 -0.1328 -0.3412
   91loPI   GL2 1446  13.750  14.571   9.252  0.0355 -0.3503 -0.1238
   91loPI   C1A 1447  14.222  14.138   9.099  0.2005  0.2041  0.1486
   91loPI   C2A 1448  14.355  14.175   8.667  0.1328  0.0987  0.1264
   91loPI   C3A 1449  14.502  14.107   8.342 -0.2818  0.0918  0.3626
   91loPI   C4A 1450  14.558  14.364   8.063  0.1085 -0.1054  0.1093
   91loPI   C5A 1451  14.529  14.406   7.673 -0.2991 -0.0128 -0.2527
   91loPI   C6A 1452  14.699  14.359   7.174 -0.1105  0.0481  0.2397
   91loPI   C1B 1453  13.930  14.494   8.847 -0.2139 -0.0805  0.2460
   91loPI   C2B 1454  13.981  14.373   8.398 -0.0017 -0.0001  0.0632
   91loPI   C3B 1455  13.884  14.569   7.963 -0.0320 -0.1156 -0.1516
   91loPI   C4B 1456  13.656  14.470   7.676 -0.3272 -0.1301 -0.1769
   92loPI    C1 1457   3.395  17.144  10.224 -0.1013  0.0857 -0.1457
   92loPI    C2 1458   3.590  17.488  10.286  0.0476  0.0142 -0.2137
   92loPI    C3 1459   3.593  17.202  10.566  0.0548  0.0064 -0.2218
   92loPI   PO4 1460   3.468  17.036  10.044  0.1933 -0.3132  0.0101
   92loPI   GL1 1461   3.446  17.139   9.580  0.0836 -0.0215 -0.0905
   92loPI   GL2 1462   3.767  17.033   9.549 -0.3509 -0.0133  0.2046
   92loPI   C1A 1463   3.489  17.124   9.157 -0.1580  0.0052  0.0462
   92loPI   C2A 1464   3.311  17.309   8.849  0.1739 -0.0636  0.0194
   92loPI   C3A 1465   3.401  17.415   8.348  0.0030  0.2589 -0.0460
   92loPI   C4A 1466   3.510  17.235   7.995  0.1945  0.0190 -0.1034
   92loPI   C5A 1467   3.591  17.249   7.612  0.1842  0.1270  0.2328
   92loPI   C6A 1468   3.495  17.276   7.205 -0.1521 -0.0386 -0.1601
   92loPI   C1B 1469   4.077  17.079   9.224  0.2060  0.0292  0.1283
   92loPI   C2B 1470   4.574  17.249   9.066  0.2107 -0.4425 -0.0839
   92loPI   C3B 1471   4.950  17.062   8.935  0.2696  0.4941 -0.3433
   92loPI   C4B 1472   5.260  17.076   8.660 -0.0003 -0.1711  0.0758
   93loPI    C1 1473  12.490   6.947   9.932  0.0743 -0.0307 -0.0055
   93loPI    C2 1474  12.221   6.945  10.227  0.0633  0.2558 -0.0114
   93loPI    C3 1475  12.587   6.798  10.290 -0.0985 -0.1600 -0.0111
   93loPI   PO4 1476  12.446   6.899   9.600  0.1198  0.1804  0.1179
   93loPI   GL1 1477  12.635   6.959   9.098  0.1435  0.1763  0.3205
   93loPI   GL2 1478  12.758   7.221   9.029  0.0672  0.2261 -0.1365
   93loPI   C1A 1479  12.564   6.661   8.753 -0.1614 -0.0352 -0.0733
   93loPI   C2A 1480  12.309   6.594   8.362  0.0302  0.0578 -0.0440
   93loPI   C3A 1481  11.891   6.457   8.160 -0.0082  0.0552  0.0414
   93loPI   C4A 1482  11.653   6.556   7.819 -0.0579 -0.2538 -0.0155
   93loPI   C5A 1483  11.676   6.443   7.437 -0.1003  0.0712  0.3465
   93loPI   C6A 1484  11.540   6.171   7.056  0.3247 -0.0383  0.2553
   93loPI   C1B 1485  12.889   7.255   8.598  0.0548  0.0038 -0.1607
   93loPI   C2B 1486  13.292   7.113   8.318 -0.1526 -0.2478 -0.0350
   93loPI   C3B 1487  13.567   6.991   7.961 -0.0451  0.0872 -0.2303
   93loPI   C4B 1488  13.572   7.206   7.604 -0.0204 -0.1130 -0.0579
   94loPI    C1 1489  16.692   9.231   9.574  0.0864 -0.1137  0.0027
   94loPI    C2 1490  16.658   9.424   9.923 -0.0304  0.0388 -0.0921
   94loPI    C3 1491  16.634   9.627   9.578  0.1991 -0.0940 -0.1883
   94loPI   PO4 1492  16.606   9.066   9.634  0.0893 -0.1231  0.1032
   94loPI   GL1 1493  16.804   8.969   9.166 -0.1079  0.0544 -0.0111
   94loPI   GL2 1494  16.586   8.727   9.124 -0.2142  0.0944  0.0653
   94loPI   C1A 1495  16.953   8.921   8.740  0.0402 -0.2564 -0.1363
   94loPI   C2A 1496  17.080   8.929   8.458 -0.1246  0.0225  0.1636
   94loPI   C3A 1497  16.950   8.855   8.086 -0.0846 -0.3650 -0.1307
   94loPI   C4A 1498  16.953   8.691   7.579  0.1291 -0.3071 -0.1758
   94loPI   C5A 1499  16.946   8.529   7.187  0.1902 -0.4561  0.1459
   94loPI   C6A 1500  17.059   8.079   7.106 -0.2503  0.1010 -0.0043
   94loPI   C1B 1501  16.595   8.615   8.649 -0.0378 -0.0596 -0.0454
   94loPI   C2B 1502  16.575   8.578   8.208  0.0077 -0.0839 -0.0818
   94loPI   C3B 1503  16.620   8.389   7.853  0.1608  0.1509 -0.2523
   94loPI   C4B 1504  16.603   7.997   7.465  0.0317  0.1279 -0.2081
   95loPI    C1 1505   0.020  17.401   9.842 -0.0677 -0.0506  0.2184
   95loPI    C2 1506   0.310  17.265  10.081 -0.0753 -0.3189  0.0782
   95loPI    C3 1507   0.022  17.499  10.230  0.1724 -0.1079  0.2330
   95loPI   PO4 1508  -0.026  17.200   9.698 -0.2713 -0.0031  0.1057
   95loPI   GL1 1509  -0.111  17.350   9.264  0.0202  0.2060 -0.0859
   95loPI   GL2 1510  -0.354  17.547   9.421  0.0818  0.1387  0.3146
   95loPI   C1A 1511   0.170  17.300   8.849  0.0426  0.1277  0.3590
   95loPI   C2A 1512   0.253  17.412   8.489 -0.1716 -0.1014  0.0171
   95loPI   C3A 1513   0.303  17.367   8.006 -0.4739  0.1073 -0.1187
   95loPI   C4A 1514   0.623  17.455   7.671 -0.0358  0.1829  0.1041
   95loPI   C5A 1515   0.596  17.729   7.290 -0.0330  0.1099  0.0772
   95loPI   C6A 1516   0.742  17.917   6.967  0.1246  0.3425  0.1185
   95loPI   C1B 1517  -0.445  17.675   9.038 -0.2115 -0.1534 -0.3112
   95loPI   C2B 1518  -0.471  18.005   8.870 -0.2276  0.0383 -0.2129
   95loPI   C3B 1519  -0.525  18.029   8.546  0.3346  0.1078 -0.2559
   95loPI   C4B 1520  -0.514  17.949   8.019  0.3401 -0.0052  0.0532
   96loPI    C1 1521  10.789   8.819   9.593  0.0833  0.1498 -0.1337
   96loPI    C2 1522  10.585   9.061   9.837  0.0314  0.0470 -0.0741
   96loPI    C3 1523  10.528   8.666   9.856  0.1238  0.0292 -0.1632
   96loPI   PO4 1524  10.784   8.883   9.354 -0.0349 -0.0893  0.0948
   96loPI   GL1 1525  10.866   8.592   9.052 -0.0790 -0.1823 -0.2388
   96loPI   GL2 1526  10.833   8.303   8.940  0.2562 -0.1284 -0.1800
   96loPI   C1A 1527  11.014   8.690   8.578 -0.3008  0.0026  0.0682
   96loPI   C2A 1528  10.958   8.731   8.154  0.0049  0.0307  0.0420
   96loPI   C3A 1529  11.115   8.462   7.912  0.2413  0.1225  0.1288
   96loPI   C4A 1530  11.213   8.356   7.587  0.1231  0.0312  0.0315
   96loPI   C5A 1531  11.086   8.359   7.249  0.0665 -0.1471 -0.0443
   96loPI   C6A 1532  10.827   8.507   7.021 -0.1715 -0.1396  0.1479
   96loPI   C1B 1533  10.743   8.266   8.473  0.1858  0.2448 -0.2049
   96loPI   C2B 1534  10.640   8.204   8.025  0.0170  0.2088  0.2159
   96loPI   C3B 1535  10.745   8.368   7.603 -0.2454  0.4331 -0.2726
   96loPI   C4B 1536  10.407   8.457   7.273  0.3293  0.0262  0.0232
   97loPI    C1 1537   3.253  13.207  10.005  0.1811 -0.0635 -0.0670
   97loPI    C2 1538   3.257  12.856  10.196 -0.1214 -0.0244  0.0154
   97loPI    C3 1539   3.184  13.193  10.399  0.1188  0.0820 -0.0721
   97loPI   PO4 1540   3.115  13.172   9.827 -0.0028 -0.2027 -0.1773
   97loPI   GL1 1541   2.959  13.068   9.463 -0.3946 -0.2338 -0.1795
   97loPI   GL2 1542   2.627  13.222   9.532  0.0076  0.1549  0.1794
   97loPI   C1A 1543   2.930  13.419   9.168 -0.5127 -0.1171  0.0377
   97loPI   C2A 1544   3.096  13.525   8.769 -0.2729 -0.1311 -0.2931
   97loPI   C3A 1545   3.325  13.549   8.376  0.0795  0.0711  0.1469
   97loPI   C4A 1546   3.305  13.291   8.009 -0.0370  0.2111  0.2345
   97loPI   C5A 1547   3.190  12.849   7.931  0.2218 -0.1660 -0.2940
   97loPI   C6A 1548   3.138  12.479   7.562 -0.0955 -0.0665  0.2994
   97loPI   C1B 1549   2.467  12.875   9.228 -0.1088 -0.1689  0.0167
   97loPI   C2B 1550   2.402  12.597   8.880  0.1680 -0.2590  0.0893
   97loPI   C3B 1551   2.435  12.717   8.497 -0.1268  0.2070 -0.2801
   97loPI   C4B 1552   2.752  12.697   8.219  0.1894 -0.1659 -0.0304
   98loPI    C1 1553  16.405   3.872   9.828 -0.2407  0.1279  0.0261
   98loPI    C2 1554  16.249   3.783  10.185  0.0590  0.1367  0.1621
   98loPI    C3 1555  16.599   3.625  10.075  0.0078  0.1985 -0.0960
   98loPI   PO4 1556  16.195   3.829   9.578  0.0056  0.0245  0.0853
   98loPI   GL1 1557  16.173   3.585   9.312  0.0556  0.2551 -0.2751
   98loPI   GL2 1558  16.433   3.704   9.053  0.0034  0.2830 -0.0105
   98loPI   C1A 1559  15.975   3.330   9.019 -0.4433 -0.2688 -0.1151
   98loPI   C2A 1560  16.045   3.369   8.627 -0.0120 -0.4368 -0.0178
   98loPI   C3A 1561  15.944   3.510   8.321 -0.2519  0.1738 -0.0971
   98loPI   C4A 1562  15.824   3.509   7.827 -0.1989 -0.4003 -0.1877
   98loPI   C5A 1563  15.646   3.710   7.391 -0.0302 -0.2272 -0.1369
   98loPI   C6A 1564  15.404   3.879   7.062  0.0796  0.3736  0.0924
   98loPI   C1B 1565  16.423   3.642   8.602 -0.2922  0.0913  0.0819
   98loPI   C2B 1566  16.382   3.543   8.147 -0.5510 -0.3547  0.0679
   98loPI   C3B 1567  16.378   3.327   7.720 -0.1635 -0.2470 -0.0484
   98loPI   C4B 1568  16.524   3.239   7.240  0.2502  0.2793  0.1559
   99loPI    C1 1569   1.161   5.926  10.130 -0.0927 -0.1375  0.0076
   99loPI    C2 1570   1.530   5.870  10.272  0.0926 -0.0117 -0.4092
   99loPI    C3 1571   1.247   6.027  10.507  0.2697 -0.2164 -0.0507
   99loPI   PO4 1572   1.174   6.036   9.920  0.1508 -0.3500  0.0005
   99loPI   GL1 1573   1.354   6.048   9.533  0.2358 -0.1738  0.0781
   99loPI   GL2 1574   1.371   6.327   9.395  0.1155  0.0441  0.1965
   99loPI   C1A 1575   1.633   5.698   9.343 -0.1871 -0.3102  0.1033
   99loPI   C2A 1576   1.582   5.539   8.870  0.3521 -0.0317 -0.1610
   99loPI   C3A 1577   1.633   5.464   8.360 -0.3952  0.1399  0.0710
   99loPI   C4A 1578   1.742   5.550   7.906 -0.0753 -0.1718 -0.0139
   99loPI   C5A 1579   1.635   5.701   7.605  0.2618 -0.1320 -0.0343
   99loPI   C6A 1580   1.433   6.001   7.495 -0.2734  0.1996 -0.3133
   99loPI   C1B 1581   1.402   6.281   9.016 -0.2469 -0.2249 -0.1429
   99loPI   C2B 1582   1.384   6.517   8.598  0.1055 -0.1222 -0.2489
   99loPI   C3B 1583   1.471   6.839   8.346  0.2121  0.1295 -0.0707
   99loPI   C4B 1584   1.463   7.026   7.954  0.0987  0.0860 -0.2469
  100loPI    C1 1585  13.723   1.764  10.162  0.0066 -0.0753  0.0175
  100loPI    C2 1586  13.363   1.934  10.202  0.1741  0.2389  0.2367
  100loPI    C3 1587  13.551   1.785  10.522  0.1367 -0.1476  0.0849
  100loPI   PO4 1588  13.715   1.520   9.996 -0.1764  0.2018  0.1909
  100loPI   GL1 1589  13.725   1.566   9.604  0.2285 -0.3304  0.0341
  100loPI   GL2 1590  13.676   1.852   9.421 -0.0338  0.1036  0.3381
  100loPI   C1A 1591  13.389   1.402   9.364  0.0212  0.1366 -0.0325
  100loPI   C2A 1592  13.074   1.483   9.058 -0.3969 -0.1202 -0.0890
  100loPI   C3A 1593  12.931   1.713   8.800  0.1476 -0.2293 -0.2467
  100loPI   C4A 1594  12.918   1.674   8.323 -0.0839 -0.2561  0.0966
  100loPI   C5A 1595  12.962   1.583   7.895  0.1142 -0.3093 -0.2886
  100loPI   C6A 1596  12.956   1.381   7.577 -0.3428 -0.1699  0.1619
  100loPI   C1B 1597  13.494   1.718   8.992 -0.2243  0.0012 -0.1574
  100loPI   C2B 1598  13.368   1.562   8.570  0.0649 -0.2933  0.2791
  100loPI   C3B 1599  13.302   1.396   8.168 -0.2693 -0.1067  0.0540
  100loPI   C4B 1600  13.483   1.491   7.746 -0.0568 -0.1627 -0.2317
  101loPI    C1 1601   3.777  14.984   9.958 -0.0172 -0.1156 -0.3536
  101loPI    C2 1602   4.061  15.153   9.734 -0.2437  0.3730 -0.2862
  101loPI    C3 1603   3.959  15.317  10.084 -0.4216  0.0476 -0.1811
  101loPI   PO4 1604   3.617  14.943   9.807  0.2175 -0.3684 -0.0995
  101loPI   GL1 1605   3.364  15.158   9.552 -0.0655 -0.1563 -0.1381
  101loPI   GL2 1606   3.088  15.282   9.648  0.2712  0.2592 -0.0076
  101loPI   C1A 1607   3.327  15.056   9.057 -0.1296 -0.1569  0.1662
  101loPI   C2A 1608   3.558  14.953   8.706 -0.0404 -0.1367 -0.0235
  101loPI   C3A 1609   3.861  14.941   8.416 -0.2366 -0.0403  0.0545
  101loPI   C4A 1610   4.143  15.030   8.023 -0.0308  0.2282  0.0009
  101loPI   C5A 1611   4.546  14.841   7.834 -0.1853 -0.0408  0.0492
  101loPI   C6A 1612   4.955  14.907   7.741 -0.4041 -0.0175 -0.0921
  101loPI   C1B 1613   3.000  15.442   9.304 -0.0065 -0.2991  0.0728
  101loPI   C2B 1614   2.798  15.368   8.929 -0.3111 -0.0041 -0.0657
  101loPI   C3B 1615   2.713  15.390   8.593  0.0186  0.0922 -0.0720
  101loPI   C4B 1616   2.785  15.610   8.182  0.0178  0.1132  0.1649
  102loPI    C1 1617  15.932   0.134  10.324 -0.0295  0.1720  0.0786
  102loPI    C2 1618  16.142   0.286  10.628  0.0488  0.1663  0.0278
  102loPI    C3 1619  16.076  -0.108  10.608 -0.1971  0.1975  0.1861
  102loPI   PO4 1620  15.900   0.324  10.149  0.0007 -0.3988  0.3712
  102loPI   GL1 1621  16.047   0.387   9.722  0.3034 -0.1939 -0.0736
  102loPI   GL2 1622  15.879   0.689   9.632  0.0198  0.0282  0.1619
  102loPI   C1A 1623  16.286   0.439   9.359 -0.0383  0.0410  0.2274
  102loPI   C2A 1624  16.362   0.478   8.944 -0.0286  0.2899  0.1367
  102loPI   C3A 1625  16.433   0.551   8.587  0.3406 -0.0791 -0.1739
  102loPI   C4A 1626  16.481   0.455   8.105 -0.0240 -0.1180 -0.0621
  102loPI   C5A 1627  16.305   0.771   7.742 -0.4357  0.0237 -0.0324
  102loPI   C6A 1628  16.263   1.055   7.359 -0.2099 -0.1701  0.0194
  102loPI   C1B 1629  15.769   0.491   9.306  0.1232  0.3435  0.2359
  102loPI   C2B 1630  15.726   0.341   9.059  0.1103  0.3598  0.1121
  102loPI   C3B 1631  15.519   0.191   8.681  0.1759  0.3165 -0.0448
  102loPI   C4B 1632  15.503   0.230   8.233 -0.2281  0.1366  0.1895
  103loPI    C1 1633   1.616   8.294  10.256 -0.0822  0.1319  0.0551
  103loPI    C2 1634   1.273   8.110  10.166 -0.0014 -0.0305  0.0757
  103loPI    C3 1635   1.521   7.949  10.435  0.0527  0.1287  0.1219
  103loPI   PO4 1636   1.534   8.489  10.015 -0.2384 -0.1136  0.0804
  103loPI   GL1 1637   1.599   8.639   9.613  0.0293  0.2628  0.2257
  103loPI   GL2 1638   1.350   8.934   9.482 -0.2271 -0.3236 -0.1082
  103loPI   C1A 1639   1.710   8.697   9.214  0.1529  0.1241  0.1661
  103loPI   C2A 1640   1.516   8.530   8.868  0.0736 -0.0677  0.1409
  103loPI   C3A 1641   1.393   8.683   8.508  0.1834 -0.2085 -0.0040
  103loPI   C4A 1642   1.450   8.486   8.009 -0.1163  0.2184 -0.2612
  103loPI   C5A 1643   1.267   8.564   7.562 -0.2662  0.1740 -0.2640
  103loPI   C6A 1644   1.208   8.933   7.303 -0.0038 -0.1966 -0.0196
  103loPI   C1B 1645   1.211   8.539   9.346  0.0049 -0.0663  0.1036
  103loPI   C2B 1646   0.887   8.271   9.187 -0.0377 -0.3189  0.1716
  103loPI   C3B 1647   0.458   8.431   9.062 -0.0261 -0.0810 -0.2287
  103loPI   C4B 1648   0.289   8.805   8.966  0.1949 -0.6646 -0.1070
  104loPI    C1 1649   2.531  15.635   9.955  0.0349 -0.0283 -0.0558
  104loPI    C2 1650   2.436  15.948  10.186 -0.0763 -0.0579 -0.0607
  104loPI    C3 1651   2.518  15.594  10.352 -0.1106 -0.0674 -0.0641
  104loPI   PO4 1652   2.719  15.719   9.866 -0.0228  0.2186  0.2535
  104loPI   GL1 1653   2.877  16.112   9.576 -0.4816  0.0503  0.2311
  104loPI   GL2 1654   2.666  15.976   9.333 -0.0772 -0.0683 -0.0511
  104loPI   C1A 1655   3.003  16.271   9.071 -0.0711  0.0201 -0.1829
  104loPI   C2A 1656   2.855  16.376   8.761  0.1176 -0.0201 -0.0454
  104loPI   C3A 1657   2.795  16.612   8.479  0.1299 -0.4036  0.1211
  104loPI   C4A 1658   3.126  16.609   8.044  0.4121  0.2309  0.3976
  104loPI   C5A 1659   3.420  16.202   7.954 -0.3584  0.1132  0.2436
  104loPI   C6A 1660   3.443  15.884   8.259  0.1528 -0.1497  0.3502
  104loPI   C1B 1661   2.659  15.891   8.948  0.1454 -0.1853 -0.1995
  104loPI   C2B 1662   2.468  15.853   8.588  0.3297  0.1005  0.1764
  104loPI   C3B 1663   2.395  15.842   8.041  0.2443  0.1291 -0.1294
  104loPI   C4B 1664   2.474  15.708   7.695  0.0397 -0.2768  0.1768
  105loPI    C1 1665  10.224   3.304  10.256 -0.2314 -0.0477  0.0125
  105loPI    C2 1666  10.289   2.915  10.189 -0.1254 -0.0384  0.0594
  105loPI    C3 1667  10.150   3.036  10.544 -0.2284 -0.0405  0.0199
  105loPI   PO4 1668  10.053   3.446  10.142 -0.2409 -0.1785 -0.2538
  105loPI   GL1 1669  10.024   3.587   9.727  0.1012 -0.2919  0.2909
  105loPI   GL2 1670   9.981   3.871   9.523  0.0516 -0.1483  0.2766
  105loPI   C1A 1671  10.054   3.423   9.361 -0.1371 -0.0474  0.0207
  105loPI   C2A 1672  10.225   3.134   9.218 -0.0024  0.1632  0.1500
  105loPI   C3A 1673  10.219   3.038   8.761 -0.0579 -0.1002  0.2310
  105loPI   C4A 1674  10.457   2.918   8.437  0.2242 -0.0566  0.0256
  105loPI   C5A 1675  10.652   2.805   8.069 -0.0640 -0.2377 -0.0126
  105loPI   C6A 1676  10.628   2.450   8.013  0.0573  0.1969 -0.1183
  105loPI   C1B 1677   9.904   3.819   9.074 -0.0867  0.0563  0.3036
  105loPI   C2B 1678   9.866   3.644   8.733  0.0529  0.0797 -0.3366
  105loPI   C3B 1679   9.752   3.809   8.371 -0.0349  0.1064  0.0351
  105loPI   C4B 1680   9.694   3.829   7.856  0.1770 -0.2663 -0.0434
  106loPI    C1 1681   3.739   9.115  10.332  0.1264 -0.1270 -0.0973
  106loPI    C2 1682   4.001   8.865  10.500 -0.0318 -0.1863  0.0638
  106loPI    C3 1683   3.731   9.054  10.727  0.0261  0.0599 -0.0689
  106loPI   PO4 1684   3.757   9.073  10.104  0.0605 -0.0055 -0.2387
  106loPI   GL1 1685   3.758   9.171   9.715  0.0423 -0.2460 -0.1396
  106loPI   GL2 1686   3.626   8.848   9.627  0.2187  0.0363 -0.1161
  106loPI   C1A 1687   3.371   9.244   9.436  0.1238  0.0901  0.0876
  106loPI   C2A 1688   3.154   9.289   9.177 -0.0159  0.1474 -0.0791
  106loPI   C3A 1689   2.992   9.476   8.842 -0.2210 -0.0467  0.1812
  106loPI   C4A 1690   3.016   9.693   8.383  0.0158  0.2825 -0.3059
  106loPI   C5A 1691   3.019   9.638   7.882  0.0453  0.2132 -0.1442
  106loPI   C6A 1692   2.729   9.652   7.522  0.1975 -0.0037  0.1616
  106loPI   C1B 1693   3.710   8.963   9.179  0.0502  0.1333  0.1324
  106loPI   C2B 1694   3.581   9.103   8.825  0.0802  0.0077  0.1061
  106loPI   C3B 1695   3.408   8.907   8.492 -0.0422  0.0687 -0.1534
  106loPI   C4B 1696   3.300   8.957   8.037  0.1287 -0.1930 -0.5060
  107loPI    C1 1697   2.896   5.457  10.218  0.0511  0.0847  0.1442
  107loPI    C2 1698   3.053   5.149  10.420 -0.0661  0.0049  0.1146
  107loPI    C3 1699   2.980   5.495  10.608 -0.0411 -0.0225  0.1750
  107loPI   PO4 1700   2.964   5.476  10.011  0.0368 -0.0223 -0.4097
  107loPI   GL1 1701   2.798   5.360   9.538 -0.2833  0.0317  0.2888
  107loPI   GL2 1702   2.462   5.390   9.354  0.1062 -0.3004 -0.2183
  107loPI   C1A 1703   2.839   5.058   9.180 -0.3350 -0.0474 -0.3210
  107loPI   C2A 1704   3.068   4.946   8.858  0.0691 -0.1815  0.2032
  107loPI   C3A 1705   3.184   4.788   8.503 -0.3398  0.2796 -0.0174
  107loPI   C4A 1706   2.959   4.641   8.186  0.2643  0.0075 -0.0419
  107loPI   C5A 1707   2.901   4.703   7.721  0.1439  0.1617 -0.0107
  107loPI   C6A 1708   2.927   4.467   7.344 -0.0212  0.6441  0.3914
  107loPI   C1B 1709   2.477   5.296   8.874  0.1244 -0.2958 -0.2955
  107loPI   C2B 1710   2.678   5.130   8.542 -0.0052 -0.0216 -0.0619
  107loPI   C3B 1711   2.684   5.086   8.158 -0.1087  0.0682 -0.0089
  107loPI   C4B 1712   2.577   5.111   7.758  0.0254  0.1012  0.0093
  108loPI    C1 1713   5.506   3.585   9.923 -0.2481 -0.0469 -0.0528
  108loPI    C2 1714   5.405   3.972   9.934  0.2123  0.0769  0.0538
  108loPI    C3 1715   5.248   3.717  10.199  0.1210  0.2448  0.1635
  108loPI   PO4 1716   5.468   3.533   9.738 -0.3275  0.0290 -0.0874
  108loPI   GL1 1717   5.128   3.496   9.473  0.0535  0.0932  0.1701
  108loPI   GL2 1718   5.253   3.288   9.335 -0.1401  0.1726 -0.1799
  108loPI   C1A 1719   5.093   3.692   9.036  0.1040 -0.0465 -0.0664
  108loPI   C2A 1720   5.025   3.672   8.551  0.1497 -0.1648 -0.1308
  108loPI   C3A 1721   4.643   3.466   8.336 -0.0350 -0.0398 -0.1732
  108loPI   C4A 1722   4.274   3.449   8.160  0.0239  0.0476 -0.2284
  108loPI   C5A 1723   4.236   3.805   7.807  0.1472  0.2643  0.0539
  108loPI   C6A 1724   4.026   4.098   7.520  0.0583  0.0733 -0.1644
  108loPI   C1B 1725   5.247   3.219   8.946 -0.1309  0.4234 -0.2185
  108loPI   C2B 1726   4.982   3.115   8.592  0.2660  0.0304  0.0559
  108loPI   C3B 1727   5.292   3.031   8.264 -0.4511  0.0352 -0.2392
  108loPI   C4B 1728   5.556   3.107   7.920 -0.1313  0.1831  0.0351
  109loPI    C1 1729  17.071   4.606   9.788  0.0936  0.0183 -0.0112
  109loPI    C2 1730  17.128   4.428  10.141  0.0642 -0.3041 -0.1649
  109loPI    C3 1731  16.790   4.631  10.072  0.2146  0.0494  0.1062
  109loPI   PO4 1732  17.312   4.731   9.679 -0.1135  0.1639 -0.0982
  109loPI   GL1 1733  17.429   4.845   9.246  0.0969  0.0523 -0.2027
  109loPI   GL2 1734  17.133   4.963   9.204 -0.1735 -0.2127 -0.3177
  109loPI   C1A 1735  17.441   4.780   8.823  0.1384  0.0652  0.0230
  109loPI   C2A 1736  17.552   4.808   8.364 -0.0782  0.2474  0.1362
  109loPI   C3A 1737  17.676   4.651   7.974  0.0885 -0.0822  0.0229
  109loPI   C4A 1738  17.571   4.485   7.550  0.1635 -0.0726  0.3451
  109loPI   C5A 1739  17.513   4.126   7.351  0.0065  0.3875 -0.1181
  109loPI   C6A 1740  17.513   3.809   7.083 -0.1711 -0.0415 -0.0929
  109loPI   C1B 1741  16.953   4.987   8.765  0.2667  0.0709  0.0674
  109loPI   C2B 1742  16.896   5.078   8.387  0.1071  0.0051  0.1400
  109loPI   C3B 1743  16.863   5.377   8.074  0.0941 -0.1071 -0.2533
  109loPI   C4B 1744  17.140   5.500   7.832  0.0392  0.0270  0.0623
  110loPI    C1 1745   2.342  18.821  10.175 -0.1241 -0.1333  0.2368
  110loPI    C2 1746   1.957  18.915  10.234 -0.0654  0.0769  0.2938
  110loPI    C3 1747   2.064  18.533  10.176 -0.2879  0.0233  0.2281
  110loPI   PO4 1748   2.484  18.995   9.959  0.1902  0.2786 -0.3107
  110loPI   GL1 1749   2.602  19.040   9.557  0.0842  0.1270 -0.0725
  110loPI   GL2 1750   2.389  19.225   9.487 -0.0047 -0.0827  0.3187
  110loPI   C1A 1751   2.341  18.883   9.146  0.0998  0.1133  0.0565
  110loPI   C2A 1752   2.206  18.806   8.716  0.0878  0.2078 -0.1657
  110loPI   C3A 1753   1.875  18.861   8.420 -0.1934 -0.0128 -0.0441
  110loPI   C4A 1754   1.698  18.552   8.340 -0.0258 -0.0759 -0.0844
  110loPI   C5A 1755   1.490  18.389   7.974 -0.0434 -0.0393 -0.1997
  110loPI   C6A 1756   1.369  18.152   7.606  0.3345  0.1455 -0.0585
  110loPI   C1B 1757   2.096  19.294   9.037 -0.1148 -0.0625  0.2255
  110loPI   C2B 1758   1.980  19.443   8.688 -0.1072  0.0908  0.1351
  110loPI   C3B 1759   1.810  19.323   8.265  0.0228  0.3503  0.0991
  110loPI   C4B 1760   1.857  19.158   7.843 -0.3325 -0.0449 -0.2381
  111loPI    C1 1761  16.842   7.738   9.498 -0.0623 -0.1841 -0.0316
  111loPI    C2 1762  17.160   7.544   9.642  0.0106 -0.0493 -0.0096
  111loPI    C3 1763  16.866   7.657   9.889  0.0882  0.0929  0.0189
  111loPI   PO4 1764  16.693   7.623   9.325 -0.4063 -0.3316  0.0891
  111loPI   GL1 1765  16.471   7.862   9.012  0.1615 -0.1758 -0.1233
  111loPI   GL2 1766  16.619   8.102   8.826  0.0458  0.2015 -0.2704
  111loPI   C1A 1767  16.430   7.637   8.596  0.2010  0.2385  0.0278
  111loPI   C2A 1768  16.583   7.427   8.271 -0.0858  0.2032  0.0630
  111loPI   C3A 1769  16.627   7.380   7.811 -0.1181 -0.1802 -0.1181
  111loPI   C4A 1770  16.700   7.530   7.351 -0.0222  0.4836 -0.1109
  111loPI   C5A 1771  16.953   7.290   7.059 -0.0632 -0.0903  0.1236
  111loPI   C6A 1772  17.262   7.065   6.957 -0.0653  0.1002 -0.1862
  111loPI   C1B 1773  16.543   8.078   8.373  0.0866  0.0635 -0.1349
  111loPI   C2B 1774  16.680   7.933   8.049  0.0863 -0.0075  0.1278
  111loPI   C3B 1775  16.991   7.894   7.747  0.5117 -0.3221 -0.1039
  111loPI   C4B 1776  17.169   7.631   7.386  0.0093 -0.2142 -0.1192
  112loPI    C1 1777   0.978   0.129  10.098 -0.0599  0.3704 -0.0322
  112loPI    C2 1778   1.228   0.172  10.408 -0.0123 -0.1256  0.0059
  112loPI    C3 1779   0.968  -0.132  10.401 -0.0661 -0.0765 -0.4067
  112loPI   PO4 1780   1.098   0.183   9.885 -0.1012  0.0960  0.2904
  112loPI   GL1 1781   0.876   0.287   9.510 -0.1184  0.0740 -0.1272
  112loPI   GL2 1782   0.731   0.523   9.496  0.0374 -0.0932 -0.0616
  112loPI   C1A 1783   1.053   0.192   9.113 -0.0252  0.0531 -0.0110
  112loPI   C2A 1784   1.400   0.286   8.817  0.0211  0.2159 -0.1203
  112loPI   C3A 1785   1.601   0.568   8.554  0.3850 -0.0372  0.2967
  112loPI   C4A 1786   1.671   0.639   8.155  0.1092  0.1300  0.0296
  112loPI   C5A 1787   1.860   0.453   7.856  0.1423 -0.3155  0.0729
  112loPI   C6A 1788   1.692   0.334   7.480  0.0393 -0.0203 -0.1895
  112loPI   C1B 1789   0.626   0.448   9.080  0.0881 -0.4555  0.0464
  112loPI   C2B 1790   0.827   0.386   8.663 -0.0007  0.2440 -0.4946
  112loPI   C3B 1791   0.853   0.110   8.320  0.0317 -0.1394 -0.1005
  112loPI   C4B 1792   0.936  -0.072   7.981  0.1832 -0.0675 -0.0755
  113loPI    C1 1793  14.727  18.336  10.065 -0.1952 -0.2160 -0.1857
  113loPI    C2 1794  14.648  18.631   9.807  0.0825  0.2043  0.1943
  113loPI    C3 1795  14.528  18.661  10.188  0.0062 -0.2355  0.2096
  113loPI   PO4 1796  14.944  18.292  10.055  0.1978  0.1830  0.0614
  113loPI   GL1 1797  15.141  18.500   9.769  0.0626  0.0671 -0.0720
  113loPI   GL2 1798  15.394  18.540   9.814 -0.2338 -0.0470 -0.4504
  113loPI   C1A 1799  14.898  18.675   9.349  0.2067 -0.1582 -0.5394
  113loPI   C2A 1800  14.752  18.725   8.840  0.1338  0.2267 -0.1820
  113loPI   C3A 1801  14.749  18.799   8.441  0.0196  0.0889 -0.0960
  113loPI   C4A 1802  14.588  18.853   8.008  0.4175 -0.0885 -0.0153
  113loPI   C5A 1803  14.385  18.867   7.651  0.0212 -0.3416  0.1174
  113loPI   C6A 1804  14.157  19.132   7.303 -0.0074 -0.4269  0.0250
  113loPI   C1B 1805  15.550  18.740   9.347  0.3188 -0.3575  0.2054
  113loPI   C2B 1806  15.657  18.982   8.941 -0.2552  0.0720  0.4247
  113loPI   C3B 1807  15.726  19.013   8.420  0.2061 -0.1138  0.3468
  113loPI   C4B 1808  16.025  19.012   8.015  0.0142 -0.3887 -0.1403
  114loPI    C1 1809   8.144   9.767   9.619 -0.0526 -0.2026  0.0077
  114loPI    C2 1810   8.361   9.848   9.945 -0.0392  0.0898 -0.0706
  114loPI    C3 1811   7.961   9.856   9.963 -0.0407 -0.0673 -0.0202
  114loPI   PO4 1812   8.282   9.913   9.416  0.0307  0.1306 -0.0471
  114loPI   GL1 1813   8.558   9.931   9.096  0.0247  0.0023  0.2456
  114loPI   GL2 1814   8.755  10.208   9.106  0.2453  0.1624 -0.1413
  114loPI   C1A 1815   8.349   9.942   8.686  0.1291 -0.2085  0.1141
  114loPI   C2A 1816   8.298   9.765   8.234  0.1948 -0.2321  0.0887
  114loPI   C3A 1817   8.148   9.956   7.870 -0.0745 -0.1610  0.1734
  114loPI   C4A 1818   7.993   9.817   7.447  0.3241  0.1277 -0.1694
  114loPI   C5A 1819   8.034   9.593   7.049  0.0897  0.1541  0.2326
  114loPI   C6A 1820   7.987   9.821   6.581 -0.0645  0.0456  0.3058
  114loPI   C1B 1821   8.884  10.134   8.684  0.2459  0.0239 -0.5851
  114loPI   C2B 1822   8.663  10.113   8.395 -0.1514  0.0069  0.0811
  114loPI   C3B 1823   8.795   9.951   8.025 -0.2880  0.2590 -0.0525
  114loPI   C4B 1824   9.072   9.922   7.597  0.4223  0.0804  0.0143
  115loPI    C1 1825   5.063   0.547   9.958 -0.1568 -0.1149  0.3027
  115loPI    C2 1826   4.977   0.163   9.888  0.0144 -0.1409  0.2325
  115loPI    C3 1827   5.137   0.271  10.238 -0.0876 -0.1251  0.2743
  115loPI   PO4 1828   4.825   0.684   9.797  0.1233  0.0815  0.0684
  115loPI   GL1 1829   4.840   0.668   9.386 -0.0708 -0.0769 -0.0594
  115loPI   GL2 1830   4.754   0.335   9.426  0.0030  0.1810 -0.3954
  115loPI   C1A 1831   4.857   0.819   8.931 -0.0445 -0.1509 -0.1760
  115loPI   C2A 1832   4.979   0.875   8.512 -0.4193 -0.1757 -0.1277
  115loPI   C3A 1833   4.822   0.744   8.141 -0.0266 -0.1529  0.2159
  115loPI   C4A 1834   4.763   0.740   7.692 -0.0263 -0.4136  0.1913
  115loPI   C5A 1835   4.849   0.894   7.384 -0.1454  0.2512 -0.0419
  115loPI   C6A 1836   4.720   1.142   7.170  0.0125 -0.0123 -0.0024
  115loPI   C1B 1837   4.909   0.189   8.979  0.2227 -0.0903  0.0512
  115loPI   C2B 1838   5.115   0.378   8.601  0.0443 -0.2301 -0.1629
  115loPI   C3B 1839   5.310   0.607   8.287 -0.1457  0.1646  0.0299
  115loPI   C4B 1840   5.669   0.789   8.103  0.5363  0.2935 -0.1470
  116loPI    C1 1841   4.808  13.640  10.291 -0.1161  0.4408  0.0022
  116loPI    C2 1842   4.752  13.259  10.401  0.2822  0.2644 -0.3729
  116loPI    C3 1843   4.873  13.530  10.670  0.0434  0.1196 -0.1140
  116loPI   PO4 1844   4.549  13.626  10.054 -0.2348  0.1275 -0.0866
  116loPI   GL1 1845   4.454  13.636   9.576 -0.0064  0.1726  0.3245
  116loPI   GL2 1846   4.573  13.334   9.501  0.0232 -0.0805 -0.0170
  116loPI   C1A 1847   4.600  13.934   9.246  0.1065  0.2029  0.1105
  116loPI   C2A 1848   4.686  14.168   8.782 -0.2985  0.0256 -0.1795
  116loPI   C3A 1849   4.676  14.100   8.326  0.0187  0.1824  0.0744
  116loPI   C4A 1850   4.807  13.881   7.950  0.0554 -0.2620  0.1134
  116loPI   C5A 1851   5.055  13.544   7.734 -0.0011 -0.3623  0.0312
  116loPI   C6A 1852   5.035  13.312   7.333  0.2270  0.0706 -0.0160
  116loPI   C1B 1853   4.559  13.439   9.008 -0.2135 -0.0068 -0.1072
  116loPI   C2B 1854   4.291  13.349   8.626  0.0261 -0.1381 -0.1026
  116loPI   C3B 1855   4.081  13.265   8.134  0.0436  0.1220  0.0806
  116loPI   C4B 1856   4.107  13.323   7.701  0.2804  0.1300  0.0204
  117loPI    C1 1857  18.582  11.431  10.496  0.0429  0.0495  0.0352
  117loPI    C2 1858  18.949  11.274  10.473  0.1120  0.2316 -0.1415
  117loPI    C3 1859  18.808  11.403  10.824  0.2059  0.1356 -0.0680
  117loPI   PO4 1860  18.386  11.297  10.284 -0.0822 -0.2640 -0.0470
  117loPI   GL1 1861  18.468  11.049   9.876  0.1139 -0.1071 -0.0818
  117loPI   GL2 1862  18.574  10.797   9.730 -0.0349  0.2211  0.0004
  117loPI   C1A 1863  18.462  11.297   9.492  0.1475 -0.0385  0.5326
  117loPI   C2A 1864  18.519  11.352   9.081  0.1971 -0.0729  0.2373
  117loPI   C3A 1865  18.623  11.314   8.690  0.0600  0.1268  0.0159
  117loPI   C4A 1866  18.324  11.364   8.362  0.2301 -0.0563 -0.0604
  117loPI   C5A 1867  18.366  11.530   7.887 -0.0199  0.0704 -0.0521
  117loPI   C6A 1868  18.468  11.898   7.541 -0.1758  0.4350  0.2613
  117loPI   C1B 1869  18.422  10.544   9.335  0.4017  0.0879 -0.0143
  117loPI   C2B 1870  18.298  10.546   8.780  0.0227 -0.0957 -0.1454
  117loPI   C3B 1871  18.422  10.753   8.388 -0.1687 -0.0306  0.1473
  117loPI   C4B 1872  18.646  10.989   8.216  0.0167 -0.0513 -0.0417
  118loPI    C1 1873  12.712  18.651  10.313  0.3767  0.0785  0.4239
  118loPI    C2 1874  12.560  18.662  10.683 -0.2379  0.0040  0.1856
  118loPI    C3 1875  12.487  18.348  10.445  0.0160  0.1245 -0.0579
  118loPI   PO4 1876  12.642  18.857  10.168 -0.2318 -0.1105  0.0752
  118loPI   GL1 1877  12.580  18.940   9.652  0.0908  0.1305  0.1221
  118loPI   GL2 1878  12.276  18.961   9.708  0.2181 -0.0598 -0.2135
  118loPI   C1A 1879  12.961  19.161   9.372 -0.1760 -0.1567 -0.0148
  118loPI   C2A 1880  13.218  19.203   9.016  0.1534 -0.3008  0.1116
  118loPI   C3A 1881  13.154  19.180   8.609 -0.2465 -0.0505  0.0023
  118loPI   C4A 1882  13.069  19.229   8.247 -0.1020  0.1540  0.0866
  118loPI   C5A 1883  12.807  19.275   7.952  0.2186 -0.4194  0.0819
  118loPI   C6A 1884  12.489  19.000   7.615 -0.2008  0.2195 -0.0956
  118loPI   C1B 1885  12.463  19.032   9.227  0.1503  0.2402 -0.2108
  118loPI   C2B 1886  12.701  19.150   8.909  0.2471  0.1864  0.0339
  118loPI   C3B 1887  12.682  19.330   8.539 -0.2681 -0.1320 -0.0822
  118loPI   C4B 1888  12.997  19.705   8.307 -0.2112  0.3272  0.2654
  119loPI    C1 1889  10.274  18.470  10.165 -0.1228 -0.0619 -0.1620
  119loPI    C2 1890   9.889  18.575  10.132 -0.0668  0.2257  0.0657
  119loPI    C3 1891  10.051  18.519  10.493  0.0614 -0.0692 -0.0349
  119loPI   PO4 1892  10.357  18.557  10.007  0.2237  0.1659  0.0739
  119loPI   GL1 1893  10.373  18.620   9.573  0.0671 -0.1357  0.0980
  119loPI   GL2 1894  10.303  18.257   9.587  0.0587  0.2777 -0.2099
  119loPI   C1A 1895  10.038  18.495   9.208 -0.2065  0.0220  0.0934
  119loPI   C2A 1896   9.794  18.183   8.967  0.0113 -0.0661  0.1941
  119loPI   C3A 1897   9.663  17.979   8.555 -0.1952 -0.1510  0.0772
  119loPI   C4A 1898   9.584  17.961   8.174  0.0751  0.2643  0.2763
  119loPI   C5A 1899   9.619  18.095   7.805 -0.0028 -0.1786  0.2872
  119loPI   C6A 1900   9.780  18.107   7.392  0.2249  0.3631  0.0295
  119loPI   C1B 1901  10.636  18.364   9.230  0.1603  0.1442 -0.0971
  119loPI   C2B 1902  10.829  18.228   8.878  0.2324  0.3124  0.0120
  119loPI   C3B 1903  11.344  18.323   8.730 -0.3173  0.0084  0.0961
  119loPI   C4B 1904  11.422  18.410   8.342  0.1122  0.0500 -0.4330
  120loPI    C1 1905   6.941   3.556  10.099  0.1747  0.1090 -0.0069
  120loPI    C2 1906   7.055   3.173  10.110  0.0256  0.0631 -0.0387
  120loPI    C3 1907   6.864   3.334  10.422  0.1577  0.1340  0.0062
  120loPI   PO4 1908   7.187   3.637   9.991 -0.2288  0.4075 -0.1945
  120loPI   GL1 1909   7.307   3.744   9.582  0.1147  0.1115  0.1141
  120loPI   GL2 1910   7.171   4.076   9.574 -0.1815 -0.0554  0.2051
  120loPI   C1A 1911   7.398   3.725   9.303 -0.0439 -0.1332  0.1825
  120loPI   C2A 1912   7.469   3.426   8.925 -0.0745  0.1660  0.0385
  120loPI   C3A 1913   7.581   3.335   8.473  0.1726 -0.3366 -0.1744
  120loPI   C4A 1914   7.589   3.421   8.010  0.2205 -0.1723  0.2385
  120loPI   C5A 1915   7.246   3.464   7.711  0.3087 -0.2616  0.1387
  120loPI   C6A 1916   7.063   3.327   7.386  0.1067  0.1211 -0.0891
  120loPI   C1B 1917   7.057   4.197   9.074  0.0463 -0.1141  0.1328
  120loPI   C2B 1918   6.873   4.303   8.704 -0.1906  0.3141 -0.3255
  120loPI   C3B 1919   6.764   4.408   8.232 -0.2028 -0.0546 -0.2928
  120loPI   C4B 1920   6.930   4.641   7.911  0.0417 -0.0353  0.0275
  121loPI    C1 1921   7.681   7.127   9.851  0.0281  0.1591 -0.0049
  121loPI    C2 1922   7.942   7.378  10.020  0.0369  0.1442  0.0039
  121loPI    C3 1923   7.737   7.121  10.247  0.0518  0.1213 -0.0086
  121loPI   PO4 1924   7.835   6.915   9.597  0.1027  0.0591 -0.3809
  121loPI   GL1 1925   7.746   6.461   9.496 -0.3038  0.1890 -0.3067
  121loPI   GL2 1926   7.568   6.631   9.293  0.1290  0.1193  0.0688
  121loPI   C1A 1927   8.035   6.412   9.122 -0.0140  0.0475 -0.0238
  121loPI   C2A 1928   7.989   6.299   8.690  0.3134 -0.0851  0.5301
  121loPI   C3A 1929   7.886   6.173   8.337 -0.3584  0.1942 -0.0003
  121loPI   C4A 1930   7.773   5.842   8.015  0.0638  0.0593  0.6165
  121loPI   C5A 1931   7.981   5.553   7.764  0.1362  0.2740  0.0169
  121loPI   C6A 1932   8.254   5.381   7.520 -0.1101 -0.2832 -0.1161
  121loPI   C1B 1933   7.699   6.682   8.838 -0.2456  0.1425 -0.1068
  121loPI   C2B 1934   7.637   6.743   8.459 -0.3870 -0.1992  0.1166
  121loPI   C3B 1935   7.552   6.803   8.053  0.0877 -0.4469 -0.1439
  121loPI   C4B 1936   7.449   6.768   7.630  0.1848 -0.0779  0.0142
  122loPI    C1 1937   8.313   9.320  10.041 -0.0354 -0.3081 -0.0914
  122loPI    C2 1938   7.927   9.414  10.086  0.0542  0.0143  0.0401
  122loPI    C3 1939   8.051   9.039  10.151 -0.2477 -0.1108 -0.0855
  122loPI   PO4 1940   8.405   9.382   9.791 -0.4485 -0.5937 -0.1105
  122loPI   GL1 1941   8.412   9.421   9.331 -0.0485 -0.0258  0.1561
  122loPI   GL2 1942   8.101   9.472   9.217  0.2005  0.2177  0.0826
  122loPI   C1A 1943   8.445   9.388   8.915 -0.0102  0.0791  0.2363
  122loPI   C2A 1944   8.374   9.309   8.454 -0.1674 -0.0543 -0.2501
  122loPI   C3A 1945   8.493   9.041   8.126  0.1361 -0.1054  0.3222
  122loPI   C4A 1946   8.545   8.727   7.848  0.1923 -0.3298  0.0343
  122loPI   C5A 1947   8.566   8.396   7.677  0.3785  0.3305  0.2880
  122loPI   C6A 1948   8.908   8.092   7.648 -0.2579 -0.0331 -0.0205
  122loPI   C1B 1949   8.005   9.590   8.813 -0.2823  0.1497  0.3443
  122loPI   C2B 1950   7.866   9.526   8.359  0.2096 -0.0663  0.1026
  122loPI   C3B 1951   8.102   9.372   7.951 -0.0513  0.0999  0.0440
  122loPI   C4B 1952   8.241   9.388   7.475  0.2321  0.3247 -0.2741
  123loPI    C1 1953   2.749  11.977  10.279 -0.0090  0.1098  0.2308
  123loPI    C2 1954   3.051  12.033  10.535  0.0903 -0.1762  0.1806
  123loPI    C3 1955   2.946  11.662  10.429 -0.2371 -0.0765  0.1464
  123loPI   PO4 1956   2.719  11.986  10.022 -0.1521  0.2223 -0.1104
  123loPI   GL1 1957   2.596  12.304   9.659  0.0847 -0.0004 -0.0275
  123loPI   GL2 1958   2.396  12.477   9.473  0.0346 -0.1708  0.1145
  123loPI   C1A 1959   2.696  12.299   9.156  0.1187 -0.0144  0.0223
  123loPI   C2A 1960   2.793  12.378   8.728  0.0767  0.2887 -0.0086
  123loPI   C3A 1961   2.582  12.246   8.342 -0.1712  0.4814  0.1372
  123loPI   C4A 1962   2.300  12.428   8.107  0.0311  0.0707  0.0035
  123loPI   C5A 1963   2.203  12.223   7.808 -0.1589  0.1251  0.2516
  123loPI   C6A 1964   2.302  11.790   7.588 -0.0611 -0.0496  0.1540
  123loPI   C1B 1965   2.026  12.435   9.210  0.1044  0.2553 -0.1886
  123loPI   C2B 1966   1.798  12.505   8.891  0.3704  0.0284 -0.0277
  123loPI   C3B 1967   1.789  12.486   8.424 -0.1272 -0.1924  0.1913
  123loPI   C4B 1968   1.702  12.348   8.008 -0.1251  0.2537 -0.0375
  124loPI    C1 1969  11.146  17.307  10.192  0.0937  0.2955 -0.0803
  124loPI    C2 1970  10.994  17.549  10.472  0.1811  0.2192  0.0342
  124loPI    C3 1971  11.355  17.384  10.525  0.1814  0.1737 -0.1065
  124loPI   PO4 1972  11.072  17.458   9.975 -0.1182 -0.0359  0.1304
  124loPI   GL1 1973  11.075  17.464   9.531  0.0895  0.2890  0.0966
  124loPI   GL2 1974  11.300  17.713   9.615 -0.1408  0.1980 -0.1578
  124loPI   C1A 1975  11.473  17.459   9.160  0.2480 -0.0351 -0.0266
  124loPI   C2A 1976  11.525  17.472   8.651  0.0073  0.2982 -0.2238
  124loPI   C3A 1977  11.594  17.521   8.106  0.2816  0.0906 -0.2072
  124loPI   C4A 1978  11.635  17.733   7.860  0.1453  0.2001 -0.0891
  124loPI   C5A 1979  11.484  17.877   7.528 -0.0683 -0.1190 -0.0936
  124loPI   C6A 1980  11.170  17.808   7.268  0.1077 -0.1145  0.3904
  124loPI   C1B 1981  11.428  17.990   9.335 -0.0354 -0.3115 -0.3658
  124loPI   C2B 1982  11.669  17.977   9.055 -0.0782 -0.0440 -0.0337
  124loPI   C3B 1983  11.706  17.934   8.607 -0.0679  0.1807  0.1531
  124loPI   C4B 1984  11.756  18.064   8.207  0.2827 -0.1695  0.0681
  125loPI    C1 1985   5.575   2.615   9.772  0.0847  0.0111 -0.1939
  125loPI    C2 1986   5.759   2.261   9.792 -0.2512 -0.1497  0.1851
  125loPI    C3 1987   5.910   2.576   9.986 -0.0434 -0.1238 -0.0148
  125loPI   PO4 1988   5.287   2.593   9.764 -0.1955  0.0373 -0.0812
  125loPI   GL1 1989   4.970   2.679   9.428  0.0743 -0.1549  0.0800
  125loPI   GL2 1990   4.855   3.015   9.397  0.0240  0.1946 -0.4207
  125loPI   C1A 1991   4.991   2.316   9.107  0.1799 -0.0840  0.0159
  125loPI   C2A 1992   5.151   2.271   8.687  0.0150  0.1375 -0.0297
  125loPI   C3A 1993   5.488   2.108   8.443 -0.1297  0.0635  0.1500
  125loPI   C4A 1994   5.895   2.223   8.295 -0.1029  0.0165 -0.0802
  125loPI   C5A 1995   6.002   2.101   7.828 -0.0997 -0.1037  0.1224
  125loPI   C6A 1996   5.801   2.139   7.469  0.2930  0.3261  0.3924
  125loPI   C1B 1997   4.845   2.803   8.944 -0.1653  0.0529 -0.2915
  125loPI   C2B 1998   4.847   2.597   8.497  0.2812  0.0787 -0.0652
  125loPI   C3B 1999   4.797   2.557   7.957  0.1655 -0.1766 -0.0283
  125loPI   C4B 2000   5.053   2.297   7.778  0.0189  0.0915  0.4496
  126loPI    C1 2001  14.464   3.665   9.652 -0.0708  0.1851 -0.0030
  126loPI    C2 2002  14.517   3.636  10.047  0.0163 -0.2193 -0.0401
  126loPI    C3 2003  14.165   3.538   9.885 -0.0012 -0.1084 -0.0703
  126loPI   PO4 2004  14.655   3.564   9.551 -0.1409 -0.0804 -0.1180
  126loPI   GL1 2005  14.751   3.349   9.214  0.1749  0.1140 -0.1010
  126loPI   GL2 2006  14.770   3.721   9.055  0.1546 -0.3685  0.0736
  126loPI   C1A 2007  14.566   3.198   8.863  0.1822 -0.0016  0.3003
  126loPI   C2A 2008  14.633   3.316   8.455  0.1039  0.2373 -0.0607
  126loPI   C3A 2009  14.439   3.178   8.060 -0.0246  0.1146 -0.1890
  126loPI   C4A 2010  14.610   2.765   7.887 -0.0062  0.0015  0.2265
  126loPI   C5A 2011  14.821   2.515   7.503 -0.1101 -0.0865 -0.1542
  126loPI   C6A 2012  15.080   2.489   7.178  0.0445 -0.0629  0.1222
  126loPI   C1B 2013  14.732   3.757   8.681  0.0782 -0.0396  0.1528
  126loPI   C2B 2014  14.341   3.642   8.651  0.1298 -0.0001  0.1158
  126loPI   C3B 2015  14.271   3.666   8.247 -0.2301 -0.2901  0.1008
  126loPI   C4B 2016  14.380   3.691   7.807  0.1742 -0.0750  0.1352
  127loPI    C1 2017  16.850   4.151   9.406 -0.1195 -0.1342 -0.1073
  127loPI    C2 2018  17.185   4.161   9.625 -0.0655  0.1624 -0.1994
  127loPI    C3 2019  16.827   4.172   9.805 -0.0243  0.0823 -0.1118
  127loPI   PO4 2020  16.877   3.970   9.291 -0.0084  0.1010 -0.0234
  127loPI   GL1 2021  16.899   3.877   8.919 -0.2656  0.1737 -0.2511
  127loPI   GL2 2022  16.599   4.099   8.741  0.0866  0.1290 -0.0710
  127loPI   C1A 2023  17.170   3.987   8.531 -0.0634  0.1138 -0.0201
  127loPI   C2A 2024  17.199   4.018   8.134  0.0241  0.1500 -0.2302
  127loPI   C3A 2025  17.186   4.199   7.766  0.1119 -0.0573  0.3401
  127loPI   C4A 2026  17.129   4.502   7.446  0.0965 -0.0709 -0.0189
  127loPI   C5A 2027  16.918   4.572   7.161 -0.3425 -0.1935 -0.3384
  127loPI   C6A 2028  16.608   4.580   6.894  0.1787 -0.2142  0.1562
  127loPI   C1B 2029  16.683   4.097   8.287 -0.2994  0.1915 -0.1319
  127loPI   C2B 2030  16.753   3.997   7.813  0.4720  0.5016 -0.0780
  127loPI   C3B 2031  16.561   3.746   7.511 -0.0128  0.2098 -0.1220
  127loPI   C4B 2032  16.624   3.774   7.075  0.2747  0.0185  0.0880
  128loPI    C1 2033   9.481  15.168  10.441 -0.0940  0.3047  0.0603
  128loPI    C2 2034   9.427  15.398  10.764 -0.2229  0.1687  0.1368
  128loPI    C3 2035   9.123  15.181  10.620 -0.0554 -0.0959  0.1756
  128loPI   PO4 2036   9.473  15.380  10.217  0.1476  0.2517 -0.4156
  128loPI   GL1 2037   9.741  15.386   9.837 -0.2963  0.1833 -0.1005
  128loPI   GL2 2038   9.530  15.579   9.771  0.3549  0.2443 -0.2265
  128loPI   C1A 2039   9.800  15.250   9.374  0.0172  0.2774  0.2253
  128loPI   C2A 2040   9.751  15.413   8.930 -0.1905 -0.2792  0.3507
  128loPI   C3A 2041   9.493  15.171   8.639  0.1790 -0.0588 -0.1390
  128loPI   C4A 2042   9.389  14.904   8.347 -0.4105 -0.2992  0.4353
  128loPI   C5A 2043   9.401  14.767   7.898 -0.1539  0.2376 -0.0202
  128loPI   C6A 2044   9.733  14.684   7.589 -0.4018 -0.0920 -0.2454
  128loPI   C1B 2045   9.459  15.661   9.380  0.2014  0.0558 -0.0241
  128loPI   C2B 2046   9.293  15.533   9.076 -0.0261  0.1533  0.1623
  128loPI   C3B 2047   9.236  15.634   8.603  0.1830  0.0357 -0.2125
  128loPI   C4B 2048   9.143  15.834   8.176 -0.3077 -0.1223  0.1368
  129loPI    C1 2049   5.689  10.314   9.365 -0.0432 -0.0457  0.0261
  129loPI    C2 2050   6.030  10.282   9.160  0.0795  0.0127  0.2182
  129loPI    C3 2051   5.916   9.988   9.406 -0.1612 -0.1409 -0.0699
  129loPI   PO4 2052   5.606  10.563   9.430 -0.0256  0.1056 -0.2631
  129loPI   GL1 2053   5.218  10.699   9.259 -0.0077 -0.1273  0.0993
  129loPI   GL2 2054   5.439  10.589   8.979 -0.1670 -0.0203  0.2767
  129loPI   C1A 2055   5.017  10.924   8.912 -0.0366 -0.1078  0.1363
  129loPI   C2A 2056   5.136  11.099   8.432 -0.0187 -0.0858  0.0103
  129loPI   C3A 2057   5.363  11.010   8.071  0.2172  0.0711  0.2749
  129loPI   C4A 2058   5.223  10.867   7.614 -0.2534  0.2170 -0.1138
  129loPI   C5A 2059   4.852  11.117   7.416 -0.1341 -0.1784 -0.0398
  129loPI   C6A 2060   4.780  11.488   7.168 -0.3280  0.1463  0.3512
  129loPI   C1B 2061   5.502  11.053   8.831  0.4372 -0.4506 -0.3137
  129loPI   C2B 2062   5.908  11.219   8.650  0.1367 -0.0648 -0.0657
  129loPI   C3B 2063   5.893  11.082   8.201  0.0535  0.1696  0.1289
  129loPI   C4B 2064   5.771  10.911   7.710 -0.1041  0.2236 -0.1636
  130loPI    C1 2065  18.944  10.169  10.091  0.0505 -0.1681  0.0483
  130loPI    C2 2066  18.589  10.058  10.238 -0.0361 -0.2010 -0.1814
  130loPI    C3 2067  18.925   9.909  10.395 -0.1069  0.0670  0.2434
  130loPI   PO4 2068  18.869  10.307   9.902 -0.1898 -0.1350 -0.0948
  130loPI   GL1 2069  18.799  10.128   9.473 -0.1082  0.2227 -0.0478
  130loPI   GL2 2070  18.822   9.802   9.317 -0.1248  0.1296  0.0602
  130loPI   C1A 2071  18.822  10.315   9.092  0.0810 -0.2201 -0.2810
  130loPI   C2A 2072  18.621  10.135   8.758 -0.0661 -0.3311  0.0434
  130loPI   C3A 2073  18.375  10.151   8.395  0.2381 -0.2569  0.1107
  130loPI   C4A 2074  18.021  10.052   8.127  0.1915 -0.4778 -0.1531
  130loPI   C5A 2075  17.720   9.956   7.734  0.2233 -0.2237 -0.2611
  130loPI   C6A 2076  17.591   9.665   7.592  0.2000 -0.3079 -0.2122
  130loPI   C1B 2077  19.035   9.874   8.941  0.0746  0.3464 -0.1286
  130loPI   C2B 2078  19.058   9.873   8.446  0.4181  0.0816 -0.0178
  130loPI   C3B 2079  19.054   9.654   8.045  0.0590  0.3914  0.1967
  130loPI   C4B 2080  19.020   9.785   7.586 -0.2142  0.0360  0.1738
  131loPI    C1 2081   6.878  12.129   9.734  0.2373 -0.0560  0.1034
  131loPI    C2 2082   6.796  11.895  10.048 -0.0089 -0.0268  0.0630
  131loPI    C3 2083   6.710  12.285  10.061  0.2083  0.0231  0.0509
  131loPI   PO4 2084   6.987  11.970   9.549  0.1203 -0.0236 -0.1003
  131loPI   GL1 2085   7.130  12.104   9.220 -0.2287 -0.0470  0.0319
  131loPI   GL2 2086   7.254  11.889   9.042 -0.0603  0.1316  0.2567
  131loPI   C1A 2087   7.032  12.354   8.848 -0.0169  0.2256  0.0608
  131loPI   C2A 2088   6.900  12.348   8.468  0.2032 -0.2935 -0.0565
  131loPI   C3A 2089   6.907  12.457   8.060  0.1929 -0.0004  0.0040
  131loPI   C4A 2090   6.598  12.373   7.678  0.3759  0.1995 -0.1185
  131loPI   C5A 2091   6.499  12.172   7.323 -0.4140  0.1418  0.0956
  131loPI   C6A 2092   6.761  11.930   7.059 -0.0693 -0.3903  0.0816
  131loPI   C1B 2093   7.349  12.061   8.584  0.2214  0.1898 -0.0499
  131loPI   C2B 2094   7.367  12.437   8.310 -0.1621 -0.0524 -0.2915
  131loPI   C3B 2095   7.344  12.671   7.882 -0.3350  0.2615 -0.1702
  131loPI   C4B 2096   7.256  12.887   7.461 -0.2608 -0.0513  0.1199
  132loPI    C1 2097  14.265  10.770  10.104 -0.0264  0.1575 -0.2044
  132loPI    C2 2098  14.374  11.080  10.332  0.1212 -0.1939  0.2186
  132loPI    C3 2099  14.002  10.935  10.357  0.0102  0.0289 -0.0808
  132loPI   PO4 2100  14.346  10.878   9.843 -0.1481  0.2812  0.0998
  132loPI   GL1 2101  14.559  10.685   9.383  0.3452 -0.1425 -0.6500
  132loPI   GL2 2102  14.276  10.906   9.302  0.3832 -0.1099  0.0417
  132loPI   C1A 2103  14.755  10.894   9.031 -0.2512 -0.0133 -0.0061
  132loPI   C2A 2104  14.938  10.855   8.665 -0.0065 -0.2085  0.1295
  132loPI   C3A 2105  15.084  10.782   8.249  0.0195  0.0923  0.0141
  132loPI   C4A 2106  14.834  10.849   7.888  0.3212 -0.0653 -0.1657
  132loPI   C5A 2107  14.830  11.132   7.636 -0.2282 -0.3167 -0.1780
  132loPI   C6A 2108  14.814  11.432   7.265  0.2378 -0.4600 -0.3170
  132loPI   C1B 2109  14.292  11.040   8.806 -0.1586  0.0702  0.0960
  132loPI   C2B 2110  14.232  11.065   8.251 -0.2301 -0.1230  0.0840
  132loPI   C3B 2111  14.353  11.055   7.881  0.1890  0.0294  0.1628
  132loPI   C4B 2112  14.319  11.168   7.477 -0.2148 -0.1318  0.0265
  133loPI    C1 2113   6.444   5.855   9.878  0.1735 -0.3654  0.1140
  133loPI    C2 2114   6.720   5.839  10.167  0.0009 -0.0512  0.3014
  133loPI    C3 2115   6.332   5.861  10.262 -0.0672 -0.1081  0.0434
  133loPI   PO4 2116   6.509   6.012   9.723 -0.0340  0.2271 -0.3501
  133loPI   GL1 2117   6.416   5.918   9.354 -0.0322  0.1582 -0.1627
  133loPI   GL2 2118   6.311   5.625   9.451  0.0937  0.1879 -0.0591
  133loPI   C1A 2119   6.678   5.799   9.039 -0.0961 -0.2430  0.4412
  133loPI   C2A 2120   6.683   5.977   8.640  0.1149  0.0856  0.0922
  133loPI   C3A 2121   6.876   6.130   8.304 -0.0481 -0.0708 -0.1273
  133loPI   C4A 2122   6.985   6.271   7.903  0.1037  0.1395 -0.0542
  133loPI   C5A 2123   6.869   6.522   7.417 -0.2235  0.4803 -0.2621
  133loPI   C6A 2124   7.136   6.763   7.231 -0.0669  0.1984 -0.0076
  133loPI   C1B 2125   6.396   5.390   9.139 -0.4057  0.2721 -0.1462
  133loPI   C2B 2126   6.409   5.564   8.669 -0.1115  0.1207  0.0545
  133loPI   C3B 2127   6.787   5.649   8.311  0.1846  0.1332  0.0038
  133loPI   C4B 2128   6.966   5.540   7.878  0.1711 -0.1656 -0.2454
  134loPI    C1 2129   7.060  13.734   9.856 -0.0231  0.3494 -0.0419
  134loPI    C2 2130   7.197  13.935  10.173  0.3095  0.0421  0.0166
  134loPI    C3 2131   6.941  13.632  10.224  0.0396  0.2551 -0.0473
  134loPI   PO4 2132   7.396  13.736   9.748 -0.2853 -0.0923  0.1070
  134loPI   GL1 2133   7.640  13.865   9.432 -0.3017 -0.0845  0.1721
  134loPI   GL2 2134   7.569  14.196   9.337  0.1948 -0.3568  0.2079
  134loPI   C1A 2135   8.045  13.944   9.201 -0.2000 -0.2668  0.2243
  134loPI   C2A 2136   8.261  13.909   8.745 -0.1766  0.0799  0.3811
  134loPI   C3A 2137   8.371  13.982   8.309  0.3405  0.0099 -0.1030
  134loPI   C4A 2138   8.153  13.626   7.975  0.2399 -0.2703 -0.1405
  134loPI   C5A 2139   8.149  13.294   7.765  0.2050 -0.2745 -0.1171
  134loPI   C6A 2140   8.198  12.836   7.800 -0.0881 -0.2676 -0.2824
  134loPI   C1B 2141   7.552  14.038   8.945 -0.0651  0.0123  0.0007
  134loPI   C2B 2142   7.752  13.974   8.641 -0.0322  0.2459  0.0984
  134loPI   C3B 2143   7.854  13.643   8.393 -0.1632  0.0236 -0.4186
  134loPI   C4B 2144   8.081  13.206   8.223  0.1724 -0.2658 -0.1936
  135loPI    C1 2145  11.945  16.593  10.329  0.0646 -0.3055  0.0891
  135loPI    C2 2146  11.795  16.421  10.657  0.2032 -0.2727  0.1704
  135loPI    C3 2147  12.096  16.682  10.689 -0.0402  0.0292  0.0543
  135loPI   PO4 2148  11.829  16.417  10.143 -0.1773  0.3994 -0.2838
  135loPI   GL1 2149  11.745  16.391   9.628 -0.0884  0.1183  0.0422
  135loPI   GL2 2150  11.463  16.502   9.512 -0.0838  0.0330 -0.0213
  135loPI   C1A 2151  11.665  16.070   9.305  0.1071 -0.2694 -0.0913
  135loPI   C2A 2152  11.830  16.020   8.972  0.0710  0.0462 -0.1425
  135loPI   C3A 2153  11.889  16.055   8.507  0.1606  0.2450 -0.0771
  135loPI   C4A 2154  11.949  16.176   8.147 -0.0717  0.0098  0.1981
  135loPI   C5A 2155  12.297  16.289   7.941 -0.2071 -0.1866  0.0681
  135loPI   C6A 2156  12.656  16.305   7.741  0.3009 -0.2138 -0.0100
  135loPI   C1B 2157  11.194  16.545   9.162 -0.0777 -0.4310  0.1755
  135loPI   C2B 2158  11.175  16.716   8.800  0.2419 -0.1024  0.0626
  135loPI   C3B 2159  11.312  16.560   8.374  0.2501  0.0806 -0.2128
  135loPI   C4B 2160  11.211  16.539   7.951 -0.0864  0.0321 -0.2060
  136loPI    C1 2161  16.536  18.684  10.041 -0.1302 -0.1055  0.0558
  136loPI    C2 2162  16.473  18.914  10.362 -0.2594  0.1570 -0.1534
  136loPI    C3 2163  16.703  19.047  10.063  0.0193 -0.1644 -0.0880
  136loPI   PO4 2164  16.275  18.663   9.920 -0.0216  0.1031  0.0623
  136loPI   GL1 2165  15.938  18.509   9.595 -0.0382 -0.0030 -0.4371
  136loPI   GL2 2166  16.276  18.420   9.448  0.1922 -0.1489 -0.1716
  136loPI   C1A 2167  16.010  18.736   9.261  0.0514  0.3379  0.2868
  136loPI   C2A 2168  16.109  18.808   8.780  0.0929  0.0201  0.2301
  136loPI   C3A 2169  16.153  18.695   8.414  0.0939 -0.2827  0.0632
  136loPI   C4A 2170  16.382  18.664   8.027 -0.3519 -0.1246 -0.3971
  136loPI   C5A 2171  16.540  18.704   7.630 -0.2452 -0.0954  0.0278
  136loPI   C6A 2172  16.710  18.721   7.305  0.1358 -0.0043  0.4885
  136loPI   C1B 2173  16.170  18.334   8.924  0.0305  0.0350 -0.2548
  136loPI   C2B 2174  16.046  18.258   8.569  0.0067  0.0408 -0.1711
  136loPI   C3B 2175  16.250  18.234   8.202 -0.1359  0.0107 -0.0167
  136loPI   C4B 2176  16.420  18.122   7.862 -0.0654  0.0296 -0.1697
  137loPI    C1 2177   1.071  14.494  10.174 -0.3614  0.2128 -0.2335
  137loPI    C2 2178   1.075  14.626  10.552  0.1618 -0.0417 -0.1418
  137loPI    C3 2179   1.235  14.271  10.462 -0.1759 -0.0944 -0.5697
  137loPI   PO4 2180   0.847  14.557  10.122 -0.0899  0.0118 -0.1794
  137loPI   GL1 2181   0.584  14.579   9.699  0.0162  0.2314  0.1601
  137loPI   GL2 2182   0.868  14.420   9.633  0.0754 -0.1437 -0.0594
  137loPI   C1A 2183   0.388  14.735   9.353 -0.1491 -0.2373 -0.1626
  137loPI   C2A 2184   0.150  14.903   8.975  0.2462 -0.2468 -0.2562
  137loPI   C3A 2185   0.041  15.085   8.604 -0.0767 -0.0224  0.1903
  137loPI   C4A 2186   0.244  15.151   8.218  0.1234 -0.2438 -0.0834
  137loPI   C5A 2187   0.331  15.109   7.795 -0.1239 -0.3441  0.2841
  137loPI   C6A 2188   0.334  14.902   7.427  0.2747  0.3483 -0.1539
  137loPI   C1B 2189   0.857  14.647   9.243  0.0231 -0.1136  0.0875
  137loPI   C2B 2190   0.921  14.694   8.784  0.3556 -0.0622  0.0994
  137loPI   C3B 2191   0.999  14.560   8.404  0.3242 -0.1992 -0.1199
  137loPI   C4B 2192   1.220  14.479   8.079 -0.1569  0.2115  0.3232
  138loPI    C1 2193  16.364  18.213  10.116 -0.4282  0.2511 -0.0045
  138loPI    C2 2194  16.604  18.342  10.409 -0.0884 -0.2485 -0.0499
  138loPI    C3 2195  16.312  18.081  10.489 -0.2269 -0.1105 -0.0995
  138loPI   PO4 2196  16.424  18.178   9.901 -0.0368 -0.0888 -0.0976
  138loPI   GL1 2197  16.700  18.018   9.623 -0.0782  0.1557  0.3318
  138loPI   GL2 2198  16.655  17.635   9.758  0.0151  0.0844  0.3391
  138loPI   C1A 2199  16.455  18.010   9.221 -0.2873  0.1260 -0.1397
  138loPI   C2A 2200  16.402  17.881   8.689  0.0971 -0.3400  0.0327
  138loPI   C3A 2201  16.439  17.624   8.342  0.0000  0.0670 -0.1255
  138loPI   C4A 2202  16.469  17.337   8.070  0.0807 -0.0681  0.1055
  138loPI   C5A 2203  16.670  17.062   7.773  0.1850 -0.0028  0.2315
  138loPI   C6A 2204  16.717  17.000   7.306 -0.3861  0.1643 -0.0737
  138loPI   C1B 2205  16.763  17.631   9.309 -0.1340 -0.2148  0.1750
  138loPI   C2B 2206  16.669  17.509   8.957  0.3257 -0.2299 -0.0321
  138loPI   C3B 2207  16.524  17.106   8.726 -0.0225 -0.1917 -0.4192
  138loPI   C4B 2208  16.223  17.018   8.350 -0.2117  0.0293 -0.0416
  139loPI    C1 2209   3.006   9.422  10.101  0.0551  0.2766 -0.3059
  139loPI    C2 2210   3.358   9.318   9.942  0.0415 -0.1189 -0.0911
  139loPI    C3 2211   3.345   9.491  10.302  0.0212  0.0082 -0.1521
  139loPI   PO4 2212   2.860   9.536   9.911 -0.1931 -0.1367 -0.1865
  139loPI   GL1 2213   2.906   9.638   9.528 -0.0019 -0.1494 -0.1224
  139loPI   GL2 2214   2.905   9.856   9.375  0.0446 -0.3569 -0.2573
  139loPI   C1A 2215   2.583   9.500   9.097  0.2415 -0.1134 -0.4076
  139loPI   C2A 2216   2.185   9.393   8.818  0.0096  0.0048  0.1432
  139loPI   C3A 2217   1.901   9.285   8.522 -0.1150  0.0871 -0.3384
  139loPI   C4A 2218   1.486   9.178   8.371  0.0347  0.1352  0.2180
  139loPI   C5A 2219   1.283   9.039   8.173  0.0298 -0.0140  0.1357
  139loPI   C6A 2220   0.991   8.954   7.726  0.2290  0.1124  0.0639
  139loPI   C1B 2221   3.009   9.943   8.975 -0.0023  0.3423 -0.0684
  139loPI   C2B 2222   2.997  10.242   8.631 -0.0313  0.1075 -0.0017
  139loPI   C3B 2223   2.978  10.693   8.685  0.2652 -0.0896 -0.3582
  139loPI   C4B 2224   3.135  10.986   8.464 -0.0466  0.3830 -0.0731
  140loPI    C1 2225  18.938   4.075   9.934  0.0720  0.1256  0.0131
  140loPI    C2 2226  18.951   4.025  10.331 -0.1967 -0.2803 -0.0233
  140loPI    C3 2227  19.069   3.730  10.088 -0.2478 -0.1188 -0.2474
  140loPI   PO4 2228  19.095   4.266   9.837 -0.2136 -0.2063 -0.3245
  140loPI   GL1 2229  19.020   4.253   9.465 -0.5610  0.2812  0.1296
  140loPI   GL2 2230  18.927   4.028   9.343 -0.0096  0.0883  0.2023
  140loPI   C1A 2231  18.782   4.432   9.121  0.0899 -0.2684 -0.0975
  140loPI   C2A 2232  18.546   4.306   8.715  0.3053 -0.3979  0.2380
  140loPI   C3A 2233  18.465   4.251   8.268  0.0799  0.1038 -0.2381
  140loPI   C4A 2234  18.480   4.152   7.824  0.0301  0.2607 -0.1212
  140loPI   C5A 2235  18.528   4.063   7.429 -0.0678 -0.2674 -0.0640
  140loPI   C6A 2236  18.748   4.030   7.019 -0.3770  0.2691 -0.0266
  140loPI   C1B 2237  18.986   3.952   8.909 -0.1802 -0.1302 -0.1198
  140loPI   C2B 2238  18.973   3.781   8.537 -0.1940 -0.1351  0.1662
  140loPI   C3B 2239  19.055   3.781   8.096  0.0314  0.1602 -0.3882
  140loPI   C4B 2240  18.914   3.766   7.672  0.2126 -0.0749 -0.1699
  141loPI    C1 2241   9.308   9.292   9.921  0.1134 -0.2259  0.2146
  141loPI    C2 2242   9.637   9.074   9.989  0.1324 -0.2008  0.2032
  141loPI    C3 2243   9.308   9.013  10.208  0.2492  0.0007  0.4390
  141loPI   PO4 2244   9.161   9.339   9.638  0.1473 -0.2279 -0.1230
  141loPI   GL1 2245   9.193   9.273   9.201 -0.0269 -0.0003 -0.1040
  141loPI   GL2 2246   8.895   9.362   9.242 -0.0566  0.4129  0.4391
  141loPI   C1A 2247   9.282   8.989   8.928 -0.0624  0.5198  0.0148
  141loPI   C2A 2248   9.260   8.502   8.928 -0.1150 -0.0322 -0.0848
  141loPI   C3A 2249   9.473   8.242   8.653 -0.2951 -0.0852 -0.1112
  141loPI   C4A 2250   9.637   7.964   8.303 -0.1164 -0.0357  0.0049
  141loPI   C5A 2251   9.734   7.892   7.774 -0.0265  0.1811 -0.1829
  141loPI   C6A 2252   9.486   8.089   7.550 -0.1743  0.3831  0.2822
  141loPI   C1B 2253   8.912   9.228   8.772 -0.0767  0.1853  0.2800
  141loPI   C2B 2254   8.955   9.581   8.578 -0.3812 -0.2861  0.0995
  141loPI   C3B 2255   9.201   9.738   8.250 -0.1084  0.1606 -0.2782
  141loPI   C4B 2256   9.379   9.577   7.873  0.0243 -0.1849  0.0595
  142loPI    C1 2257   2.515   6.968  10.079 -0.2140  0.3391  0.1960
  142loPI    C2 2258   2.232   6.691  10.140  0.1314 -0.0327  0.1521
  142loPI    C3 2259   2.494   6.776  10.430  0.0643  0.2094  0.1440
  142loPI   PO4 2260   2.326   7.088   9.862 -0.2712  0.0148 -0.0602
  142loPI   GL1 2261   2.197   7.292   9.558  0.1970  0.2741  0.3447
  142loPI   GL2 2262   2.042   7.052   9.337 -0.5386 -0.2735 -0.1859
  142loPI   C1A 2263   2.352   7.355   9.133  0.1947 -0.1760 -0.0241
  142loPI   C2A 2264   2.393   7.692   8.853 -0.2051  0.2238  0.0736
  142loPI   C3A 2265   2.412   7.762   8.402  0.2449 -0.3663  0.0732
  142loPI   C4A 2266   2.299   7.992   8.013 -0.1382 -0.0202 -0.0136
  142loPI   C5A 2267   2.195   8.001   7.573  0.1654 -0.1680  0.2138
  142loPI   C6A 2268   2.134   8.363   7.402 -0.1874  0.0154  0.0088
  142loPI   C1B 2269   2.368   6.898   9.020  0.0505 -0.1232 -0.0558
  142loPI   C2B 2270   2.390   6.640   8.651  0.2225  0.1612 -0.4068
  142loPI   C3B 2271   2.648   6.745   8.345  0.0036 -0.0309  0.1840
  142loPI   C4B 2272   2.700   6.415   7.988  0.0297 -0.1768 -0.1554
  143loPI    C1 2273   0.099   1.892   9.553 -0.0304  0.0150 -0.0189
  143loPI    C2 2274  -0.189   1.910   9.276 -0.1086  0.2885  0.0762
  143loPI    C3 2275  -0.228   2.114   9.617 -0.0548 -0.1169  0.3314
  143loPI   PO4 2276   0.298   1.850   9.412 -0.0668 -0.1484 -0.1703
  143loPI   GL1 2277   0.484   1.661   9.134 -0.0462 -0.2451 -0.3225
  143loPI   GL2 2278   0.213   1.757   8.976 -0.1043 -0.1230 -0.1263
  143loPI   C1A 2279   0.553   1.557   8.679 -0.2688 -0.1704  0.0264
  143loPI   C2A 2280   0.444   1.233   8.292 -0.1142 -0.1221  0.4602
  143loPI   C3A 2281   0.431   0.845   8.002 -0.0597  0.3899  0.0967
  143loPI   C4A 2282   0.112   0.673   7.716 -0.1335  0.5411  0.0933
  143loPI   C5A 2283  -0.322   0.468   7.717  0.1136 -0.1993 -0.0602
  143loPI   C6A 2284  -0.648   0.183   7.395  0.3594 -0.2380  0.1954
  143loPI   C1B 2285  -0.050   1.699   8.745  0.0981  0.0208  0.3280
  143loPI   C2B 2286   0.086   1.823   8.356  0.1221 -0.2962  0.0234
  143loPI   C3B 2287   0.094   1.998   7.878  0.1178  0.0467 -0.2756
  143loPI   C4B 2288   0.002   2.144   7.516 -0.0030 -0.0868 -0.0045
  144loPI    C1 2289  13.538  17.622  10.106  0.1705  0.1784  0.0614
  144loPI    C2 2290  13.200  17.767   9.948  0.1756 -0.0105 -0.1277
  144loPI    C3 2291  13.426  17.997  10.185  0.0183  0.1820 -0.1625
  144loPI   PO4 2292  13.735  17.437   9.857 -0.0273  0.1732  0.4186
  144loPI   GL1 2293  13.538  17.604   9.487  0.1081  0.2984  0.0160
  144loPI   GL2 2294  13.285  17.352   9.581  0.2861 -0.0414  0.0779
  144loPI   C1A 2295  13.726  17.565   9.122  0.2730 -0.2721 -0.0276
  144loPI   C2A 2296  13.750  17.607   8.739  0.0490  0.0663  0.3593
  144loPI   C3A 2297  13.834  17.677   8.341  0.0908  0.5728  0.0748
  144loPI   C4A 2298  13.930  17.788   7.918  0.1865  0.0963 -0.1271
  144loPI   C5A 2299  14.170  17.604   7.650  0.0688  0.0228  0.0390
  144loPI   C6A 2300  14.296  17.485   7.277  0.1197 -0.0612 -0.1449
  144loPI   C1B 2301  13.333  17.213   9.111 -0.2177  0.3254 -0.3594
  144loPI   C2B 2302  13.346  17.044   8.670 -0.2051  0.0766  0.1898
  144loPI   C3B 2303  13.374  16.701   8.305 -0.1681  0.4340  0.0642
  144loPI   C4B 2304  13.543  16.692   7.906 -0.2446  0.1248  0.1141
  145loPI    C1 2305   6.373  11.901   9.593 -0.1129  0.1042 -0.2016
  145loPI    C2 2306   5.988  11.892   9.701 -0.1024 -0.1386 -0.1781
  145loPI    C3 2307   6.107  11.706   9.367 -0.0286  0.0629 -0.2662
  145loPI   PO4 2308   6.437  12.159   9.572  0.0160 -0.3591 -0.1243
  145loPI   GL1 2309   6.669  12.390   9.286 -0.0347 -0.0323  0.0851
  145loPI   GL2 2310   6.847  12.600   9.342  0.0552 -0.4440  0.1936
  145loPI   C1A 2311   6.563  12.327   8.870 -0.3471 -0.1778 -0.1388
  145loPI   C2A 2312   6.417  12.417   8.389 -0.0321 -0.0463  0.0500
  145loPI   C3A 2313   6.410  12.178   8.086  0.1780  0.2621 -0.2641
  145loPI   C4A 2314   6.394  11.860   7.755  0.1558  0.1193  0.0934
  145loPI   C5A 2315   6.571  11.572   7.392 -0.1264 -0.0699 -0.0925
  145loPI   C6A 2316   6.389  11.443   7.097 -0.2896 -0.1341 -0.0566
  145loPI   C1B 2317   6.544  12.830   8.977  0.0047  0.2004  0.2201
  145loPI   C2B 2318   6.701  12.833   8.579  0.1989  0.1546  0.2367
  145loPI   C3B 2319   6.648  12.842   8.123  0.2920 -0.1646  0.0638
  145loPI   C4B 2320   6.725  12.848   7.689 -0.2497 -0.1819 -0.0844
  146loPI    C1 2321   6.990  10.774   9.469 -0.0500 -0.2634  0.0079
  146loPI    C2 2322   6.797  10.608   9.161 -0.1768 -0.2474  0.0780
  146loPI    C3 2323   6.879  10.390   9.486 -0.3237 -0.1805  0.1611
  146loPI   PO4 2324   6.876  11.067   9.411  0.1475 -0.0554  0.0363
  146loPI   GL1 2325   6.929  11.414   9.116  0.1749 -0.2759 -0.0572
  146loPI   GL2 2326   6.823  11.118   8.948 -0.4258  0.3110  0.1813
  146loPI   C1A 2327   7.152  11.483   8.752 -0.2101  0.0530 -0.3031
  146loPI   C2A 2328   7.273  11.401   8.260 -0.2649 -0.0143 -0.0435
  146loPI   C3A 2329   7.409  11.878   8.154 -0.0928  0.0457  0.1474
  146loPI   C4A 2330   7.262  12.126   7.879 -0.0284  0.2026 -0.0307
  146loPI   C5A 2331   7.143  12.381   7.592 -0.1349  0.4075 -0.0050
  146loPI   C6A 2332   6.956  12.541   7.209  0.0705  0.2896  0.0644
  146loPI   C1B 2333   6.905  10.990   8.600  0.0356 -0.2053  0.2163
  146loPI   C2B 2334   6.920  11.067   8.153 -0.1444  0.0649  0.1324
  146loPI   C3B 2335   7.220  11.112   7.713 -0.3651  0.1937 -0.2965
  146loPI   C4B 2336   7.196  10.913   7.359 -0.1957 -0.1624  0.2069
  147loPI    C1 2337   5.682   5.315   9.800 -0.0412 -0.0398 -0.0370
  147loPI    C2 2338   5.810   5.622   9.578  0.0895 -0.1917 -0.1734
  147loPI    C3 2339   6.048   5.465   9.859 -0.0283 -0.0813 -0.0107
  147loPI   PO4 2340   5.445   5.213   9.553  0.2539  0.2294 -0.0863
  147loPI   GL1 2341   5.367   5.436   9.261 -0.0804  0.0928  0.2344
  147loPI   GL2 2342   5.535   5.644   9.087 -0.1304 -0.0997  0.2238
  147loPI   C1A 2343   5.142   5.359   8.902  0.1564 -0.0302  0.1256
  147loPI   C2A 2344   4.938   5.046   8.683  0.1435 -0.0710 -0.2690
  147loPI   C3A 2345   4.520   4.872   8.661 -0.0361 -0.0001 -0.0274
  147loPI   C4A 2346   4.166   4.871   8.370 -0.0806 -0.0184  0.4917
  147loPI   C5A 2347   3.948   4.867   8.022 -0.3830  0.0318 -0.0145
  147loPI   C6A 2348   3.771   5.178   7.764  0.2011  0.1387  0.0716
  147loPI   C1B 2349   5.486   5.749   8.698  0.1483 -0.1724  0.4069
  147loPI   C2B 2350   5.781   5.881   8.466 -0.1654 -0.3620  0.1589
  147loPI   C3B 2351   6.145   5.882   8.231  0.0145  0.1985  0.1261
  147loPI   C4B 2352   6.509   5.916   7.966  0.0975  0.3687  0.0892
  148loPI    C1 2353   4.304  18.100  10.128  0.1558 -0.2532  0.0738
  148loPI    C2 2354   4.496  18.240  10.450  0.0408 -0.1412  0.0947
  148loPI    C3 2355   4.196  17.978  10.494 -0.1111  0.0307  0.0946
  148loPI   PO4 2356   4.471  18.017   9.945  0.0014 -0.0673 -0.2200
  148loPI   GL1 2357   4.687  18.168   9.627 -0.0934  0.4415 -0.2108
  148loPI   GL2 2358   4.640  18.568   9.575  0.1685 -0.2249  0.1826
  148loPI   C1A 2359   4.504  18.204   9.252 -0.0745 -0.2562 -0.3863
  148loPI   C2A 2360   4.771  18.146   8.850 -0.0832 -0.1170 -0.3315
  148loPI   C3A 2361   4.959  17.993   8.561 -0.2303  0.2059  0.1928
  148loPI   C4A 2362   4.886  17.810   8.292  0.0870  0.2061 -0.1169
  148loPI   C5A 2363   4.724  17.641   7.800 -0.0425 -0.4233  0.0655
  148loPI   C6A 2364   4.542  17.358   7.422  0.0385  0.1630  0.0413
  148loPI   C1B 2365   4.514  18.657   9.151 -0.0907  0.0696 -0.3793
  148loPI   C2B 2366   4.378  18.553   8.733 -0.0550  0.3089 -0.0141
  148loPI   C3B 2367   4.151  18.514   8.237  0.0596 -0.2980 -0.0568
  148loPI   C4B 2368   4.085  18.363   7.770  0.2029  0.0694 -0.1161
  149loPI    C1 2369  10.628   8.169   9.572  0.0489  0.0160  0.2758
  149loPI    C2 2370  10.974   8.365   9.532 -0.1702  0.4206  0.3106
  149loPI    C3 2371  10.836   8.276   9.896 -0.0104  0.0825  0.2921
  149loPI   PO4 2372  10.562   8.182   9.354 -0.1215  0.2253 -0.0943
  149loPI   GL1 2373  10.367   8.082   8.966 -0.3493  0.0608 -0.0476
  149loPI   GL2 2374  10.333   8.382   8.964 -0.3173  0.3154  0.0922
  149loPI   C1A 2375  10.657   7.878   8.801 -0.1638  0.4057  0.2223
  149loPI   C2A 2376  10.572   7.814   8.402 -0.1578  0.0216  0.0589
  149loPI   C3A 2377  10.355   7.783   7.987  0.2485  0.3302 -0.0659
  149loPI   C4A 2378  10.426   7.910   7.609  0.1407  0.0026 -0.2135
  149loPI   C5A 2379  10.621   7.992   7.214 -0.0654  0.0353  0.1185
  149loPI   C6A 2380  10.588   7.923   6.724  0.2724  0.0161 -0.1539
  149loPI   C1B 2381  10.250   8.262   8.536 -0.0867 -0.0338 -0.0465
  149loPI   C2B 2382  10.079   8.174   8.172  0.1130 -0.0556 -0.1176
  149loPI   C3B 2383  10.127   8.246   7.748 -0.2186  0.0854 -0.0303
  149loPI   C4B 2384  10.081   8.066   7.313  0.0729  0.0690 -0.0264
  150loPI    C1 2385   9.526  16.545  10.089 -0.0634 -0.2635 -0.1348
  150loPI    C2 2386   9.507  16.297  10.402 -0.3929 -0.1022 -0.0231
  150loPI    C3 2387   9.280  16.626  10.393 -0.0141  0.1613 -0.2022
  150loPI   PO4 2388   9.631  16.412   9.958  0.2019 -0.1649 -0.2266
  150loPI   GL1 2389   9.836  16.503   9.522  0.0810 -0.2348 -0.4456
  150loPI   GL2 2390   9.574  16.728   9.461 -0.3021  0.3661 -0.0289
  150loPI   C1A 2391   9.871  16.569   9.127 -0.1438 -0.4591 -0.1549
  150loPI   C2A 2392   9.977  16.337   8.786  0.0675 -0.0124  0.3554
  150loPI   C3A 2393   9.868  16.351   8.376  0.1298 -0.2875  0.3117
  150loPI   C4A 2394   9.707  16.085   8.102 -0.0413 -0.1131 -0.0437
  150loPI   C5A 2395   9.744  15.723   7.853 -0.1333 -0.0872  0.2292
  150loPI   C6A 2396   9.991  15.419   7.555  0.0445  0.0218  0.3296
  150loPI   C1B 2397   9.397  16.477   9.134 -0.1076  0.2526  0.2176
  150loPI   C2B 2398   9.506  16.464   8.669  0.2669 -0.0416  0.1603
  150loPI   C3B 2399   9.405  16.584   8.351 -0.2558  0.1948 -0.0067
  150loPI   C4B 2400   9.310  16.759   7.974 -0.0743 -0.0009 -0.0411
  151loPI    C1 2401  17.976  16.536  10.087 -0.0021  0.1157  0.1993
  151loPI    C2 2402  18.024  16.260  10.373  0.1702 -0.0194  0.0433
  151loPI    C3 2403  17.773  16.567  10.430  0.1698 -0.0686  0.3201
  151loPI   PO4 2404  17.931  16.394   9.842 -0.0283 -0.3140 -0.2698
  151loPI   GL1 2405  18.032  16.451   9.386  0.2013  0.2501 -0.0922
  151loPI   GL2 2406  18.213  16.690   9.552  0.1241 -0.2116 -0.0523
  151loPI   C1A 2407  17.901  16.660   8.892 -0.2816  0.1358 -0.1368
  151loPI   C2A 2408  18.026  16.533   8.491 -0.1852 -0.1447 -0.1982
  151loPI   C3A 2409  18.452  16.420   8.304  0.0149  0.1111  0.2544
  151loPI   C4A 2410  18.533  16.526   7.888 -0.0709 -0.1476  0.1565
  151loPI   C5A 2411  18.714  16.391   7.533  0.2289  0.1509 -0.1344
  151loPI   C6A 2412  18.866  16.488   7.051 -0.0643 -0.0415 -0.0088
  151loPI   C1B 2413  18.120  17.037   9.248 -0.1355  0.1787  0.5113
  151loPI   C2B 2414  18.139  17.336   8.921  0.3395 -0.0069 -0.1560
  151loPI   C3B 2415  17.954  17.497   8.570 -0.0843  0.0351 -0.1660
  151loPI   C4B 2416  17.858  17.417   8.235 -0.0905 -0.0816 -0.2762
  152loPI    C1 2417  17.187  14.667  10.208 -0.0030 -0.0685 -0.1741
  152loPI    C2 2418  17.104  14.282  10.279 -0.0078 -0.1102 -0.4011
  152loPI    C3 2419  16.889  14.569  10.457  0.1258 -0.2092 -0.0736
  152loPI   PO4 2420  17.266  14.645  10.022 -0.1421 -0.0374  0.0940
  152loPI   GL1 2421  17.145  14.674   9.634 -0.0142  0.0860 -0.0866
  152loPI   GL2 2422  17.272  14.892   9.522  0.0408  0.3704 -0.1871
  152loPI   C1A 2423  17.378  14.314   9.351 -0.0378  0.0051 -0.0412
  152loPI   C2A 2424  17.688  14.184   9.084  0.0505 -0.3061 -0.0520
  152loPI   C3A 2425  17.996  14.139   8.664  0.0114 -0.2262 -0.0085
  152loPI   C4A 2426  17.959  14.155   8.237  0.1404  0.2493  0.1254
  152loPI   C5A 2427  17.807  14.233   7.826  0.0684 -0.4595 -0.1531
  152loPI   C6A 2428  17.475  14.479   7.758  0.1665  0.0935 -0.2323
  152loPI   C1B 2429  17.177  14.745   9.111  0.0656 -0.0362  0.2421
  152loPI   C2B 2430  17.204  14.714   8.635 -0.1197  0.0935 -0.0982
  152loPI   C3B 2431  17.282  14.673   8.225  0.1830 -0.2153  0.1028
  152loPI   C4B 2432  16.945  14.524   7.908  0.1761  0.2516  0.1405
  153loPI    C1 2433  15.875  16.022   9.998 -0.2046 -0.1804  0.1444
  153loPI    C2 2434  16.156  16.050  10.281  0.0809  0.0698 -0.1550
  153loPI    C3 2435  15.841  16.297  10.287  0.0014 -0.0340  0.0323
  153loPI   PO4 2436  15.980  15.947   9.822 -0.0883  0.0470 -0.1741
  153loPI   GL1 2437  15.987  15.810   9.431 -0.2164 -0.2206  0.1042
  153loPI   GL2 2438  16.260  15.842   9.284  0.2704 -0.0838  0.0533
  153loPI   C1A 2439  15.759  16.037   9.237 -0.1435  0.1819  0.0350
  153loPI   C2A 2440  15.767  16.228   8.853  0.0724 -0.1910 -0.3211
  153loPI   C3A 2441  15.982  16.144   8.519 -0.0933 -0.0203  0.0820
  153loPI   C4A 2442  16.169  16.131   8.151  0.1454  0.2275  0.4493
  153loPI   C5A 2443  16.109  16.301   7.698 -0.1393  0.1527  0.2452
  153loPI   C6A 2444  15.857  16.344   7.333 -0.0552  0.0694  0.2078
  153loPI   C1B 2445  16.238  15.872   8.895  0.2611  0.2348 -0.1586
  153loPI   C2B 2446  16.288  15.786   8.485 -0.0599  0.4308 -0.1971
  153loPI   C3B 2447  16.544  15.818   8.042 -0.1574 -0.0929 -0.0716
  153loPI   C4B 2448  16.404  15.876   7.722 -0.0469  0.2337  0.3117
  154loPI    C1 2449  16.850  12.850  10.111  0.3724 -0.0668 -0.1137
  154loPI    C2 2450  17.002  12.481  10.121  0.3389 -0.0766  0.0479
  154loPI    C3 2451  17.112  12.750  10.395  0.2340 -0.0175  0.0326
  154loPI   PO4 2452  16.945  12.896   9.811 -0.0496 -0.5188 -0.6642
  154loPI   GL1 2453  16.990  13.056   9.448  0.1553 -0.0507 -0.2492
  154loPI   GL2 2454  16.696  13.192   9.437  0.0459  0.0321  0.1310
  154loPI   C1A 2455  16.863  12.850   9.166 -0.1156  0.2417  0.0957
  154loPI   C2A 2456  17.065  12.797   8.768  0.1516 -0.2207  0.1704
  154loPI   C3A 2457  17.470  12.702   8.513 -0.0761  0.2128  0.0970
  154loPI   C4A 2458  17.741  12.783   8.201  0.1213 -0.0911  0.2945
  154loPI   C5A 2459  18.003  12.828   7.901 -0.0518  0.0460 -0.0059
  154loPI   C6A 2460  18.051  12.639   7.511  0.2895  0.2263  0.0853
  154loPI   C1B 2461  16.564  13.258   8.995 -0.3012 -0.1908 -0.1258
  154loPI   C2B 2462  16.722  13.183   8.556 -0.0875 -0.0210 -0.1566
  154loPI   C3B 2463  16.875  13.401   8.121  0.2203  0.0741  0.0930
  154loPI   C4B 2464  17.166  13.422   7.754 -0.1333 -0.0288 -0.0335
  155loPI    C1 2465   0.440  13.453  10.310 -0.0347  0.0368  0.0336
  155loPI    C2 2466   0.627  13.727  10.533  0.1371 -0.1748  0.1535
  155loPI    C3 2467   0.502  13.386  10.700 -0.3335 -0.0502  0.0688
  155loPI   PO4 2468   0.530  13.644  10.044 -0.2516  0.0542 -0.2622
  155loPI   GL1 2469   0.887  13.700   9.704 -0.1080  0.0699 -0.2220
  155loPI   GL2 2470   0.905  13.424   9.498  0.1606 -0.1967 -0.2336
  155loPI   C1A 2471   1.033  13.913   9.469  0.2374  0.0107  0.2289
  155loPI   C2A 2472   0.914  14.198   9.183 -0.0533  0.3842  0.1959
  155loPI   C3A 2473   0.840  14.215   8.782 -0.1765 -0.2938  0.0744
  155loPI   C4A 2474   0.894  14.066   8.286 -0.1059 -0.3437  0.0375
  155loPI   C5A 2475   0.995  13.676   7.986  0.0640 -0.0185  0.2048
  155loPI   C6A 2476   0.995  13.188   7.971 -0.1173 -0.0850 -0.0221
  155loPI   C1B 2477   0.738  13.627   9.144 -0.2424 -0.0827  0.0351
  155loPI   C2B 2478   0.518  13.828   8.876  0.0679  0.0743 -0.2825
  155loPI   C3B 2479   0.420  14.110   8.438 -0.2072  0.0669  0.0438
  155loPI   C4B 2480   0.420  14.176   8.012  0.0778  0.1590 -0.1212
  156loPI    C1 2481   5.635   6.892  10.017  0.0222  0.1663  0.0862
  156loPI    C2 2482   5.659   6.505  10.114  0.3180  0.2288  0.2746
  156loPI    C3 2483   5.329   6.713  10.203  0.0740 -0.0254 -0.0107
  156loPI   PO4 2484   5.829   6.873   9.777  0.0036  0.2054  0.0808
  156loPI   GL1 2485   5.995   7.217   9.476 -0.4017 -0.1692  0.2279
  156loPI   GL2 2486   5.760   7.362   9.239 -0.1702 -0.2586 -0.0498
  156loPI   C1A 2487   6.163   7.014   9.234 -0.2466  0.1269 -0.1328
  156loPI   C2A 2488   6.123   6.957   8.749  0.0398 -0.1602 -0.3346
  156loPI   C3A 2489   6.163   6.901   8.390  0.1302  0.1731 -0.0046
  156loPI   C4A 2490   5.988   6.706   8.036 -0.2810  0.0264  0.0633
  156loPI   C5A 2491   6.087   6.384   7.905 -0.1192  0.0646  0.2935
  156loPI   C6A 2492   6.355   6.120   7.537 -0.0585  0.3430  0.3136
  156loPI   C1B 2493   6.099   7.456   8.961  0.1703 -0.1750  0.0336
  156loPI   C2B 2494   6.491   7.562   8.798 -0.0300  0.5767  0.3232
  156loPI   C3B 2495   6.824   7.625   8.546 -0.3595  0.3287  0.1013
  156loPI   C4B 2496   7.097   7.240   8.174 -0.1994 -0.1828 -0.1865
  157loPI    C1 2497   5.244  18.103  10.377  0.0462 -0.2682 -0.2269
  157loPI    C2 2498   5.259  17.736  10.536 -0.2892 -0.0947  0.2272
  157loPI    C3 2499   5.424  18.045  10.729  0.0958 -0.0155 -0.2088
  157loPI   PO4 2500   5.322  18.054  10.110  0.0133 -0.0366 -0.1329
  157loPI   GL1 2501   5.211  17.923   9.689 -0.0734 -0.1247  0.0385
  157loPI   GL2 2502   5.471  17.700   9.640 -0.3249 -0.2051  0.2752
  157loPI   C1A 2503   5.446  18.086   9.322 -0.2410 -0.1305 -0.0253
  157loPI   C2A 2504   5.312  18.291   8.915 -0.0177  0.0247  0.1357
  157loPI   C3A 2505   5.046  18.536   8.595 -0.1280 -0.2976 -0.3226
  157loPI   C4A 2506   5.137  18.702   8.196 -0.1179  0.2671 -0.0050
  157loPI   C5A 2507   5.081  19.080   7.922 -0.2246  0.0740 -0.1237
  157loPI   C6A 2508   4.911  19.212   7.567  0.0173  0.0426 -0.1800
  157loPI   C1B 2509   5.467  17.500   9.350 -0.0939  0.2102  0.1687
  157loPI   C2B 2510   5.284  17.521   8.899  0.1381 -0.0093  0.1619
  157loPI   C3B 2511   5.317  17.505   8.443  0.3041  0.1481 -0.0311
  157loPI   C4B 2512   5.289  17.346   8.017 -0.0745  0.0555 -0.0409
  158loPI    C1 2513  12.253  15.861  10.219 -0.0974  0.1843  0.3158
  158loPI    C2 2514  11.928  16.011  10.398 -0.0048  0.1292  0.5337
  158loPI    C3 2515  12.093  15.673  10.534 -0.1460 -0.1156  0.1166
  158loPI   PO4 2516  12.204  15.873   9.917 -0.0989  0.3889 -0.1150
  158loPI   GL1 2517  12.252  15.852   9.483  0.0400 -0.3303 -0.1625
  158loPI   GL2 2518  12.369  16.168   9.359  0.0951  0.2032  0.1652
  158loPI   C1A 2519  12.262  15.745   9.049 -0.1198  0.1253  0.0601
  158loPI   C2A 2520  12.082  15.598   8.622 -0.0171 -0.1264  0.0611
  158loPI   C3A 2521  12.114  15.645   8.165 -0.2942 -0.2750 -0.1994
  158loPI   C4A 2522  12.035  15.849   7.736 -0.0252  0.1099 -0.0338
  158loPI   C5A 2523  11.917  16.145   7.549  0.3111  0.0432 -0.0479
  158loPI   C6A 2524  12.248  16.390   7.380 -0.1452 -0.1184 -0.1028
  158loPI   C1B 2525  12.265  16.187   8.867  0.3189 -0.0363  0.1572
  158loPI   C2B 2526  12.241  16.430   8.519 -0.0074 -0.1711 -0.3707
  158loPI   C3B 2527  12.343  16.787   8.180 -0.0809 -0.2227 -0.0941
  158loPI   C4B 2528  12.348  16.870   7.789  0.0459  0.1371  0.2561
  159loPI    C1 2529   6.050  15.454  10.368  0.1922 -0.0275  0.0468
  159loPI    C2 2530   5.963  15.235  10.691 -0.1888  0.1772  0.0887
  159loPI    C3 2531   6.338  15.361  10.630  0.0421 -0.4866  0.0571
  159loPI   PO4 2532   5.984  15.346  10.161 -0.1463  0.0503 -0.1146
  159loPI   GL1 2533   6.286  15.153   9.818  0.0141  0.4282 -0.2728
  159loPI   GL2 2534   6.470  15.083   9.481 -0.1663  0.0807 -0.0214
  159loPI   C1A 2535   5.951  15.189   9.433 -0.1901  0.2944 -0.1015
  159loPI   C2A 2536   5.914  14.949   9.054 -0.4207  0.0782  0.0498
  159loPI   C3A 2537   5.959  14.916   8.605 -0.0774 -0.1880  0.1656
  159loPI   C4A 2538   5.773  14.923   8.220  0.4778  0.0412  0.2428
  159loPI   C5A 2539   5.452  15.065   7.914 -0.1521 -0.1681  0.0432
  159loPI   C6A 2540   5.247  15.328   7.615  0.1142 -0.2239 -0.1212
  159loPI   C1B 2541   6.409  14.981   9.055 -0.0855  0.3889 -0.1372
  159loPI   C2B 2542   6.309  15.209   8.663 -0.3857 -0.1844  0.0866
  159loPI   C3B 2543   6.026  15.346   8.271 -0.0455  0.0456  0.2068
  159loPI   C4B 2544   5.798  15.418   7.908  0.0208 -0.0898 -0.0071
  160loPI    C1 2545  15.857  17.412  10.201  0.0035 -0.2726  0.1389
  160loPI    C2 2546  15.652  17.079  10.285  0.0085 -0.2650  0.1818
  160loPI    C3 2547  15.669  17.376  10.552 -0.2673 -0.0954  0.0155
  160loPI   PO4 2548  15.772  17.461   9.925 -0.1129 -0.0593 -0.1017
  160loPI   GL1 2549  15.766  17.472   9.499  0.2155 -0.0346  0.0341
  160loPI   GL2 2550  15.827  17.134   9.534 -0.4739 -0.0505 -0.1698
  160loPI   C1A 2551  15.560  17.811   9.216  0.1046  0.1624 -0.0469
  160loPI   C2A 2552  15.313  18.038   9.000 -0.1096  0.2493 -0.1897
  160loPI   C3A 2553  15.075  18.017   8.689  0.0391 -0.3774 -0.1045
  160loPI   C4A 2554  14.844  18.122   8.298  0.0852  0.3027 -0.1444
  160loPI   C5A 2555  14.673  18.208   7.991 -0.0682 -0.1346  0.1354
  160loPI   C6A 2556  14.632  18.379   7.586 -0.2083 -0.2982  0.0824
  160loPI   C1B 2557  15.743  16.835   9.235  0.1180  0.1152  0.2618
  160loPI   C2B 2558  15.570  16.705   8.828  0.0203  0.2239  0.0980
  160loPI   C3B 2559  15.445  16.699   8.462  0.0031  0.0475 -0.0653
  160loPI   C4B 2560  15.284  16.547   8.001 -0.5002 -0.3624  0.0858
  161loPI    C1 2561   9.197   7.370   9.773 -0.0480 -0.1570 -0.3676
  161loPI    C2 2562   9.493   7.139   9.911  0.0955  0.2633  0.0576
  161loPI    C3 2563   9.116   7.004   9.913  0.2139 -0.0792  0.0028
  161loPI   PO4 2564   9.290   7.424   9.551  0.0352  0.1984  0.0512
  161loPI   GL1 2565   9.442   7.553   9.118  0.1752  0.0205 -0.1884
  161loPI   GL2 2566   9.434   7.211   9.140 -0.0824 -0.0134  0.1005
  161loPI   C1A 2567   9.512   7.684   8.676 -0.0565 -0.2788  0.0210
  161loPI   C2A 2568   9.373   7.500   8.285 -0.0129 -0.1385  0.3704
  161loPI   C3A 2569   9.488   7.379   7.862  0.3005  0.3139 -0.0362
  161loPI   C4A 2570   9.717   6.986   7.675  0.0267 -0.2120 -0.2374
  161loPI   C5A 2571   9.777   6.560   7.376  0.1677 -0.0807  0.4699
  161loPI   C6A 2572   9.770   6.140   7.193 -0.2135  0.0218 -0.0121
  161loPI   C1B 2573   9.324   7.215   8.789  0.0743 -0.2812 -0.3646
  161loPI   C2B 2574   9.425   6.933   8.594 -0.4329  0.0918  0.1571
  161loPI   C3B 2575   9.499   6.601   8.254  0.2496 -0.0948  0.0010
  161loPI   C4B 2576   9.501   6.554   7.824  0.0698 -0.0824 -0.2705
  162loPI    C1 2577  11.809   4.857  10.101 -0.2186 -0.0032 -0.0391
  162loPI    C2 2578  11.664   5.071  10.407  0.1190  0.0889  0.0617
  162loPI    C3 2579  11.926   4.777  10.475  0.0899  0.0171 -0.1284
  162loPI   PO4 2580  11.641   4.799   9.970  0.1272  0.1557 -0.1395
  162loPI   GL1 2581  11.522   4.734   9.542 -0.0158  0.3053 -0.0206
  162loPI   GL2 2582  11.158   4.795   9.456 -0.1010 -0.0261  0.2156
  162loPI   C1A 2583  11.539   4.844   9.110 -0.0445 -0.3066  0.3043
  162loPI   C2A 2584  11.604   5.023   8.691  0.0276  0.4011 -0.1652
  162loPI   C3A 2585  11.458   5.026   8.267 -0.1367 -0.3195 -0.3088
  162loPI   C4A 2586  11.542   4.911   7.851 -0.1586  0.0443 -0.4338
  162loPI   C5A 2587  11.422   4.732   7.323 -0.2958 -0.0254  0.0909
  162loPI   C6A 2588  11.378   4.657   6.846  0.3407 -0.0924  0.2407
  162loPI   C1B 2589  11.067   4.719   9.001 -0.1300 -0.2348  0.1644
  162loPI   C2B 2590  11.035   4.748   8.472 -0.0101 -0.3402 -0.2386
  162loPI   C3B 2591  11.252   4.541   8.179 -0.1564 -0.2311 -0.1209
  162loPI   C4B 2592  11.230   4.410   7.744 -0.3330 -0.2609 -0.0348
  163loPI    C1 2593   2.128   9.964  10.620 -0.0945 -0.0726  0.2297
  163loPI    C2 2594   2.494  10.113  10.682  0.0098 -0.2355  0.0153
  163loPI    C3 2595   2.282   9.971  10.989  0.0055  0.1276  0.1859
  163loPI   PO4 2596   2.008  10.207  10.387  0.0963 -0.1225 -0.0364
  163loPI   GL1 2597   1.987  10.444   9.926 -0.2265  0.0858  0.2254
  163loPI   GL2 2598   1.822  10.394   9.732  0.2186  0.0109  0.0205
  163loPI   C1A 2599   2.267  10.720   9.608 -0.1082 -0.1640 -0.1209
  163loPI   C2A 2600   2.215  10.929   9.252  0.2201 -0.1287 -0.1153
  163loPI   C3A 2601   2.056  11.095   9.044 -0.3076 -0.0559  0.0989
  163loPI   C4A 2602   2.117  11.133   8.655 -0.2989  0.0802 -0.0545
  163loPI   C5A 2603   2.238  11.192   8.271 -0.1011  0.0904 -0.0929
  163loPI   C6A 2604   2.337  11.456   8.014 -0.1348  0.3337 -0.2011
  163loPI   C1B 2605   1.836  10.107   9.391  0.0743 -0.2180  0.1613
  163loPI   C2B 2606   2.147   9.909   9.109  0.0219 -0.0402 -0.0447
  163loPI   C3B 2607   2.121  10.004   8.746  0.0701 -0.2022 -0.2030
  163loPI   C4B 2608   2.158   9.758   8.433  0.2474  0.0146  0.1447
  164loPI    C1 2609   4.167  10.833  10.000 -0.1130 -0.1568  0.0455
  164loPI    C2 2610   4.183  10.922  10.390 -0.0878 -0.0378  0.0178
  164loPI    C3 2611   3.941  10.630  10.261  0.0534 -0.2141  0.1467
  164loPI   PO4 2612   4.163  11.022   9.885 -0.1720  0.0155  0.0067
  164loPI   GL1 2613   4.324  11.037   9.447 -0.3133  0.1185 -0.1746
  164loPI   GL2 2614   4.541  11.139   9.305 -0.1389  0.1382  0.4830
  164loPI   C1A 2615   4.118  10.942   8.983 -0.0268  0.0911 -0.0619
  164loPI   C2A 2616   3.932  10.874   8.591 -0.0719 -0.0987  0.0881
  164loPI   C3A 2617   3.780  10.921   8.277 -0.2396 -0.3174 -0.0995
  164loPI   C4A 2618   3.615  10.830   7.873 -0.0889  0.0115  0.1559
  164loPI   C5A 2619   3.384  10.987   7.575  0.1438 -0.0794 -0.0260
  164loPI   C6A 2620   2.974  10.872   7.457 -0.0162 -0.0069  0.1986
  164loPI   C1B 2621   4.600  11.391   8.918 -0.0484 -0.0457 -0.1234
  164loPI   C2B 2622   4.595  11.473   8.513 -0.0778  0.0775  0.0168
  164loPI   C3B 2623   4.553  11.161   8.311 -0.0490 -0.0930 -0.0535
  164loPI   C4B 2624   4.222  10.732   8.231  0.1928 -0.1241 -0.0963
  165loPI    C1 2625  12.993   6.768   9.904  0.2130 -0.0496  0.1423
  165loPI    C2 2626  13.355   6.669   9.766  0.1037 -0.2170 -0.0296
  165loPI    C3 2627  13.263   6.601  10.149  0.3322  0.0437  0.0758
  165loPI   PO4 2628  12.808   6.609   9.730 -0.1341 -0.1363 -0.0812
  165loPI   GL1 2629  12.762   6.464   9.300  0.0691 -0.2821 -0.0398
  165loPI   GL2 2630  12.493   6.354   9.458 -0.1970 -0.4378 -0.1476
  165loPI   C1A 2631  12.884   6.309   8.899  0.1340  0.1880  0.4239
  165loPI   C2A 2632  12.755   6.401   8.436 -0.1659  0.0172 -0.1692
  165loPI   C3A 2633  12.979   6.436   8.103 -0.0252  0.3023  0.0176
  165loPI   C4A 2634  12.965   6.391   7.671  0.0089  0.1023  0.2246
  165loPI   C5A 2635  12.790   6.063   7.380 -0.0942 -0.1217 -0.0837
  165loPI   C6A 2636  12.783   5.953   7.017 -0.2151  0.2353  0.2071
  165loPI   C1B 2637  12.454   6.195   9.030  0.2197 -0.0256 -0.0633
  165loPI   C2B 2638  12.325   6.161   8.599  0.3567 -0.0824 -0.0562
  165loPI   C3B 2639  12.341   6.172   8.163  0.0139 -0.0186 -0.0355
  165loPI   C4B 2640  12.478   6.274   7.734  0.0642 -0.0557  0.2929
  166loPI    C1 2641  14.747   5.283   9.820  0.0470  0.1137  0.0616
  166loPI    C2 2642  14.724   5.230  10.216  0.1094 -0.1542  0.0312
  166loPI    C3 2643  15.062   5.368  10.051  0.1128 -0.1257  0.0619
  166loPI   PO4 2644  14.722   5.530   9.739  0.2067 -0.1353 -0.3549
  166loPI   GL1 2645  14.957   5.539   9.370  0.0160 -0.1254 -0.1871
  166loPI   GL2 2646  15.009   5.810   9.202 -0.1240 -0.0434 -0.0239
  166loPI   C1A 2647  15.022   5.364   9.000 -0.1166 -0.0143  0.2466
  166loPI   C2A 2648  15.148   5.177   8.647  0.0170 -0.0809  0.0559
  166loPI   C3A 2649  15.255   5.298   8.205 -0.3189 -0.1070 -0.1573
  166loPI   C4A 2650  15.520   5.661   8.072  0.0128  0.0793  0.0380
  166loPI   C5A 2651  15.561   5.880   7.618  0.0640  0.0276 -0.4883
  166loPI   C6A 2652  15.861   6.072   7.556  0.0797  0.1681 -0.1676
  166loPI   C1B 2653  15.077   5.787   8.704  0.0681 -0.1903  0.1874
  166loPI   C2B 2654  15.060   5.821   8.242 -0.0147 -0.0407 -0.0300
  166loPI   C3B 2655  14.943   6.004   7.873 -0.0486 -0.0448 -0.2111
  166loPI   C4B 2656  14.763   5.993   7.556 -0.0376  0.0978 -0.0733
  167loPI    C1 2657  14.361   6.066  10.056 -0.0450 -0.0537 -0.1244
  167loPI    C2 2658  14.146   6.396   9.988 -0.1088 -0.0481  0.0959
  167loPI    C3 2659  14.005   6.113  10.232  0.0518 -0.1299  0.0951
  167loPI   PO4 2660  14.437   5.966   9.826  0.2039  0.1119  0.1775
  167loPI   GL1 2661  14.476   5.803   9.338 -0.1516 -0.1320 -0.0955
  167loPI   GL2 2662  14.157   5.639   9.157  0.0359  0.0556 -0.1563
  167loPI   C1A 2663  14.578   5.650   8.948 -0.0529 -0.3190  0.2892
  167loPI   C2A 2664  14.547   5.757   8.438  0.0464 -0.0587 -0.1208
  167loPI   C3A 2665  14.612   5.516   8.036 -0.2887  0.1563 -0.0060
  167loPI   C4A 2666  14.914   5.447   7.888 -0.3686  0.3107  0.3549
  167loPI   C5A 2667  15.119   5.640   7.507 -0.1352  0.3001  0.0102
  167loPI   C6A 2668  15.239   6.084   7.232 -0.0315 -0.0152  0.2021
  167loPI   C1B 2669  14.112   5.469   8.724  0.2226 -0.0621 -0.0559
  167loPI   C2B 2670  14.201   5.201   8.387  0.2771 -0.1543 -0.1820
  167loPI   C3B 2671  14.391   4.807   8.305 -0.4121 -0.2351  0.2401
  167loPI   C4B 2672  14.450   4.678   7.803 -0.2347 -0.1796  0.2968
  168loPI    C1 2673   3.554  11.169  10.092 -0.0408 -0.0814  0.2292
  168loPI    C2 2674   3.903  11.353  10.157 -0.1001  0.2060 -0.2247
  168loPI    C3 2675   3.565  11.508  10.304 -0.0433 -0.0764  0.2212
  168loPI   PO4 2676   3.536  11.140   9.824  0.3517  0.2455 -0.1718
  168loPI   GL1 2677   3.357  11.209   9.589  0.2153 -0.1180  0.1142
  168loPI   GL2 2678   3.113  11.449   9.484  0.0445 -0.2225 -0.0797
  168loPI   C1A 2679   3.585  11.188   9.114  0.2025  0.0201 -0.1090
  168loPI   C2A 2680   3.527  11.218   8.731  0.0143 -0.3150  0.4335
  168loPI   C3A 2681   3.546  11.360   8.392 -0.1660  0.0057 -0.0940
  168loPI   C4A 2682   3.621  11.340   7.972 -0.0860 -0.2120  0.0468
  168loPI   C5A 2683   3.509  11.492   7.535  0.4135  0.3966  0.1660
  168loPI   C6A 2684   3.516  11.992   7.501  0.1694 -0.1414 -0.2932
  168loPI   C1B 2685   2.764  11.698   9.161  0.0240 -0.1049 -0.0848
  168loPI   C2B 2686   2.687  11.798   8.773 -0.1474  0.0552 -0.3006
  168loPI   C3B 2687   2.511  11.682   8.379  0.2496 -0.0631 -0.1571
  168loPI   C4B 2688   2.576  11.871   7.992  0.1663 -0.1240 -0.0391
  169loPI    C1 2689   2.313   4.731  10.082  0.0517 -0.2585 -0.1731
  169loPI    C2 2690   1.957   4.578  10.180 -0.1878  0.4837  0.1884
  169loPI    C3 2691   2.242   4.614  10.458  0.2335 -0.2209 -0.1257
  169loPI   PO4 2692   2.394   4.587   9.857 -0.1490 -0.0824 -0.0188
  169loPI   GL1 2693   2.378   4.322   9.461 -0.2585 -0.1317  0.2153
  169loPI   GL2 2694   1.999   4.202   9.369 -0.2139  0.2730 -0.1471
  169loPI   C1A 2695   2.405   4.234   9.010 -0.1087  0.3373 -0.1006
  169loPI   C2A 2696   2.506   4.056   8.619  0.0103 -0.4314 -0.0320
  169loPI   C3A 2697   2.740   3.850   8.290  0.4739  0.1009  0.1714
  169loPI   C4A 2698   2.696   3.855   7.904  0.1020 -0.1805 -0.0862
  169loPI   C5A 2699   2.784   4.029   7.553  0.0771 -0.1124 -0.1290
  169loPI   C6A 2700   2.525   3.981   7.182 -0.0043  0.3734  0.0648
  169loPI   C1B 2701   1.668   4.422   9.189 -0.1913  0.0251  0.0966
  169loPI   C2B 2702   1.473   4.571   8.851  0.3397 -0.1022  0.1764
  169loPI   C3B 2703   1.547   4.311   8.534 -0.1290 -0.1910  0.1734
  169loPI   C4B 2704   1.517   3.901   8.365 -0.0605 -0.0722  0.0198
  170loPI    C1 2705   1.098   9.686  10.345  0.1450  0.0229 -0.0858
  170loPI    C2 2706   1.372   9.581  10.617  0.0141  0.4573  0.2249
  170loPI    C3 2707   0.982   9.552  10.704 -0.0606 -0.3134 -0.2728
  170loPI   PO4 2708   1.313   9.783  10.093  0.0469  0.0594 -0.1985
  170loPI   GL1 2709   1.197  10.207   9.814 -0.2123 -0.1270 -0.2975
  170loPI   GL2 2710   0.975  10.024   9.844 -0.0689 -0.3122 -0.0044
  170loPI   C1A 2711   1.355  10.390   9.449  0.1599  0.1261 -0.2610
  170loPI   C2A 2712   1.442  10.203   9.145 -0.1433 -0.2699 -0.0012
  170loPI   C3A 2713   1.487  10.116   8.757 -0.1279 -0.0845  0.3062
  170loPI   C4A 2714   1.791  10.157   8.337 -0.4077 -0.0695  0.0645
  170loPI   C5A 2715   2.219  10.258   8.046 -0.4397  0.0732  0.0926
  170loPI   C6A 2716   2.621  10.514   7.969 -0.0305 -0.0602  0.3310
  170loPI   C1B 2717   1.169   9.816   9.509  0.0829 -0.2063  0.0296
  170loPI   C2B 2718   1.217   9.742   9.023 -0.2333  0.0785 -0.0735
  170loPI   C3B 2719   1.228   9.628   8.661  0.2283 -0.2245 -0.1308
  170loPI   C4B 2720   1.125   9.532   8.214 -0.0620  0.0897 -0.2411
  171loPI    C1 2721   0.267   9.964  10.407 -0.0947  0.0303  0.0121
  171loPI    C2 2722   0.340   9.576  10.476  0.0196  0.0563  0.0399
  171loPI    C3 2723   0.613   9.852  10.574  0.0901  0.1148 -0.3053
  171loPI   PO4 2724   0.252  10.057  10.136  0.0310  0.1426  0.0978
  171loPI   GL1 2725   0.118  10.032   9.656 -0.0001 -0.2393 -0.0406
  171loPI   GL2 2726   0.546  10.032   9.579  0.4441 -0.0496 -0.0458
  171loPI   C1A 2727   0.173  10.160   9.284  0.0406  0.0895 -0.2037
  171loPI   C2A 2728   0.276  10.080   8.906  0.1483  0.1801  0.2138
  171loPI   C3A 2729   0.277  10.096   8.395 -0.0134 -0.3735 -0.2112
  171loPI   C4A 2730   0.231  10.002   7.970  0.1227  0.1570 -0.1006
  171loPI   C5A 2731   0.334   9.769   7.583 -0.1278 -0.1541 -0.1467
  171loPI   C6A 2732   0.209   9.911   7.196 -0.1914 -0.0606  0.1622
  171loPI   C1B 2733   0.764  10.044   9.138  0.1909  0.1410  0.2134
  171loPI   C2B 2734   0.956  10.133   8.866  0.0491  0.0398 -0.1821
  171loPI   C3B 2735   1.154  10.084   8.420 -0.0620 -0.1234  0.0279
  171loPI   C4B 2736   1.409  10.015   7.977 -0.1613 -0.2283 -0.1507
  172loPI    C1 2737   9.629   2.143  10.026  0.0561 -0.0640 -0.0797
  172loPI    C2 2738   9.528   2.438  10.276  0.0014 -0.0933 -0.0668
  172loPI    C3 2739   9.476   2.057  10.386 -0.4243 -0.1033 -0.2859
  172loPI   PO4 2740   9.492   2.128   9.832  0.4432 -0.0730 -0.0847
  172loPI   GL1 2741   9.391   2.220   9.357 -0.0931  0.0203  0.0756
  172loPI   GL2 2742   9.628   2.520   9.370 -0.0486  0.0809  0.0296
  172loPI   C1A 2743   9.234   2.157   8.917  0.0259 -0.0270 -0.1113
  172loPI   C2A 2744   9.198   1.955   8.510 -0.0033  0.2243 -0.1293
  172loPI   C3A 2745   9.031   2.035   8.132 -0.1193  0.1509  0.1839
  172loPI   C4A 2746   9.064   1.884   7.725 -0.2530  0.0265  0.0495
  172loPI   C5A 2747   9.430   1.949   7.409 -0.1479  0.1172  0.0984
  172loPI   C6A 2748   9.761   1.561   7.502 -0.2046 -0.1832 -0.2251
  172loPI   C1B 2749   9.639   2.447   8.965 -0.2717  0.1474 -0.0836
  172loPI   C2B 2750   9.645   2.704   8.603  0.0463  0.4031 -0.1362
  172loPI   C3B 2751   9.911   2.893   8.273 -0.0041  0.3725  0.2482
  172loPI   C4B 2752   9.749   2.910   7.796 -0.2902 -0.1528  0.4551
  173loPI    C1 2753  10.582  12.564   9.564  0.0381 -0.0127 -0.1991
  173loPI    C2 2754  10.483  12.241   9.350  0.1686 -0.0224 -0.2459
  173loPI    C3 2755  10.198  12.454   9.533  0.0877 -0.2013 -0.1599
  173loPI   PO4 2756  10.749  12.716   9.389  0.1456 -0.0716 -0.0693
  173loPI   GL1 2757  10.936  12.709   9.014 -0.3357 -0.1370 -0.1972
  173loPI   GL2 2758  11.161  12.877   9.040  0.2572  0.0417  0.2736
  173loPI   C1A 2759  10.843  12.600   8.620  0.1073 -0.0862 -0.1084
  173loPI   C2A 2760  10.916  12.555   8.218  0.0705 -0.1432 -0.0470
  173loPI   C3A 2761  10.940  12.614   7.785 -0.1018 -0.1692 -0.1075
  173loPI   C4A 2762  11.246  12.819   7.530  0.4919 -0.1399 -0.1777
  173loPI   C5A 2763  11.248  13.101   7.187  0.0260 -0.0845 -0.3234
  173loPI   C6A 2764  10.921  13.450   7.088 -0.1269 -0.3097 -0.1785
  173loPI   C1B 2765  11.314  12.785   8.652 -0.3516  0.2204 -0.0295
  173loPI   C2B 2766  11.374  12.673   8.307 -0.2466  0.0152  0.1490
  173loPI   C3B 2767  11.565  12.902   8.068 -0.0253 -0.2711  0.1113
  173loPI   C4B 2768  11.722  13.056   7.688  0.0095  0.0792  0.0170
  174loPI    C1 2769  10.167   2.446  10.103 -0.0392 -0.0780 -0.0983
  174loPI    C2 2770   9.975   2.567  10.433  0.1464 -0.1180  0.0262
  174loPI    C3 2771   9.991   2.178  10.342  0.0527 -0.1027 -0.0580
  174loPI   PO4 2772   9.997   2.554   9.869  0.0607 -0.0951 -0.0243
  174loPI   GL1 2773  10.070   2.720   9.437  0.2241  0.0593  0.0894
  174loPI   GL2 2774  10.298   2.419   9.368  0.3341  0.4482  0.0363
  174loPI   C1A 2775  10.070   2.690   8.999 -0.3448 -0.1005 -0.1435
  174loPI   C2A 2776  10.130   2.565   8.623  0.3362 -0.0899  0.0984
  174loPI   C3A 2777  10.047   2.373   8.202 -0.1786  0.2107 -0.5322
  174loPI   C4A 2778  10.077   2.552   7.880  0.0990  0.1578  0.0038
  174loPI   C5A 2779  10.308   2.402   7.512  0.0809 -0.2054  0.0347
  174loPI   C6A 2780  10.468   2.052   7.176 -0.1958 -0.0037 -0.0312
  174loPI   C1B 2781  10.186   2.151   9.075  0.1735 -0.2816 -0.1003
  174loPI   C2B 2782  10.144   1.997   8.672  0.1007  0.0737 -0.4280
  174loPI   C3B 2783  10.096   1.655   8.314  0.0969  0.0230  0.2298
  174loPI   C4B 2784   9.953   1.632   7.917 -0.5074 -0.0319 -0.0188
  175loPI    C1 2785   7.943  11.798   9.609 -0.0972  0.0168  0.0839
  175loPI    C2 2786   8.108  11.729   9.966  0.0706 -0.0742 -0.0100
  175loPI    C3 2787   7.745  11.896   9.942  0.0640 -0.0553  0.2017
  175loPI   PO4 2788   8.092  11.904   9.515 -0.2752 -0.1045  0.1968
  175loPI   GL1 2789   8.194  12.257   9.204 -0.0743  0.0333  0.1714
  175loPI   GL2 2790   8.108  12.529   9.321 -0.0704 -0.2584  0.0714
  175loPI   C1A 2791   8.226  12.311   8.760 -0.2506  0.0492  0.0187
  175loPI   C2A 2792   8.374  12.556   8.402  0.0949 -0.1546  0.0232
  175loPI   C3A 2793   8.590  12.560   7.962  0.1073  0.2876 -0.1409
  175loPI   C4A 2794   8.714  12.782   7.598  0.0421 -0.0109 -0.1727
  175loPI   C5A 2795   8.839  13.156   7.586  0.1397 -0.3280 -0.1560
  175loPI   C6A 2796   8.616  13.459   7.595  0.2901 -0.1443 -0.2015
  175loPI   C1B 2797   8.052  12.793   8.971 -0.0913  0.1119 -0.1041
  175loPI   C2B 2798   8.196  13.112   8.684  0.2908  0.0361 -0.0431
  175loPI   C3B 2799   8.444  13.497   8.499 -0.0334 -0.0018 -0.1497
  175loPI   C4B 2800   8.576  13.480   8.125 -0.0413 -0.1210 -0.1715
  176loPI    C1 2801   5.387   9.415   9.817 -0.0815 -0.0286  0.3331
  176loPI    C2 2802   5.523   9.045   9.884  0.0335 -0.0934 -0.2071
  176loPI    C3 2803   5.767   9.359   9.926 -0.0111 -0.0927  0.0640
  176loPI   PO4 2804   5.253   9.340   9.621  0.2312 -0.0152 -0.1968
  176loPI   GL1 2805   5.203   9.460   9.211 -0.0589 -0.3763 -0.0250
  176loPI   GL2 2806   4.911   9.596   9.363 -0.2306 -0.0967  0.0693
  176loPI   C1A 2807   5.293   9.463   8.707  0.1761 -0.2252  0.0222
  176loPI   C2A 2808   5.563   9.561   8.266 -0.0211 -0.1396 -0.2461
  176loPI   C3A 2809   5.844   9.298   7.933 -0.4320 -0.0475 -0.1280
  176loPI   C4A 2810   5.812   9.099   7.583  0.4079  0.1257 -0.1190
  176loPI   C5A 2811   5.589   8.954   7.229  0.1435  0.1985  0.0511
  176loPI   C6A 2812   5.600   8.625   6.966 -0.0382 -0.2146  0.2278
  176loPI   C1B 2813   4.498   9.641   9.134 -0.1974  0.1625 -0.0474
  176loPI   C2B 2814   4.419   9.631   8.779 -0.2190  0.1050  0.1981
  176loPI   C3B 2815   4.437   9.909   8.452  0.0769  0.1851  0.3089
  176loPI   C4B 2816   4.825  10.207   8.432  0.1610  0.0783 -0.3813
  177loPI    C1 2817  13.152  16.425  10.214  0.1773 -0.0997  0.0271
  177loPI    C2 2818  13.170  16.068  10.393  0.1239 -0.0131  0.2082
  177loPI    C3 2819  12.848  16.299  10.442  0.0089 -0.0827 -0.1846
  177loPI   PO4 2820  13.253  16.308   9.933  0.0887 -0.0778 -0.0342
  177loPI   GL1 2821  13.185  16.427   9.539 -0.2452  0.0390 -0.0129
  177loPI   GL2 2822  13.392  16.672   9.466  0.0249 -0.4375  0.4003
  177loPI   C1A 2823  13.304  16.293   9.122  0.0182  0.0378  0.1957
  177loPI   C2A 2824  13.606  16.166   8.915  0.3007 -0.0100  0.3069
  177loPI   C3A 2825  13.680  16.088   8.409 -0.0225 -0.0269 -0.1964
  177loPI   C4A 2826  13.461  16.129   8.034  0.0385 -0.2222  0.2583
  177loPI   C5A 2827  13.562  16.332   7.555  0.1384  0.2503  0.0033
  177loPI   C6A 2828  13.732  16.503   7.304 -0.0283  0.0160 -0.0434
  177loPI   C1B 2829  13.557  16.748   9.107 -0.0731 -0.1946  0.0767
  177loPI   C2B 2830  13.639  16.631   8.806  0.0600 -0.1257  0.0925
  177loPI   C3B 2831  13.852  16.573   8.244 -0.0844  0.1499  0.2555
  177loPI   C4B 2832  14.010  16.264   7.876  0.0799  0.0595  0.4044
  178loPI    C1 2833  17.278   9.521  10.272  0.2578  0.0111 -0.0286
  178loPI    C2 2834  17.269   9.176  10.475 -0.0291 -0.1395 -0.2874
  178loPI    C3 2835  16.928   9.368  10.392  0.1162  0.1200 -0.2943
  178loPI   PO4 2836  17.574   9.448  10.144  0.0206  0.0769  0.1444
  178loPI   GL1 2837  17.576   9.323   9.791  0.0290 -0.1337  0.1155
  178loPI   GL2 2838  17.357   9.654   9.679  0.2840 -0.2317  0.0424
  178loPI   C1A 2839  17.416   9.305   9.359  0.1790  0.0477 -0.1190
  178loPI   C2A 2840  17.173   9.353   9.034  0.1470  0.0466 -0.2045
  178loPI   C3A 2841  16.953   9.467   8.651 -0.0892 -0.0777  0.3977
  178loPI   C4A 2842  17.043   9.387   8.219  0.0552  0.1788 -0.0230
  178loPI   C5A 2843  17.243   9.167   7.830  0.1579  0.1989  0.1514
  178loPI   C6A 2844  17.478   9.117   7.497  0.0871 -0.4221  0.1353
  178loPI   C1B 2845  17.021   9.758   9.321 -0.2108 -0.0595 -0.3302
  178loPI   C2B 2846  16.774   9.812   8.958 -0.1349  0.1491 -0.1433
  178loPI   C3B 2847  16.513   9.938   8.562 -0.1096 -0.2287 -0.0002
  178loPI   C4B 2848  16.585   9.771   8.080 -0.2206  0.1476 -0.3893
  179loPI    C1 2849   1.655  15.110  10.139  0.3236  0.2672  0.1881
  179loPI    C2 2850   1.702  14.928  10.492 -0.1472 -0.0995  0.0720
  179loPI    C3 2851   1.337  14.964  10.332  0.0420  0.1981 -0.3107
  179loPI   PO4 2852   1.850  14.995   9.959  0.3467 -0.0370  0.0739
  179loPI   GL1 2853   1.797  14.769   9.543 -0.2071 -0.3475  0.1941
  179loPI   GL2 2854   2.019  15.024   9.438 -0.3653 -0.1556  0.1695
  179loPI   C1A 2855   1.702  14.563   9.238  0.0804 -0.2157  0.3637
  179loPI   C2A 2856   1.800  14.517   8.778  0.2088 -0.1374  0.0972
  179loPI   C3A 2857   1.982  14.615   8.488 -0.0066  0.0916 -0.1765
  179loPI   C4A 2858   1.828  14.470   8.151  0.0908 -0.1104  0.0764
  179loPI   C5A 2859   1.746  14.513   7.720 -0.3994 -0.0312  0.1170
  179loPI   C6A 2860   1.406  14.443   7.584  0.2811 -0.2454 -0.2445
  179loPI   C1B 2861   1.850  15.065   9.076  0.1782 -0.2061  0.0562
  179loPI   C2B 2862   1.445  14.866   8.952 -0.4586  0.1523  0.0503
  179loPI   C3B 2863   1.498  14.743   8.425  0.0501 -0.3180  0.2017
  179loPI   C4B 2864   1.535  14.889   7.969 -0.0605  0.3399 -0.3203
  180loPI    C1 2865   2.012   2.469  10.047 -0.0562  0.0762 -0.1123
  180loPI    C2 2866   2.047   2.310  10.412 -0.1623 -0.0575 -0.1598
  180loPI    C3 2867   2.229   2.655  10.327 -0.1245 -0.0334  0.0148
  180loPI   PO4 2868   1.737   2.462   9.893 -0.0605  0.2172 -0.1367
  180loPI   GL1 2869   1.704   2.697   9.471 -0.2828 -0.0095  0.0124
  180loPI   GL2 2870   1.469   2.375   9.544 -0.0763  0.0286  0.2412
  180loPI   C1A 2871   1.807   2.469   9.189  0.1355 -0.0444  0.2419
  180loPI   C2A 2872   2.090   2.245   8.992  0.0304 -0.1455 -0.0801
  180loPI   C3A 2873   2.443   2.354   8.760 -0.1064 -0.1546 -0.0400
  180loPI   C4A 2874   2.687   2.573   8.623 -0.1816  0.1319  0.0735
  180loPI   C5A 2875   2.783   3.008   8.748 -0.1019 -0.1776  0.1478
  180loPI   C6A 2876   3.080   3.234   8.991  0.0988 -0.2197 -0.0326
  180loPI   C1B 2877   1.351   2.453   9.178 -0.2936  0.0906  0.2094
  180loPI   C2B 2878   1.295   2.580   8.728  0.0183 -0.2519  0.0255
  180loPI   C3B 2879   1.437   2.635   8.316  0.1577  0.1749 -0.0630
  180loPI   C4B 2880   1.627   2.464   8.009  0.1580  0.3721  0.3422
  181loPI    C1 2881   3.679   5.209   9.883 -0.1287  0.3664 -0.1650
  181loPI    C2 2882   3.428   5.104   9.590  0.0213  0.0363 -0.1785
  181loPI    C3 2883   3.312   5.077   9.971  0.0409 -0.1385 -0.1838
  181loPI   PO4 2884   3.831   5.360   9.729 -0.1083  0.2092 -0.1640
  181loPI   GL1 2885   3.724   5.395   9.310 -0.1106 -0.0746 -0.0002
  181loPI   GL2 2886   3.765   5.742   9.333  0.2572 -0.0016 -0.2509
  181loPI   C1A 2887   3.690   5.538   8.806  0.1298 -0.1069  0.2194
  181loPI   C2A 2888   3.528   5.865   8.504 -0.3123  0.2064  0.1208
  181loPI   C3A 2889   3.534   6.005   8.178  0.0946  0.3385 -0.2989
  181loPI   C4A 2890   3.747   5.947   7.865  0.0009 -0.1087 -0.1922
  181loPI   C5A 2891   4.149   5.803   7.875  0.0070  0.0812 -0.0688
  181loPI   C6A 2892   4.365   5.959   7.514  0.0833 -0.0169 -0.0783
  181loPI   C1B 2893   4.108   5.703   8.994  0.2612  0.1420  0.1010
  181loPI   C2B 2894   4.205   5.778   8.544 -0.3582  0.0581  0.2800
  181loPI   C3B 2895   4.564   5.717   8.164  0.1428  0.0729  0.0360
  181loPI   C4B 2896   4.877   5.803   7.797  0.2324  0.0014  0.0673
  182loPI    C1 2897   7.467   5.453  10.236  0.2344  0.2645 -0.0846
  182loPI    C2 2898   7.112   5.555  10.390  0.0795 -0.0457 -0.2267
  182loPI    C3 2899   7.449   5.651  10.583 -0.0936 -0.0432  0.0800
  182loPI   PO4 2900   7.376   5.133  10.082  0.0151 -0.3738 -0.0303
  182loPI   GL1 2901   7.359   5.124   9.561 -0.2640 -0.1157  0.3633
  182loPI   GL2 2902   7.044   5.085   9.668 -0.1838  0.3028 -0.1277
  182loPI   C1A 2903   7.260   5.187   9.144  0.1277  0.2084  0.1085
  182loPI   C2A 2904   7.344   5.265   8.700 -0.0874  0.2156 -0.6351
  182loPI   C3A 2905   7.303   5.268   8.197  0.2333 -0.1879 -0.0008
  182loPI   C4A 2906   7.339   4.970   7.829  0.0314 -0.0176 -0.0792
  182loPI   C5A 2907   7.150   4.858   7.536  0.1008 -0.0237 -0.0649
  182loPI   C6A 2908   6.791   5.149   7.583 -0.3490 -0.0651 -0.0646
  182loPI   C1B 2909   6.771   5.078   9.350  0.4693 -0.0527 -0.2308
  182loPI   C2B 2910   6.805   5.185   8.920  0.1322 -0.1832 -0.0735
  182loPI   C3B 2911   6.872   5.258   8.634  0.0053 -0.0832  0.1307
  182loPI   C4B 2912   6.765   5.166   8.225  0.1342 -0.2232  0.0991
  183loPI    C1 2913   5.417  18.574  10.390  0.2510  0.0852  0.0145
  183loPI    C2 2914   5.212  18.908  10.466  0.1297 -0.0124  0.1217
  183loPI    C3 2915   5.561  18.842  10.650  0.0905 -0.0047  0.1989
  183loPI   PO4 2916   5.356  18.577  10.133  0.1999  0.1760  0.1231
  183loPI   GL1 2917   5.281  18.442   9.703  0.0536  0.1596 -0.0122
  183loPI   GL2 2918   5.141  18.716   9.675  0.0601  0.0443  0.0267
  183loPI   C1A 2919   5.424  18.592   9.277  0.2546 -0.2301  0.1077
  183loPI   C2A 2920   5.493  18.784   8.886 -0.1331  0.2307  0.4164
  183loPI   C3A 2921   5.605  18.805   8.522 -0.2713 -0.4815  0.0031
  183loPI   C4A 2922   5.586  18.881   7.992 -0.0493 -0.2459  0.0662
  183loPI   C5A 2923   5.421  18.795   7.594  0.2477 -0.0315 -0.3388
  183loPI   C6A 2924   5.052  18.608   7.658  0.2903 -0.1733 -0.0985
  183loPI   C1B 2925   4.997  18.316   9.307  0.1012  0.3400  0.2268
  183loPI   C2B 2926   5.016  17.897   9.169 -0.0458  0.0879 -0.0100
  183loPI   C3B 2927   4.967  17.470   9.268  0.0681  0.1810 -0.1461
  183loPI   C4B 2928   4.694  17.239   9.521  0.1394 -0.2816  0.0140
  184loPI    C1 2929   4.048   1.001  10.030 -0.0541 -0.0226  0.1031
  184loPI    C2 2930   4.435   1.000  10.134 -0.0027  0.0556 -0.0842
  184loPI    C3 2931   4.152   0.967  10.415  0.1404 -0.0400  0.0499
  184loPI   PO4 2932   4.002   0.808   9.779  0.0233  0.0332  0.2393
  184loPI   GL1 2933   4.042   0.972   9.335  0.0793  0.0390 -0.1563
  184loPI   GL2 2934   4.189   1.230   9.148  0.0281 -0.2498 -0.0724
  184loPI   C1A 2935   3.788   0.709   8.955 -0.0555 -0.3797  0.4782
  184loPI   C2A 2936   3.796   0.654   8.493  0.2554 -0.1084  0.1227
  184loPI   C3A 2937   3.800   0.727   7.995  0.1116  0.2312 -0.0302
  184loPI   C4A 2938   3.725   0.484   7.669 -0.0805  0.2749 -0.1588
  184loPI   C5A 2939   3.395   0.589   7.373 -0.2852 -0.2640 -0.2981
  184loPI   C6A 2940   3.051   0.269   7.393  0.1141 -0.0437 -0.0501
  184loPI   C1B 2941   4.061   1.176   8.812  0.1923  0.3166 -0.0965
  184loPI   C2B 2942   4.108   1.258   8.457 -0.4258 -0.0289  0.2131
  184loPI   C3B 2943   4.135   1.161   8.001  0.0201 -0.2426  0.0489
  184loPI   C4B 2944   4.201   0.840   7.671  0.2984  0.1177 -0.1489
  185loPI    C1 2945  10.050   6.344   9.751 -0.0304  0.1548 -0.0714
  185loPI    C2 2946  10.189   6.412  10.120 -0.0733 -0.0207 -0.0219
  185loPI    C3 2947   9.977   6.081  10.044  0.2241 -0.1568 -0.2806
  185loPI   PO4 2948  10.254   6.405   9.557  0.0600 -0.0257  0.1083
  185loPI   GL1 2949  10.354   6.577   9.202 -0.1224 -0.1321  0.0228
  185loPI   GL2 2950  10.316   6.962   9.235 -0.2164 -0.2954  0.1601
  185loPI   C1A 2951  10.148   6.283   8.871 -0.0152  0.0115  0.0454
  185loPI   C2A 2952   9.985   6.412   8.453  0.0115  0.1197  0.2031
  185loPI   C3A 2953   9.871   6.307   8.066  0.0558 -0.2667 -0.3850
  185loPI   C4A 2954   9.684   6.082   7.729 -0.1322  0.1842  0.3374
  185loPI   C5A 2955   9.652   5.647   7.454  0.1709  0.1017  0.0122
  185loPI   C6A 2956   9.253   5.468   7.238  0.1523  0.0855  0.1791
  185loPI   C1B 2957  10.286   6.952   8.764 -0.1271 -0.0986  0.1072
  185loPI   C2B 2958  10.201   6.840   8.384 -0.0261 -0.2372 -0.0160
  185loPI   C3B 2959  10.114   6.908   7.983 -0.0587 -0.1238  0.1769
  185loPI   C4B 2960  10.176   6.885   7.446 -0.1828 -0.0792  0.0648
  186loPI    C1 2961   0.566  18.282  10.259  0.0152 -0.0269  0.1692
  186loPI    C2 2962   0.528  18.673  10.188  0.0014 -0.0036  0.3024
  186loPI    C3 2963   0.868  18.530  10.343  0.0387 -0.0568  0.1731
  186loPI   PO4 2964   0.468  18.196  10.072  0.3648 -0.1571 -0.0431
  186loPI   GL1 2965   0.429  18.205   9.682  0.0957  0.1128 -0.0006
  186loPI   GL2 2966   0.409  18.540   9.598 -0.1962  0.1998  0.2519
  186loPI   C1A 2967   0.375  18.264   9.200 -0.0527 -0.3453 -0.0308
  186loPI   C2A 2968   0.520  18.316   8.814  0.2630 -0.0198 -0.0403
  186loPI   C3A 2969   0.550  17.924   8.591  0.1369  0.1586 -0.0535
  186loPI   C4A 2970   0.450  17.867   8.186 -0.1189 -0.2635  0.0786
  186loPI   C5A 2971   0.583  17.910   7.849  0.0672  0.0099  0.1833
  186loPI   C6A 2972   0.997  17.723   7.705  0.1407 -0.1183  0.0910
  186loPI   C1B 2973   0.190  18.806   9.320 -0.0566 -0.2287  0.1431
  186loPI   C2B 2974   0.256  18.756   8.921 -0.4233  0.0093  0.1051
  186loPI   C3B 2975   0.383  18.843   8.495 -0.0937  0.2220 -0.1439
  186loPI   C4B 2976   0.410  19.103   8.177 -0.0506 -0.5066  0.0267
  187loPI    C1 2977   8.244   8.596   9.781  0.0690 -0.1676 -0.0582
  187loPI    C2 2978   8.470   8.824  10.020  0.0002  0.0237 -0.1743
  187loPI    C3 2979   8.200   8.576  10.178  0.0730  0.0250 -0.0471
  187loPI   PO4 2980   8.230   8.711   9.608 -0.1674 -0.1102  0.2487
  187loPI   GL1 2981   8.450   8.797   9.256 -0.3336 -0.1937 -0.0893
  187loPI   GL2 2982   8.326   8.925   9.100  0.1860 -0.2597  0.0088
  187loPI   C1A 2983   8.566   8.435   9.028 -0.0652  0.0784  0.1120
  187loPI   C2A 2984   8.897   8.334   8.648 -0.0760  0.1154  0.1036
  187loPI   C3A 2985   8.768   8.393   8.272  0.1016 -0.1701  0.1426
  187loPI   C4A 2986   8.982   8.594   7.916  0.1258  0.3211  0.1418
  187loPI   C5A 2987   9.072   8.960   7.755  0.2888 -0.0054 -0.1367
  187loPI   C6A 2988   9.014   9.433   7.496 -0.1341 -0.0460  0.1396
  187loPI   C1B 2989   8.509   8.874   8.716 -0.0659 -0.0088  0.0298
  187loPI   C2B 2990   8.881   8.841   8.431 -0.0642  0.0752 -0.3884
  187loPI   C3B 2991   9.224   8.586   8.420  0.0830 -0.4311 -0.0142
  187loPI   C4B 2992   9.502   8.401   8.140  0.0100 -0.0697 -0.2800
  188loPI    C1 2993  14.090   8.985  10.007 -0.0971 -0.1622  0.0392
  188loPI    C2 2994  13.992   9.185  10.340  0.0130 -0.2923  0.1511
  188loPI    C3 2995  14.376   9.104  10.261  0.0188  0.0374 -0.1818
  188loPI   PO4 2996  13.978   9.065   9.828 -0.0844  0.2501 -0.1151
  188loPI   GL1 2997  13.981   8.993   9.492  0.0385 -0.1879  0.0064
  188loPI   GL2 2998  14.305   9.214   9.484  0.1346  0.0483  0.0657
  188loPI   C1A 2999  14.083   8.971   8.996  0.0813  0.0254 -0.1546
  188loPI   C2A 3000  14.090   9.095   8.524 -0.3269  0.0160 -0.2956
  188loPI   C3A 3001  14.132   9.186   8.072 -0.0943 -0.0935 -0.1677
  188loPI   C4A 3002  14.161   9.307   7.746 -0.3837  0.0045 -0.0401
  188loPI   C5A 3003  13.907   9.538   7.475  0.0100  0.0492  0.4517
  188loPI   C6A 3004  14.046   9.589   6.988  0.0389  0.1126 -0.1980
  188loPI   C1B 3005  14.701   9.141   9.213  0.0011  0.2292 -0.1701
  188loPI   C2B 3006  14.943   8.868   8.948 -0.3219  0.2177  0.1395
  188loPI   C3B 3007  14.945   8.895   8.438 -0.1003 -0.1553  0.2024
  188loPI   C4B 3008  14.691   8.886   8.022 -0.1937  0.1084  0.0173
  189loPI    C1 3009  10.089   8.116   9.350 -0.0720  0.1161  0.3899
  189loPI    C2 3010   9.843   7.801   9.351  0.1933 -0.1035 -0.0851
  189loPI    C3 3011  10.112   7.845   9.644  0.0466 -0.2279  0.0710
  189loPI   PO4 3012   9.991   8.284   9.330  0.0490 -0.1089 -0.3393
  189loPI   GL1 3013   9.863   8.417   8.940 -0.3134 -0.1167  0.0719
  189loPI   GL2 3014   9.883   8.073   8.876 -0.0314  0.0897 -0.2366
  189loPI   C1A 3015   9.858   8.500   8.470 -0.2022  0.2338 -0.2367
  189loPI   C2A 3016   9.874   8.717   7.995 -0.1479  0.5041 -0.0467
  189loPI   C3A 3017   9.986   8.682   7.552 -0.0554  0.1814  0.0394
  189loPI   C4A 3018  10.103   8.837   7.125  0.0091 -0.2475 -0.2538
  189loPI   C5A 3019  10.126   9.216   6.968  0.0365 -0.3180 -0.0670
  189loPI   C6A 3020  10.181   9.593   6.683 -0.1474  0.0970  0.2696
  189loPI   C1B 3021  10.090   7.705   8.676 -0.2414  0.0668 -0.0858
  189loPI   C2B 3022   9.983   7.591   8.312 -0.0153 -0.1316  0.5633
  189loPI   C3B 3023  10.023   7.409   7.905 -0.4595  0.2861 -0.1185
  189loPI   C4B 3024  10.050   7.537   7.476  0.1288 -0.1098 -0.3811
  190loPI    C1 3025  16.634  16.770  10.242  0.2422 -0.0237  0.1274
  190loPI    C2 3026  16.506  16.399  10.321 -0.0790  0.0415 -0.0671
  190loPI    C3 3027  16.539  16.667  10.617 -0.1509 -0.0506  0.0246
  190loPI   PO4 3028  16.545  16.789  10.025  0.1417  0.3033 -0.1968
  190loPI   GL1 3029  16.692  16.633   9.608 -0.0971  0.0441 -0.3570
  190loPI   GL2 3030  16.957  16.764   9.331  0.2177 -0.5657 -0.0599
  190loPI   C1A 3031  16.583  16.367   9.217  0.1662  0.3826 -0.1002
  190loPI   C2A 3032  16.704  16.109   8.904 -0.1577 -0.1749  0.1287
  190loPI   C3A 3033  16.733  16.096   8.423  0.1281  0.1965  0.2238
  190loPI   C4A 3034  16.620  16.384   8.076  0.0735  0.1332  0.2641
  190loPI   C5A 3035  16.371  16.730   7.878 -0.0489  0.0331  0.2393
  190loPI   C6A 3036  15.986  16.860   7.761 -0.1155 -0.0267  0.1981
  190loPI   C1B 3037  16.800  16.688   8.934  0.1041  0.1020  0.1968
  190loPI   C2B 3038  16.967  16.580   8.514  0.4492  0.0953  0.0378
  190loPI   C3B 3039  17.080  16.531   8.094 -0.4564  0.2032 -0.2876
  190loPI   C4B 3040  17.048  16.744   7.657 -0.1462  0.1748 -0.1045
  191loPI    C1 3041  11.395  16.802  10.253  0.0307 -0.0246  0.0335
  191loPI    C2 3042  11.713  17.002  10.391  0.0645 -0.0699  0.0213
  191loPI    C3 3043  11.453  16.838  10.647  0.0769 -0.0738  0.0314
  191loPI   PO4 3044  11.445  16.833   9.961  0.1135 -0.1682 -0.0064
  191loPI   GL1 3045  11.379  17.069   9.657  0.0793 -0.1558  0.1081
  191loPI   GL2 3046  11.124  16.944   9.523 -0.0681 -0.1621 -0.1626
  191loPI   C1A 3047  11.528  16.948   9.203 -0.0604 -0.0217  0.1087
  191loPI   C2A 3048  11.612  16.951   8.826 -0.2104 -0.0758 -0.3010
  191loPI   C3A 3049  11.435  17.019   8.530 -0.1876  0.2470 -0.0646
  191loPI   C4A 3050  11.426  16.995   8.167 -0.0944 -0.0226  0.1902
  191loPI   C5A 3051  11.484  16.912   7.721  0.2662  0.3349 -0.0924
  191loPI   C6A 3052  11.609  16.883   7.223 -0.1683  0.0374 -0.0344
  191loPI   C1B 3053  11.072  17.165   9.142  0.0728 -0.1796  0.0328
  191loPI   C2B 3054  11.021  17.328   8.682  0.1120  0.3065  0.0734
  191loPI   C3B 3055  11.005  17.484   8.320 -0.0279  0.3545 -0.1186
  191loPI   C4B 3056  11.080  17.709   7.858  0.0288 -0.1210 -0.0314
  192loPI    C1 3057  16.214  11.897  10.155 -0.1399 -0.3426  0.0952
  192loPI    C2 3058  15.976  12.215  10.204  0.1160 -0.1183 -0.0865
  192loPI    C3 3059  16.140  12.037  10.522 -0.1831 -0.1917  0.0297
  192loPI   PO4 3060  16.124  11.771  10.028 -0.1518 -0.0781 -0.3491
  192loPI   GL1 3061  16.111  11.561   9.658  0.1436 -0.2434  0.0608
  192loPI   GL2 3062  15.802  11.423   9.701  0.1685  0.0702 -0.0873
  192loPI   C1A 3063  16.051  11.589   9.240  0.1401 -0.0787 -0.2208
  192loPI   C2A 3064  16.049  11.656   8.863  0.0375  0.1843  0.3271
  192loPI   C3A 3065  16.203  11.848   8.446  0.2072  0.0597 -0.1187
  192loPI   C4A 3066  16.561  12.017   8.026  0.1699  0.1228 -0.2814
  192loPI   C5A 3067  16.772  12.417   7.873 -0.0481  0.2907  0.2800
  192loPI   C6A 3068  17.054  12.565   7.548  0.3624 -0.0309  0.0044
  192loPI   C1B 3069  15.617  11.270   9.392 -0.1804  0.2799  0.2375
  192loPI   C2B 3070  15.540  11.440   8.936  0.3892  0.0940 -0.0112
  192loPI   C3B 3071  15.624  11.646   8.571 -0.0867 -0.0850 -0.0258
  192loPI   C4B 3072  15.714  11.806   8.137 -0.1295  0.3526 -0.0565
  193loPI    C1 3073   8.853  13.529  10.133 -0.1548 -0.0738 -0.0496
  193loPI    C2 3074   9.141  13.451   9.866 -0.1106 -0.1344  0.0153
  193loPI    C3 3075   9.159  13.783  10.088 -0.1093 -0.1209 -0.0047
  193loPI   PO4 3076   8.556  13.434   9.912  0.0935 -0.0498  0.2084
  193loPI   GL1 3077   8.601  13.370   9.492 -0.0524  0.1018 -0.1110
  193loPI   GL2 3078   8.440  13.730   9.401  0.0905 -0.3028  0.0616
  193loPI   C1A 3079   8.530  13.489   8.990  0.0799 -0.0048  0.2681
  193loPI   C2A 3080   8.804  13.706   8.726 -0.1860 -0.3133  0.1388
  193loPI   C3A 3081   8.965  13.701   8.352  0.0003  0.0365 -0.2355
  193loPI   C4A 3082   8.710  13.988   7.971  0.2954 -0.0281  0.1716
  193loPI   C5A 3083   8.248  14.188   7.854 -0.1371 -0.2160 -0.1212
  193loPI   C6A 3084   7.912  14.462   7.819  0.0784 -0.0102  0.1520
  193loPI   C1B 3085   8.712  13.946   9.143  0.0320  0.2097  0.0199
  193loPI   C2B 3086   8.684  14.159   8.721  0.0313 -0.1423  0.1807
  193loPI   C3B 3087   8.602  14.431   8.297 -0.0583 -0.2221  0.0699
  193loPI   C4B 3088   8.634  14.478   7.822  0.1858 -0.1688  0.0833
  194loPI    C1 3089  15.361   9.821   9.923 -0.0407 -0.0347 -0.0118
  194loPI    C2 3090  15.672  10.064   9.989 -0.0330 -0.0589  0.0418
  194loPI    C3 3091  15.336  10.107  10.201 -0.0498 -0.0625  0.0160
  194loPI   PO4 3092  15.272   9.782   9.656  0.1806 -0.0175 -0.0053
  194loPI   GL1 3093  15.370  10.041   9.380  0.0947 -0.1950 -0.2977
  194loPI   GL2 3094  15.397   9.815   9.034  0.2808 -0.0641  0.0309
  194loPI   C1A 3095  15.774  10.116   9.102  0.0288  0.1550  0.0945
  194loPI   C2A 3096  15.906  10.152   8.830 -0.0603 -0.1494 -0.3957
  194loPI   C3A 3097  15.889  10.134   8.432  0.1848  0.3864  0.1291
  194loPI   C4A 3098  16.111  10.027   8.024 -0.4672 -0.3118  0.0756
  194loPI   C5A 3099  15.917  10.220   7.663 -0.2174  0.0317  0.0931
  194loPI   C6A 3100  15.569  10.368   7.517 -0.2608  0.1115  0.1227
  194loPI   C1B 3101  15.632   9.726   8.762 -0.0137  0.3671  0.3963
  194loPI   C2B 3102  15.600   9.762   8.336  0.3525 -0.1535 -0.1438
  194loPI   C3B 3103  15.770   9.709   7.837  0.2505  0.3683 -0.2435
  194loPI   C4B 3104  16.166   9.823   7.583  0.1877  0.2070 -0.0089
  195loPI    C1 3105   3.159  18.302  10.349 -0.1522  0.0850 -0.0887
  195loPI    C2 3106   2.916  18.172  10.639  0.0414 -0.0776  0.0032
  195loPI    C3 3107   3.010  18.560  10.616 -0.2054 -0.0175 -0.0188
  195loPI   PO4 3108   3.094  18.296  10.116 -0.0374  0.0134  0.2008
  195loPI   GL1 3109   2.997  18.463   9.697  0.0410  0.0700  0.3076
  195loPI   GL2 3110   2.831  18.604   9.577 -0.0961 -0.0746 -0.1220
  195loPI   C1A 3111   3.359  18.346   9.492 -0.1084  0.3273  0.2685
  195loPI   C2A 3112   3.439  18.067   9.157  0.0568 -0.0236  0.1006
  195loPI   C3A 3113   3.433  18.096   8.651 -0.7695  0.2048  0.0185
  195loPI   C4A 3114   3.250  18.042   8.230  0.3021 -0.4302 -0.0960
  195loPI   C5A 3115   3.118  18.013   7.818 -0.0698  0.1185 -0.0158
  195loPI   C6A 3116   3.044  18.308   7.585 -0.3990 -0.0023 -0.1094
  195loPI   C1B 3117   2.846  18.727   9.205 -0.2352 -0.2811  0.1422
  195loPI   C2B 3118   3.085  19.139   9.124 -0.1595  0.1276  0.3189
  195loPI   C3B 3119   3.056  19.344   8.770  0.1240 -0.2974 -0.1312
  195loPI   C4B 3120   3.231  19.414   8.344  0.3239 -0.0926  0.0775
  196loPI    C1 3121  15.802  14.576  10.103 -0.2553 -0.1177 -0.3842
  196loPI    C2 3122  15.454  14.441  10.247 -0.0990 -0.1341 -0.0108
  196loPI    C3 3123  15.776  14.204  10.249  0.0067  0.0090 -0.0012
  196loPI   PO4 3124  15.708  14.752   9.831  0.3672 -0.2293 -0.0798
  196loPI   GL1 3125  15.640  14.662   9.454 -0.1624  0.3978 -0.1903
  196loPI   GL2 3126  15.894  14.487   9.472  0.0456  0.1154 -0.0414
  196loPI   C1A 3127  15.531  14.489   9.012 -0.2567  0.2329 -0.3217
  196loPI   C2A 3128  15.435  14.398   8.638 -0.1723  0.2616  0.2857
  196loPI   C3A 3129  15.553  14.350   8.252  0.4132 -0.3371 -0.0794
  196loPI   C4A 3130  15.587  14.241   7.758  0.0426  0.0985  0.1166
  196loPI   C5A 3131  15.672  14.460   7.437  0.1803  0.1400  0.0326
  196loPI   C6A 3132  15.706  14.826   7.123  0.1451 -0.1328  0.1798
  196loPI   C1B 3133  15.961  14.771   9.124 -0.1640  0.2091  0.2962
  196loPI   C2B 3134  15.743  14.825   8.674  0.0106  0.0190  0.3561
  196loPI   C3B 3135  15.789  14.852   8.185  0.1678  0.0214 -0.1189
  196loPI   C4B 3136  16.119  15.058   7.923  0.3079  0.2097  0.0562
  197loPI    C1 3137  13.873  13.785   9.903 -0.2443  0.1045 -0.0596
  197loPI    C2 3138  13.742  13.582  10.222 -0.0122 -0.2891 -0.2084
  197loPI    C3 3139  14.079  13.797  10.245 -0.3253  0.1963 -0.0136
  197loPI   PO4 3140  13.801  13.637   9.750 -0.2665  0.0101  0.0884
  197loPI   GL1 3141  13.914  13.718   9.295 -0.1489  0.1240 -0.1488
  197loPI   GL2 3142  13.742  14.047   9.255  0.0599 -0.1794 -0.0427
  197loPI   C1A 3143  14.194  13.632   8.966 -0.1763  0.2491 -0.0376
  197loPI   C2A 3144  14.519  13.651   8.579 -0.0155 -0.0410 -0.0190
  197loPI   C3A 3145  14.523  13.522   8.117 -0.1455 -0.0633  0.1224
  197loPI   C4A 3146  14.609  13.417   7.685 -0.1169 -0.3450 -0.0896
  197loPI   C5A 3147  14.933  13.633   7.451  0.2362 -0.1698 -0.2196
  197loPI   C6A 3148  15.101  13.966   7.399  0.0486  0.0960 -0.0455
  197loPI   C1B 3149  13.846  13.984   8.834 -0.0102 -0.3954  0.4116
  197loPI   C2B 3150  14.021  13.811   8.430 -0.0077 -0.0801 -0.0188
  197loPI   C3B 3151  14.205  13.940   8.026 -0.0584  0.0237 -0.0899
  197loPI   C4B 3152  14.621  13.906   7.802 -0.0778 -0.0318  0.0432
  198loPI    C1 3153  12.435  12.360   9.964  0.2302  0.1878  0.0604
  198loPI    C2 3154  12.538  11.992   9.847 -0.0249  0.0747  0.1836
  198loPI    C3 3155  12.507  12.076  10.236  0.2330  0.2845  0.1613
  198loPI   PO4 3156  12.386  12.453   9.708 -0.2033  0.2307  0.0593
  198loPI   GL1 3157  12.438  12.364   9.255 -0.1991  0.2178  0.0005
  198loPI   GL2 3158  12.184  12.242   9.115 -0.2746  0.0390  0.1719
  198loPI   C1A 3159  12.542  12.420   8.790  0.0672  0.0684  0.0409
  198loPI   C2A 3160  12.342  12.367   8.381 -0.1663 -0.3293  0.5053
  198loPI   C3A 3161  12.168  12.619   8.040 -0.1646 -0.1571 -0.0538
  198loPI   C4A 3162  12.241  12.931   7.757  0.1505 -0.0690 -0.1118
  198loPI   C5A 3163  12.051  13.359   7.527  0.0763  0.2083 -0.1131
  198loPI   C6A 3164  11.953  13.747   7.305 -0.3218 -0.1663 -0.1007
  198loPI   C1B 3165  12.038  12.499   8.748  0.3043  0.0415 -0.1458
  198loPI   C2B 3166  11.868  12.779   8.416 -0.0162 -0.1370  0.2978
  198loPI   C3B 3167  12.008  13.061   8.169 -0.4113 -0.0665  0.0633
  198loPI   C4B 3168  12.195  13.489   8.184 -0.1123 -0.1869 -0.0868
  199loPI    C1 3169  10.915  16.090  10.259  0.1247  0.0864 -0.1103
  199loPI    C2 3170  10.997  16.450  10.413  0.1601 -0.0158  0.1132
  199loPI    C3 3171  10.877  16.153  10.653  0.0781 -0.1380 -0.0776
  199loPI   PO4 3172  10.909  16.155   9.951 -0.1995 -0.2399 -0.0592
  199loPI   GL1 3173  10.957  16.203   9.570  0.0487 -0.1249 -0.0113
  199loPI   GL2 3174  11.255  15.942   9.541 -0.1764 -0.2125  0.2031
  199loPI   C1A 3175  10.807  16.118   9.171  0.0273 -0.1496  0.1186
  199loPI   C2A 3176  10.789  16.399   8.872  0.1493  0.1948 -0.1008
  199loPI   C3A 3177  10.732  16.427   8.392 -0.0680  0.2323 -0.0105
  199loPI   C4A 3178  10.767  16.368   8.048 -0.1952  0.1493  0.3724
  199loPI   C5A 3179  10.744  16.693   7.695  0.0910 -0.2429 -0.0847
  199loPI   C6A 3180  10.966  16.882   7.474 -0.2380  0.1410  0.2755
  199loPI   C1B 3181  11.225  15.952   9.089  0.0333  0.2821  0.2294
  199loPI   C2B 3182  11.407  16.041   8.733  0.1518  0.1162  0.1363
  199loPI   C3B 3183  11.467  16.098   8.289  0.1870 -0.0605  0.1779
  199loPI   C4B 3184  11.537  16.150   7.866  0.0255  0.0637 -0.1810
  200loPI    C1 3185   7.155  14.743  10.083 -0.0797 -0.0815  0.0600
  200loPI    C2 3186   7.544  14.781  10.165 -0.0455 -0.0196 -0.1246
  200loPI    C3 3187   7.350  14.447  10.267 -0.0229  0.0807  0.2640
  200loPI   PO4 3188   7.122  14.779   9.849 -0.0004 -0.1998 -0.1316
  200loPI   GL1 3189   7.342  14.676   9.560 -0.1386  0.1892  0.0382
  200loPI   GL2 3190   7.637  14.692   9.674 -0.1393  0.0153  0.3827
  200loPI   C1A 3191   7.217  14.560   9.193  0.1366  0.1169  0.0328
  200loPI   C2A 3192   7.291  14.779   8.787  0.1029  0.2906 -0.3203
  200loPI   C3A 3193   7.477  15.095   8.473  0.0679  0.0670 -0.1007
  200loPI   C4A 3194   7.332  15.502   8.159 -0.0520 -0.2789  0.1404
  200loPI   C5A 3195   7.135  15.743   7.794 -0.0686 -0.0307 -0.0689
  200loPI   C6A 3196   6.890  15.746   7.414 -0.1352 -0.3343 -0.0019
  200loPI   C1B 3197   7.722  14.724   9.297 -0.1838 -0.0797  0.1511
  200loPI   C2B 3198   7.747  14.472   8.964  0.3700 -0.1295  0.2659
  200loPI   C3B 3199   7.573  14.515   8.541 -0.1679  0.0210 -0.1650
  200loPI   C4B 3200   7.642  14.703   8.160 -0.2139 -0.0197 -0.0351
  201loPI    C1 3201   6.650   1.136   9.806 -0.2545 -0.0691  0.0711
  201loPI    C2 3202   6.624   1.529   9.875  0.0631 -0.0010 -0.1746
  201loPI    C3 3203   6.836   1.295  10.121  0.2716  0.0616 -0.2918
  201loPI   PO4 3204   6.412   1.062   9.517  0.3382  0.0894  0.0623
  201loPI   GL1 3205   6.642   0.862   9.202  0.3337  0.0851 -0.2160
  201loPI   GL2 3206   6.489   0.591   9.199  0.2096  0.3379 -0.0397
  201loPI   C1A 3207   6.492   0.872   8.706  0.0718  0.0057 -0.1430
  201loPI   C2A 3208   6.646   0.897   8.279  0.1180 -0.5975  0.1360
  201loPI   C3A 3209   6.593   0.875   7.847 -0.1166 -0.0464 -0.0879
  201loPI   C4A 3210   6.625   0.732   7.505 -0.0545 -0.2537 -0.2112
  201loPI   C5A 3211   6.950   0.661   7.223  0.0826 -0.5122  0.0771
  201loPI   C6A 3212   7.248   0.738   6.828 -0.4192 -0.0427 -0.1292
  201loPI   C1B 3213   6.707   0.427   8.890 -0.1660 -0.1042 -0.0972
  201loPI   C2B 3214   7.206   0.422   8.718  0.0666  0.0596 -0.2113
  201loPI   C3B 3215   7.574   0.555   8.603 -0.1284 -0.0642  0.0140
  201loPI   C4B 3216   7.883   0.769   8.819  0.1278 -0.0018  0.1259
  202loPI    C1 3217   0.787  15.674  10.046 -0.0509  0.0633 -0.0275
  202loPI    C2 3218   0.536  15.950   9.901 -0.2868 -0.0979  0.0669
  202loPI    C3 3219   0.493  15.819  10.276  0.0308 -0.0225  0.1323
  202loPI   PO4 3220   1.009  15.824   9.948 -0.0772  0.4232  0.0508
  202loPI   GL1 3221   1.087  15.755   9.602  0.2139  0.1250 -0.0418
  202loPI   GL2 3222   1.007  15.457   9.614 -0.1664  0.1493  0.1830
  202loPI   C1A 3223   1.027  15.892   9.164 -0.1665 -0.1003  0.1040
  202loPI   C2A 3224   1.211  16.105   8.817  0.3756 -0.0636 -0.2514
  202loPI   C3A 3225   1.088  16.263   8.518 -0.0094  0.3048  0.0513
  202loPI   C4A 3226   1.099  16.337   8.067  0.1530 -0.0090  0.2832
  202loPI   C5A 3227   0.957  16.657   7.894  0.1888 -0.1103 -0.2289
  202loPI   C6A 3228   0.759  16.890   7.609 -0.1264  0.2476 -0.0299
  202loPI   C1B 3229   1.098  15.282   9.120 -0.2401 -0.2694  0.0973
  202loPI   C2B 3230   1.092  15.123   8.667  0.1994  0.0324 -0.0865
  202loPI   C3B 3231   1.178  15.215   8.211 -0.1465  0.1997  0.2776
  202loPI   C4B 3232   1.246  15.366   7.828  0.1102 -0.1615 -0.0063
  203loPI    C1 3233   2.240   9.331   9.885  0.2013 -0.1618  0.0414
  203loPI    C2 3234   2.116   9.248  10.256  0.0948  0.1467  0.0781
  203loPI    C3 3235   2.507   9.269  10.176  0.1249 -0.2950  0.0840
  203loPI   PO4 3236   1.983   9.481   9.756  0.2516  0.1710 -0.2928
  203loPI   GL1 3237   1.648   9.778   9.758  0.1004 -0.1801 -0.1283
  203loPI   GL2 3238   1.533   9.516   9.608 -0.1480  0.2226 -0.0754
  203loPI   C1A 3239   1.690   9.701   9.180 -0.0363 -0.2049 -0.0185
  203loPI   C2A 3240   1.669   9.612   8.820 -0.4647  0.3834  0.1402
  203loPI   C3A 3241   1.579   9.744   8.391  0.1617  0.4064  0.0549
  203loPI   C4A 3242   1.569   9.491   7.953  0.1342  0.0824 -0.0786
  203loPI   C5A 3243   1.759   9.412   7.619  0.2119 -0.2358 -0.2362
  203loPI   C6A 3244   2.011   9.271   7.292 -0.1992 -0.0818  0.2902
  203loPI   C1B 3245   1.256   9.364   9.296 -0.2945 -0.0105 -0.1384
  203loPI   C2B 3246   0.937   9.041   9.130 -0.1136  0.0617 -0.3914
  203loPI   C3B 3247   0.858   8.757   8.840  0.1046 -0.2652 -0.0289
  203loPI   C4B 3248   0.515   8.561   8.536  0.2183 -0.0381 -0.0212
  204loPI    C1 3249  12.642  11.304   9.475  0.2793 -0.2874 -0.0134
  204loPI    C2 3250  12.861  11.148   9.771  0.0563 -0.2413  0.1800
  204loPI    C3 3251  12.527  10.964   9.652  0.1594 -0.2743 -0.0654
  204loPI   PO4 3252  12.505  11.527   9.631 -0.0245 -0.0485  0.5139
  204loPI   GL1 3253  12.523  11.888   9.343  0.1495  0.5375  0.0107
  204loPI   GL2 3254  12.183  11.800   9.299 -0.1600  0.0731  0.0513
  204loPI   C1A 3255  12.469  11.926   8.880 -0.3765  0.2414  0.0388
  204loPI   C2A 3256  12.660  11.993   8.468 -0.1488  0.0653 -0.0289
  204loPI   C3A 3257  12.665  12.077   8.063 -0.2351  0.1868  0.3428
  204loPI   C4A 3258  12.503  11.959   7.725  0.0686  0.0917  0.0040
  204loPI   C5A 3259  12.229  11.649   7.605  0.1063 -0.2380 -0.0149
  204loPI   C6A 3260  11.932  11.350   7.460  0.1649  0.4746  0.1027
  204loPI   C1B 3261  12.361  11.493   9.030 -0.0140  0.0400 -0.2784
  204loPI   C2B 3262  12.441  11.490   8.532  0.1829  0.2084 -0.0286
  204loPI   C3B 3263  12.298  11.656   8.130 -0.1899 -0.0475 -0.0886
  204loPI   C4B 3264  12.143  12.023   7.997  0.2267 -0.1452 -0.1640
  205loPI    C1 3265   2.492   8.514   9.935 -0.0708 -0.0322 -0.1165
  205loPI    C2 3266   2.290   8.822  10.092  0.0784 -0.0250  0.0654
  205loPI    C3 3267   2.498   8.577  10.330  0.0550 -0.1990 -0.0908
  205loPI   PO4 3268   2.667   8.636   9.699  0.1176 -0.0066  0.2868
  205loPI   GL1 3269   2.617   8.637   9.351 -0.3604  0.0760  0.0430
  205loPI   GL2 3270   2.722   8.924   9.180 -0.0638 -0.1569 -0.2810
  205loPI   C1A 3271   2.580   8.587   8.881 -0.0243  0.4530 -0.1827
  205loPI   C2A 3272   2.387   8.865   8.504 -0.0785 -0.0054 -0.0079
  205loPI   C3A 3273   2.225   9.204   8.147  0.0006 -0.2455  0.2537
  205loPI   C4A 3274   2.083   9.599   7.961 -0.0117  0.2062 -0.1286
  205loPI   C5A 3275   1.796   9.901   7.710 -0.1976 -0.3081  0.0796
  205loPI   C6A 3276   1.576  10.141   7.484 -0.2252  0.1397  0.3619
  205loPI   C1B 3277   2.597   9.105   8.863 -0.3819 -0.2337 -0.1953
  205loPI   C2B 3278   2.573   9.383   8.492  0.1511  0.1014  0.1201
  205loPI   C3B 3279   2.531   9.578   8.064  0.0041  0.0456 -0.0100
  205loPI   C4B 3280   2.425   9.932   7.731  0.0001  0.1866  0.1398
  206loPI    C1 3281  11.628  14.329   9.948 -0.1117 -0.1674 -0.1140
  206loPI    C2 3282  11.726  13.975  10.106 -0.2356 -0.1566 -0.0110
  206loPI    C3 3283  11.504  14.233  10.316 -0.0117  0.0489 -0.0220
  206loPI   PO4 3284  11.884  14.429   9.873  0.1047  0.1592 -0.0652
  206loPI   GL1 3285  12.052  14.456   9.424  0.0681  0.2972 -0.1178
  206loPI   GL2 3286  11.815  14.632   9.418 -0.0870 -0.0706  0.3779
  206loPI   C1A 3287  11.929  14.547   8.984 -0.1057  0.0574  0.2684
  206loPI   C2A 3288  11.855  14.876   8.690  0.1957 -0.0207 -0.1159
  206loPI   C3A 3289  12.028  15.169   8.349  0.0208  0.0929 -0.1251
  206loPI   C4A 3290  11.965  15.222   7.933  0.1038  0.1268  0.1371
  206loPI   C5A 3291  11.872  15.391   7.512 -0.0873 -0.1907 -0.2612
  206loPI   C6A 3292  12.154  15.661   7.267  0.1538 -0.1288 -0.0600
  206loPI   C1B 3293  11.796  15.139   9.236 -0.2267  0.3310 -0.1749
  206loPI   C2B 3294  11.698  15.451   9.041  0.1005 -0.1417 -0.1102
  206loPI   C3B 3295  11.541  15.597   8.692 -0.1505  0.1604  0.1838
  206loPI   C4B 3296  11.572  15.575   8.306  0.1486 -0.0369  0.1657
  207loPI    C1 3297  10.483   5.982   9.859  0.0532 -0.0673 -0.0641
  207loPI    C2 3298  10.360   5.852  10.217 -0.0138  0.1599 -0.0025
  207loPI    C3 3299  10.736   5.784  10.097 -0.1190 -0.3140 -0.0832
  207loPI   PO4 3300  10.286   5.896   9.684  0.0462  0.0630 -0.1436
  207loPI   GL1 3301  10.237   5.704   9.301 -0.1247  0.1879 -0.0101
  207loPI   GL2 3302  10.069   6.012   9.270 -0.0187 -0.0945 -0.0701
  207loPI   C1A 3303  10.445   5.863   8.879 -0.0663 -0.0270 -0.1334
  207loPI   C2A 3304  10.570   6.016   8.597  0.3705 -0.1272  0.2179
  207loPI   C3A 3305  10.406   5.874   8.245  0.0931 -0.0604 -0.0209
  207loPI   C4A 3306  10.192   5.953   7.874 -0.0795 -0.0937  0.0111
  207loPI   C5A 3307  10.096   5.895   7.478 -0.0505  0.1636 -0.6806
  207loPI   C6A 3308  10.321   6.065   7.082  0.4785 -0.4539  0.2270
  207loPI   C1B 3309   9.946   5.828   8.909  0.1085 -0.0146  0.0426
  207loPI   C2B 3310   9.970   5.893   8.579  0.3523  0.0467 -0.2239
  207loPI   C3B 3311   9.639   6.036   8.415  0.1499  0.0913 -0.1660
  207loPI   C4B 3312   9.401   6.111   8.086  0.1245  0.4046 -0.1381
  208loPI    C1 3313   4.476   1.776   9.816  0.0964  0.0016  0.2915
  208loPI    C2 3314   4.341   1.484   9.579  0.2408  0.0795  0.1114
  208loPI    C3 3315   4.215   1.508   9.958  0.0067 -0.0447  0.0432
  208loPI   PO4 3316   4.478   1.998   9.684  0.0198  0.1312  0.1036
  208loPI   GL1 3317   4.231   2.260   9.473  0.1973  0.0010  0.0167
  208loPI   GL2 3318   4.375   2.506   9.585 -0.2356 -0.2395 -0.2048
  208loPI   C1A 3319   4.463   2.357   9.127  0.0712  0.2342 -0.1138
  208loPI   C2A 3320   4.560   2.240   8.774  0.1685 -0.0793 -0.0744
  208loPI   C3A 3321   4.556   2.227   8.317 -0.0707  0.3164  0.2606
  208loPI   C4A 3322   4.500   2.126   7.983 -0.3635 -0.1090 -0.0677
  208loPI   C5A 3323   4.570   2.152   7.635 -0.2391 -0.0413 -0.3881
  208loPI   C6A 3324   4.775   2.395   7.309  0.1542 -0.2032 -0.0915
  208loPI   C1B 3325   3.999   2.579   9.184 -0.0426 -0.1240  0.0214
  208loPI   C2B 3326   3.816   2.652   8.783  0.0587 -0.3527 -0.0197
  208loPI   C3B 3327   3.725   2.664   8.318  0.1902 -0.2021  0.0656
  208loPI   C4B 3328   3.401   2.928   8.241 -0.4690 -0.1779 -0.0858
  209loPI    C1 3329  12.617  17.182  10.001 -0.1387  0.1917 -0.1115
  209loPI    C2 3330  12.794  17.469   9.787  0.1996  0.1589  0.1174
  209loPI    C3 3331  12.565  17.567  10.100  0.1615  0.1855  0.0815
  209loPI   PO4 3332  12.527  17.026   9.747 -0.0057 -0.0039  0.0892
  209loPI   GL1 3333  12.285  16.810   9.453  0.0726  0.1746 -0.0900
  209loPI   GL2 3334  11.970  16.688   9.324  0.0131 -0.2873  0.2336
  209loPI   C1A 3335  12.483  17.054   9.117  0.0608  0.1775 -0.1604
  209loPI   C2A 3336  12.773  17.100   8.819  0.0627  0.1467  0.1095
  209loPI   C3A 3337  12.711  16.753   8.482  0.0601 -0.2108 -0.4081
  209loPI   C4A 3338  12.832  16.899   8.059  0.0825  0.1568  0.2142
  209loPI   C5A 3339  13.072  16.986   7.706 -0.3004  0.0503 -0.0232
  209loPI   C6A 3340  13.483  17.116   7.674 -0.2047  0.1068  0.0597
  209loPI   C1B 3341  11.666  16.477   9.033 -0.1682  0.0798  0.1791
  209loPI   C2B 3342  11.739  16.457   8.666  0.1313  0.1527 -0.1216
  209loPI   C3B 3343  11.806  16.642   8.274  0.2567  0.1578 -0.5099
  209loPI   C4B 3344  11.911  16.595   7.885 -0.0909 -0.2403 -0.0391
  210loPI    C1 3345   3.959  16.405  10.360 -0.1178  0.0127  0.1479
  210loPI    C2 3346   3.823  16.066  10.523  0.0426 -0.0556  0.1413
  210loPI    C3 3347   4.074  16.300  10.728 -0.0023  0.0173  0.1135
  210loPI   PO4 3348   4.060  16.346  10.142  0.1834 -0.2265 -0.1824
  210loPI   GL1 3349   4.194  16.497   9.741  0.0420  0.2959 -0.2949
  210loPI   GL2 3350   4.018  16.561   9.460  0.0609  0.2656  0.1286
  210loPI   C1A 3351   4.489  16.769   9.408  0.1736 -0.0759 -0.1063
  210loPI   C2A 3352   4.410  16.775   8.962  0.1584  0.0248 -0.0772
  210loPI   C3A 3353   4.340  17.108   8.595  0.0946 -0.0161  0.0012
  210loPI   C4A 3354   4.414  17.598   8.427  0.0274  0.3773 -0.4403
  210loPI   C5A 3355   4.178  17.905   8.158 -0.2421  0.1113 -0.1051
  210loPI   C6A 3356   3.782  18.165   8.283  0.3169 -0.1426 -0.1978
  210loPI   C1B 3357   3.824  16.270   9.278 -0.5701  0.0253  0.0604
  210loPI   C2B 3358   3.606  16.043   8.990 -0.0857  0.2717  0.3415
  210loPI   C3B 3359   3.353  16.188   8.667 -0.0447  0.2734 -0.2966
  210loPI   C4B 3360   3.545  16.478   8.323 -0.0631  0.0458  0.3560
  211loPI    C1 3361   5.010  14.881  10.030  0.0306  0.0190 -0.0005
  211loPI    C2 3362   4.903  15.250  10.144 -0.0223 -0.0006  0.0131
  211loPI    C3 3363   5.172  15.045  10.357  0.0900  0.0734 -0.0568
  211loPI   PO4 3364   5.033  14.874   9.794  0.2635  0.0176 -0.0363
  211loPI   GL1 3365   5.262  15.072   9.598  0.0792  0.0834 -0.0847
  211loPI   GL2 3366   4.976  15.023   9.312 -0.1324 -0.2761 -0.1404
  211loPI   C1A 3367   5.467  15.203   9.189  0.1695  0.4377 -0.2812
  211loPI   C2A 3368   5.540  15.349   8.748 -0.1681  0.2748  0.1912
  211loPI   C3A 3369   5.537  15.354   8.343  0.0038  0.1263 -0.0747
  211loPI   C4A 3370   5.319  15.616   8.106 -0.0690  0.1530 -0.2707
  211loPI   C5A 3371   5.456  15.756   7.735 -0.0813  0.0504  0.2244
  211loPI   C6A 3372   5.367  16.080   7.494 -0.0017 -0.2036 -0.0828
  211loPI   C1B 3373   4.777  15.196   8.960 -0.1423 -0.1408 -0.0491
  211loPI   C2B 3374   4.426  15.401   8.844  0.2490  0.0263 -0.0761
  211loPI   C3B 3375   4.130  15.394   8.435  0.2794  0.0165  0.1263
  211loPI   C4B 3376   3.714  15.381   8.272  0.4263  0.0293  0.4002
  212loPI    C1 3377  17.227  10.363  10.409 -0.3695  0.0063 -0.1014
  212loPI    C2 3378  17.399  10.023  10.533 -0.0728  0.1192 -0.1931
  212loPI    C3 3379  17.494  10.370  10.707 -0.2551  0.1767 -0.2059
  212loPI   PO4 3380  17.260  10.379  10.033  0.0089 -0.0416 -0.0148
  212loPI   GL1 3381  17.066  10.705   9.603 -0.1105 -0.1593 -0.1321
  212loPI   GL2 3382  17.106  10.947   9.726  0.0297  0.0778 -0.1154
  212loPI   C1A 3383  16.845  10.709   9.210 -0.0370  0.0964 -0.0359
  212loPI   C2A 3384  16.431  10.787   8.922 -0.2306  0.1959  0.0258
  212loPI   C3A 3385  16.434  10.948   8.536  0.0267 -0.0890  0.1722
  212loPI   C4A 3386  16.257  10.943   8.203 -0.5017 -0.0085  0.2370
  212loPI   C5A 3387  16.101  11.059   7.759  0.1958  0.0488  0.1108
  212loPI   C6A 3388  16.054  11.244   7.285 -0.1786 -0.2078  0.1908
  212loPI   C1B 3389  17.361  11.195   9.481 -0.0423  0.2375 -0.2993
  212loPI   C2B 3390  17.285  11.685   9.334 -0.0301 -0.0497  0.1733
  212loPI   C3B 3391  17.384  12.094   9.194 -0.1046  0.1508  0.5298
  212loPI   C4B 3392  17.281  12.509   9.183 -0.3257  0.1182  0.3581
  213loPI    C1 3393  13.204   3.410   9.875 -0.5094 -0.1440 -0.2080
  213loPI    C2 3394  13.074   3.789   9.865  0.1552  0.1112  0.1907
  213loPI    C3 3395  12.906   3.526  10.116 -0.4010  0.0908 -0.1843
  213loPI   PO4 3396  13.289   3.333   9.597  0.2477 -0.2096  0.0140
  213loPI   GL1 3397  13.080   3.339   9.274  0.0037 -0.0533  0.3158
  213loPI   GL2 3398  12.759   3.319   9.091  0.2945  0.1175  0.0680
  213loPI   C1A 3399  13.374   3.201   8.992  0.0978  0.0557  0.1487
  213loPI   C2A 3400  13.397   3.146   8.547  0.0723 -0.1128 -0.0591
  213loPI   C3A 3401  13.398   3.149   8.228 -0.0123  0.1596 -0.1358
  213loPI   C4A 3402  13.155   3.189   7.899 -0.0035  0.0719 -0.0877
  213loPI   C5A 3403  12.855   3.115   7.504 -0.1339 -0.1047 -0.3416
  213loPI   C6A 3404  12.626   2.897   7.144 -0.0032  0.0838 -0.1508
  213loPI   C1B 3405  12.896   3.081   8.796 -0.1099 -0.0617  0.1862
  213loPI   C2B 3406  12.862   2.922   8.342 -0.0066  0.1822  0.4979
  213loPI   C3B 3407  12.806   2.745   7.986 -0.2130  0.0207 -0.3126
  213loPI   C4B 3408  12.852   2.609   7.611 -0.0980  0.3673  0.1671
  214loPI    C1 3409  12.189  18.666  10.167  0.1479  0.1208 -0.0505
  214loPI    C2 3410  11.988  18.583  10.502 -0.0286 -0.1133 -0.2115
  214loPI    C3 3411  12.208  18.916  10.479 -0.0835 -0.0516  0.1047
  214loPI   PO4 3412  12.073  18.684  10.040 -0.1424  0.1294 -0.0729
  214loPI   GL1 3413  11.875  18.568   9.655  0.1418 -0.0518 -0.3323
  214loPI   GL2 3414  12.136  18.382   9.577 -0.1367 -0.2026 -0.0586
  214loPI   C1A 3415  11.783  18.535   9.221 -0.1624 -0.2845  0.3914
  214loPI   C2A 3416  11.842  18.432   8.855 -0.0290 -0.2998  0.2315
  214loPI   C3A 3417  11.946  18.505   8.447 -0.2312 -0.1221 -0.0446
  214loPI   C4A 3418  12.057  18.498   8.074 -0.0302 -0.2478 -0.3313
  214loPI   C5A 3419  12.341  18.509   7.668  0.0545 -0.1750  0.0359
  214loPI   C6A 3420  12.495  18.284   7.388  0.1752 -0.0911 -0.0186
  214loPI   C1B 3421  12.311  18.453   9.176  0.1444  0.2869 -0.1589
  214loPI   C2B 3422  12.428  18.542   8.782  0.0658 -0.2033  0.0964
  214loPI   C3B 3423  12.613  18.373   8.387 -0.0748  0.0321  0.3231
  214loPI   C4B 3424  12.571  18.102   7.961  0.2054 -0.0866  0.4355
  215loPI    C1 3425   7.840  10.171   9.597  0.1687 -0.1523 -0.3695
  215loPI    C2 3426   8.147  10.400   9.481  0.0960  0.0684 -0.1351
  215loPI    C3 3427   8.104  10.303   9.867  0.1057 -0.3147 -0.2263
  215loPI   PO4 3428   7.761  10.081   9.446 -0.0799  0.1966  0.2195
  215loPI   GL1 3429   7.936   9.989   9.056 -0.2876 -0.1952 -0.2653
  215loPI   GL2 3430   8.150  10.223   8.998 -0.0382 -0.0103 -0.0209
  215loPI   C1A 3431   7.792  10.036   8.638 -0.1559 -0.2490 -0.4049
  215loPI   C2A 3432   7.805  10.064   8.263  0.2441  0.0809  0.2160
  215loPI   C3A 3433   7.865  10.362   7.841  0.0799 -0.0909  0.1932
  215loPI   C4A 3434   7.851  10.355   7.384 -0.2664  0.0553 -0.1649
  215loPI   C5A 3435   7.400  10.498   7.177 -0.1040  0.1410  0.1311
  215loPI   C6A 3436   7.219  10.760   6.838  0.2731  0.1009 -0.0269
  215loPI   C1B 3437   8.464  10.453   8.715 -0.1691  0.0931  0.1379
  215loPI   C2B 3438   8.759  10.587   8.405 -0.1461  0.1300  0.1342
  215loPI   C3B 3439   9.072  10.838   8.023  0.1579  0.2733 -0.2114
  215loPI   C4B 3440   9.251  10.651   7.729 -0.4666  0.1028 -0.0173
  216loPI    C1 3441  12.740   7.421   9.525  0.2656 -0.1288  0.0185
  216loPI    C2 3442  12.786   7.378   9.920  0.0234  0.0571  0.0687
  216loPI    C3 3443  12.823   7.739   9.752  0.1851 -0.0311 -0.0881
  216loPI   PO4 3444  12.504   7.400   9.443  0.0141 -0.0613 -0.0649
  216loPI   GL1 3445  12.191   7.191   9.171 -0.1245 -0.1334  0.1831
  216loPI   GL2 3446  12.150   7.458   9.103  0.0032  0.1239 -0.1749
  216loPI   C1A 3447  12.261   7.027   8.769 -0.1272  0.3157  0.1030
  216loPI   C2A 3448  12.418   7.123   8.491  0.1071  0.1542 -0.1694
  216loPI   C3A 3449  12.262   7.289   8.119  0.2242 -0.0338 -0.2507
  216loPI   C4A 3450  12.197   7.350   7.759 -0.3162  0.1797  0.2057
  216loPI   C5A 3451  12.297   7.409   7.345 -0.0404  0.1118 -0.0923
  216loPI   C6A 3452  12.237   7.285   6.889  0.0948 -0.3523  0.2310
  216loPI   C1B 3453  12.039   7.448   8.683  0.1333  0.1399  0.0073
  216loPI   C2B 3454  12.114   7.738   8.332 -0.0549 -0.4502  0.1984
  216loPI   C3B 3455  12.413   7.975   8.104 -0.0484  0.0097 -0.1267
  216loPI   C4B 3456  12.624   8.191   7.797 -0.1105  0.2934  0.1706
  217loPI    C1 3457  12.159   3.492   9.653  0.0129 -0.3727  0.0354
  217loPI    C2 3458  12.338   3.550  10.006 -0.1704  0.0220  0.0695
  217loPI    C3 3459  11.955   3.653   9.957 -0.1648 -0.0894 -0.2280
  217loPI   PO4 3460  12.367   3.651   9.413 -0.0916 -0.1320 -0.1598
  217loPI   GL1 3461  12.395   3.744   8.992 -0.0128 -0.0839 -0.3258
  217loPI   GL2 3462  12.115   3.976   9.090  0.1344  0.1598 -0.2841
  217loPI   C1A 3463  12.288   3.778   8.626 -0.2698 -0.1929  0.1935
  217loPI   C2A 3464  12.476   3.956   8.360  0.2687  0.0911 -0.3095
  217loPI   C3A 3465  12.492   4.205   8.027 -0.3794  0.0710 -0.0951
  217loPI   C4A 3466  12.519   4.265   7.562  0.2174 -0.3065  0.3497
  217loPI   C5A 3467  12.287   4.406   7.227 -0.1909  0.0219  0.0406
  217loPI   C6A 3468  12.267   4.652   6.840 -0.2665 -0.0544 -0.1394
  217loPI   C1B 3469  12.146   4.247   8.803  0.1527 -0.0586  0.3384
  217loPI   C2B 3470  12.080   4.284   8.377 -0.2056  0.1955 -0.1101
  217loPI   C3B 3471  12.013   4.355   7.900 -0.0199 -0.0167  0.1266
  217loPI   C4B 3472  11.892   4.499   7.578  0.1601  0.0013 -0.0888
  218loPI    C1 3473   2.857  12.455  10.227  0.0636 -0.0649  0.1360
  218loPI    C2 3474   3.071  12.574  10.543 -0.1457 -0.0097  0.2585
  218loPI    C3 3475   2.748  12.781  10.430  0.0016  0.0463 -0.0731
  218loPI   PO4 3476   3.025  12.384  10.036  0.2002  0.2162  0.2607
  218loPI   GL1 3477   3.229  12.643   9.754 -0.0789 -0.1751  0.1307
  218loPI   GL2 3478   3.032  12.510   9.478 -0.0409  0.0918  0.0784
  218loPI   C1A 3479   3.512  12.770   9.411 -0.1252  0.0765  0.0972
  218loPI   C2A 3480   3.756  12.866   9.044 -0.1046 -0.1300 -0.2335
  218loPI   C3A 3481   3.922  12.971   8.690 -0.0829 -0.3037 -0.1010
  218loPI   C4A 3482   4.144  12.876   8.388  0.2252 -0.0479 -0.0486
  218loPI   C5A 3483   4.167  12.799   7.909  0.2638 -0.1215 -0.0994
  218loPI   C6A 3484   4.189  12.606   7.474 -0.0504 -0.1293 -0.0173
  218loPI   C1B 3485   2.994  12.697   9.089 -0.0607 -0.1940 -0.2483
  218loPI   C2B 3486   2.912  12.899   8.755  0.1106 -0.0295 -0.0948
  218loPI   C3B 3487   2.940  13.175   8.432  0.3690 -0.1947 -0.1809
  218loPI   C4B 3488   2.800  13.268   8.031 -0.0626 -0.0704  0.0207
  219loPI    C1 3489  14.684  17.419  10.208 -0.3505  0.0282 -0.1983
  219loPI    C2 3490  14.575  17.786  10.323 -0.0642  0.0514  0.0089
  219loPI    C3 3491  14.667  17.509  10.597  0.1214 -0.0500 -0.1526
  219loPI   PO4 3492  14.555  17.399   9.938 -0.1420  0.0186 -0.0284
  219loPI   GL1 3493  14.470  17.624   9.514  0.1830 -0.3301  0.1642
  219loPI   GL2 3494  14.187  17.440   9.491  0.1617 -0.0339 -0.1281
  219loPI   C1A 3495  14.482  17.884   9.189  0.0000  0.0845 -0.1053
  219loPI   C2A 3496  14.609  17.826   8.804 -0.1895  0.0129  0.1847
  219loPI   C3A 3497  14.592  17.699   8.419 -0.0202  0.1116  0.1376
  219loPI   C4A 3498  14.560  17.722   7.969  0.1941  0.0746 -0.0177
  219loPI   C5A 3499  14.614  17.794   7.618 -0.2385  0.0413  0.1065
  219loPI   C6A 3500  14.579  17.926   7.318  0.1816 -0.2789 -0.2290
  219loPI   C1B 3501  14.195  17.458   9.054 -0.1932 -0.0360  0.1610
  219loPI   C2B 3502  14.221  17.386   8.583  0.0172  0.0461 -0.2411
  219loPI   C3B 3503  14.243  17.392   8.141  0.2370 -0.2187  0.0152
  219loPI   C4B 3504  14.484  17.191   7.784  0.0357  0.0547 -0.2060
  220loPI    C1 3505   8.528   4.085  10.342  0.0377 -0.0704 -0.4248
  220loPI    C2 3506   8.268   4.309  10.136 -0.0288  0.2412 -0.0169
  220loPI    C3 3507   8.147   4.110  10.461  0.1942  0.2085  0.0484
  220loPI   PO4 3508   8.675   3.945  10.172 -0.0805 -0.2027  0.2069
  220loPI   GL1 3509   8.629   3.744   9.813  0.0659  0.0677  0.2177
  220loPI   GL2 3510   8.638   3.517   9.643 -0.0096  0.3364  0.2302
  220loPI   C1A 3511   8.759   3.937   9.426 -0.3209  0.0405  0.0461
  220loPI   C2A 3512   8.758   3.939   8.978  0.0570  0.0128 -0.0592
  220loPI   C3A 3513   8.734   3.812   8.560 -0.3465  0.0045  0.2349
  220loPI   C4A 3514   8.594   3.646   8.150  0.1743  0.1981  0.0082
  220loPI   C5A 3515   8.584   3.356   7.874 -0.3206 -0.1529 -0.2461
  220loPI   C6A 3516   8.452   3.271   7.508  0.1824 -0.1166  0.2290
  220loPI   C1B 3517   8.885   3.438   9.255 -0.2539 -0.0818  0.0123
  220loPI   C2B 3518   9.173   3.192   9.073 -0.4467  0.1666 -0.0298
  220loPI   C3B 3519   9.246   3.107   8.682  0.1047  0.1818  0.2155
  220loPI   C4B 3520   9.395   2.980   8.200 -0.0417  0.2825 -0.1400
  221loPI    C1 3521  18.596   4.833   9.890  0.0756 -0.1547 -0.0266
  221loPI    C2 3522  18.872   4.617  10.083  0.0090 -0.1070  0.1238
  221loPI    C3 3523  18.484   4.559  10.158 -0.0121  0.0138  0.1112
  221loPI   PO4 3524  18.581   4.812   9.686 -0.1451 -0.1519  0.2334
  221loPI   GL1 3525  18.817   4.793   9.449  0.3182 -0.4187 -0.0584
  221loPI   GL2 3526  19.116   4.718   9.584  0.0498  0.0812 -0.0225
  221loPI   C1A 3527  18.815   5.061   8.993 -0.1172 -0.3457 -0.0092
  221loPI   C2A 3528  18.922   4.994   8.541  0.2413 -0.2028  0.1529
  221loPI   C3A 3529  19.002   4.943   8.127  0.0660  0.0369 -0.0089
  221loPI   C4A 3530  19.193   4.691   7.765  0.0273  0.0849  0.1566
  221loPI   C5A 3531  19.112   4.701   7.389 -0.0665  0.1506 -0.0683
  221loPI   C6A 3532  18.912   4.510   7.009  0.0207 -0.0428 -0.1656
  221loPI   C1B 3533  19.320   4.834   9.144  0.0462 -0.2052  0.4832
  221loPI   C2B 3534  19.428   4.953   8.624 -0.0179  0.1284  0.1614
  221loPI   C3B 3535  19.457   5.126   8.249 -0.0114 -0.1764  0.1459
  221loPI   C4B 3536  19.533   5.494   8.115 -0.2194  0.2567 -0.2822
  222loPI    C1 3537   7.138  16.243  10.114  0.0164  0.0089  0.1731
  222loPI    C2 3538   7.000  16.164  10.480  0.0957  0.1487  0.2340
  222loPI    C3 3539   7.287  16.438  10.430  0.0921  0.1228  0.0681
  222loPI   PO4 3540   6.968  16.354   9.957 -0.1242 -0.0792 -0.0276
  222loPI   GL1 3541   6.747  16.252   9.607  0.0870 -0.2926  0.0981
  222loPI   GL2 3542   6.619  15.926   9.594 -0.0173 -0.0371 -0.2593
  222loPI   C1A 3543   6.703  16.376   9.110  0.1047 -0.0338 -0.0667
  222loPI   C2A 3544   6.641  16.300   8.607 -0.0191  0.2686  0.3602
  222loPI   C3A 3545   6.423  15.928   8.357  0.3482  0.1805  0.2498
  222loPI   C4A 3546   6.384  15.663   8.048  0.0281 -0.0661  0.0794
  222loPI   C5A 3547   6.522  15.553   7.641  0.1042 -0.1569  0.2838
  222loPI   C6A 3548   6.171  15.493   7.368 -0.0762  0.4228 -0.2446
  222loPI   C1B 3549   6.727  15.886   9.219  0.2012 -0.0898  0.0691
  222loPI   C2B 3550   6.690  15.778   8.852 -0.1619 -0.1161 -0.1572
  222loPI   C3B 3551   6.713  15.475   8.551  0.0304 -0.1346  0.2540
  222loPI   C4B 3552   6.827  15.446   8.066 -0.0011  0.0895  0.0390
  223loPI    C1 3553   4.494  11.421   9.746  0.2219 -0.2671  0.0701
  223loPI    C2 3554   4.418  11.375  10.136  0.0972  0.2561  0.1160
  223loPI    C3 3555   4.661  11.119   9.948  0.1791  0.0118  0.5400
  223loPI   PO4 3556   4.451  11.649   9.751  0.3028 -0.1158 -0.1374
  223loPI   GL1 3557   4.284  11.910   9.366 -0.0919  0.2016  0.2226
  223loPI   GL2 3558   4.410  11.654   9.256  0.0058 -0.1202 -0.1509
  223loPI   C1A 3559   4.260  11.967   8.881 -0.0930 -0.2368 -0.1227
  223loPI   C2A 3560   4.105  11.891   8.514  0.1654 -0.2541  0.0465
  223loPI   C3A 3561   4.353  11.784   8.069  0.1008  0.0492 -0.2138
  223loPI   C4A 3562   4.531  11.637   7.730 -0.1996  0.0742 -0.1171
  223loPI   C5A 3563   4.326  11.251   7.468  0.3394 -0.2858 -0.0455
  223loPI   C6A 3564   3.875  11.145   7.577 -0.1122 -0.0737  0.2806
  223loPI   C1B 3565   4.138  11.507   9.109 -0.0024 -0.2136  0.1363
  223loPI   C2B 3566   4.051  11.331   8.712  0.0025  0.3156  0.2068
  223loPI   C3B 3567   4.083  11.374   8.261  0.1597 -0.2513  0.1029
  223loPI   C4B 3568   4.214  11.174   7.964  0.0722 -0.1757 -0.2349
  224loPI    C1 3569  15.715   2.990  10.000  0.1170 -0.0506 -0.1357
  224loPI    C2 3570  16.000   2.930   9.726 -0.0414 -0.2682 -0.2567
  224loPI    C3 3571  16.077   2.863  10.113  0.0836 -0.2843 -0.2839
  224loPI   PO4 3572  15.674   3.232   9.937  0.3816 -0.1592 -0.3399
  224loPI   GL1 3573  15.365   3.447   9.618  0.1002 -0.0148 -0.0336
  224loPI   GL2 3574  15.191   3.595   9.377  0.0822 -0.4402 -0.0656
  224loPI   C1A 3575  15.460   3.263   9.141 -0.2432  0.0110 -0.0536
  224loPI   C2A 3576  15.564   3.276   8.690 -0.0024  0.2126 -0.0862
  224loPI   C3A 3577  15.570   3.248   8.238 -0.0822  0.1855 -0.0142
  224loPI   C4A 3578  15.392   3.293   7.807 -0.1797  0.0104 -0.1083
  224loPI   C5A 3579  15.247   3.382   7.311  0.0211 -0.0213  0.1512
  224loPI   C6A 3580  14.974   3.649   7.165 -0.0976  0.1523 -0.2186
  224loPI   C1B 3581  15.208   3.687   8.952 -0.3019  0.2538 -0.1256
  224loPI   C2B 3582  15.139   3.632   8.458 -0.1344  0.2960 -0.0223
  224loPI   C3B 3583  14.861   3.772   8.186 -0.1325 -0.2866 -0.0113
  224loPI   C4B 3584  14.672   4.094   7.964 -0.2237  0.0341  0.0032
  225loPI    C1 3585  11.309   7.611   9.521 -0.0040 -0.1862 -0.2463
  225loPI    C2 3586  11.011   7.512   9.768  0.2541  0.0463  0.1700
  225loPI    C3 3587  11.034   7.883   9.622  0.1790 -0.0529 -0.0998
  225loPI   PO4 3588  11.272   7.535   9.329 -0.2219  0.2742 -0.1460
  225loPI   GL1 3589  11.142   7.353   9.005  0.3136 -0.1338 -0.1498
  225loPI   GL2 3590  11.275   7.010   8.903 -0.2162  0.0004 -0.0342
  225loPI   C1A 3591  10.952   7.505   8.638 -0.0577  0.2170 -0.4207
  225loPI   C2A 3592  10.928   7.444   8.226  0.3384 -0.0924 -0.0020
  225loPI   C3A 3593  11.019   7.433   7.869  0.0260  0.3476 -0.4797
  225loPI   C4A 3594  10.897   7.239   7.491 -0.0497  0.1248 -0.1096
  225loPI   C5A 3595  10.756   6.965   7.174 -0.2065  0.1345  0.0473
  225loPI   C6A 3596  10.653   6.753   6.735  0.1496  0.2912 -0.2348
  225loPI   C1B 3597  11.324   7.024   8.449  0.0776 -0.3013 -0.0742
  225loPI   C2B 3598  11.386   6.980   8.005  0.2851  0.3294 -0.2305
  225loPI   C3B 3599  11.300   6.869   7.623 -0.2265  0.0148 -0.0753
  225loPI   C4B 3600  11.248   6.765   7.173 -0.2093  0.0686  0.1078
  226loPI    C1 3601  11.923  19.193   9.983 -0.1213 -0.0860  0.1804
  226loPI    C2 3602  11.721  19.424  10.240 -0.0572 -0.0140  0.1666
  226loPI    C3 3603  11.752  19.030  10.306 -0.0593  0.0009  0.2573
  226loPI   PO4 3604  12.023  19.439   9.793 -0.2536 -0.0389  0.1802
  226loPI   GL1 3605  12.250  19.455   9.544  0.0581 -0.0010 -0.0063
  226loPI   GL2 3606  12.485  19.424   9.529 -0.0255  0.1266  0.0651
  226loPI   C1A 3607  12.194  19.487   9.094 -0.1730 -0.0722 -0.2415
  226loPI   C2A 3608  12.117  19.499   8.579 -0.0969 -0.1606  0.0369
  226loPI   C3A 3609  12.303  19.406   8.134  0.4137 -0.0143 -0.2433
  226loPI   C4A 3610  12.331  19.428   7.737  0.0683  0.4654 -0.0512
  226loPI   C5A 3611  12.473  19.714   7.389  0.0323  0.0145 -0.0939
  226loPI   C6A 3612  12.968  19.846   7.131 -0.0562 -0.0761  0.0323
  226loPI   C1B 3613  12.755  19.619   9.133 -0.0063 -0.1896 -0.5121
  226loPI   C2B 3614  12.913  19.803   8.797 -0.0029  0.1096 -0.1939
  226loPI   C3B 3615  13.305  19.922   8.643 -0.1367  0.0314  0.0063
  226loPI   C4B 3616  13.536  20.279   8.481  0.0445  0.2802 -0.0354
  227loPI    C1 3617  18.165   6.157   9.816  0.2115 -0.0133 -0.0052
  227loPI    C2 3618  18.090   6.263  10.194 -0.0947 -0.2581  0.0074
  227loPI    C3 3619  17.801   6.286   9.919  0.0999 -0.1706 -0.1935
  227loPI   PO4 3620  18.318   6.185   9.591 -0.2405  0.1272  0.0737
  227loPI   GL1 3621  18.539   6.313   9.317  0.0747  0.0667 -0.3050
  227loPI   GL2 3622  18.202   6.409   9.126 -0.3427 -0.3012 -0.4289
  227loPI   C1A 3623  18.659   6.021   8.937  0.0635  0.0683 -0.0295
  227loPI   C2A 3624  18.739   5.944   8.498 -0.0670 -0.0757  0.3117
  227loPI   C3A 3625  18.734   5.829   8.133 -0.0187  0.1014  0.3259
  227loPI   C4A 3626  18.698   5.831   7.703  0.2971  0.1937  0.1218
  227loPI   C5A 3627  19.030   5.767   7.408 -0.0251  0.0764 -0.0387
  227loPI   C6A 3628  19.362   5.798   7.053  0.1774 -0.1131  0.0120
  227loPI   C1B 3629  18.211   6.233   8.794 -0.0890  0.0675  0.1788
  227loPI   C2B 3630  18.357   6.306   8.378  0.0506 -0.0989 -0.1967
  227loPI   C3B 3631  18.516   6.250   7.913 -0.0901  0.5323 -0.2931
  227loPI   C4B 3632  18.587   6.401   7.504 -0.1736  0.0616  0.0335
  228loPI    C1 3633   6.726   8.358   9.906  0.0224 -0.0230  0.0078
  228loPI    C2 3634   6.825   8.580  10.223 -0.0650  0.1177 -0.0624
  228loPI    C3 3635   6.486   8.368  10.226 -0.0086  0.0277 -0.0168
  228loPI   PO4 3636   6.856   8.445   9.684  0.0350  0.0121 -0.1657
  228loPI   GL1 3637   6.904   8.413   9.237  0.2892  0.2053 -0.1673
  228loPI   GL2 3638   6.732   8.346   8.918  0.2171 -0.2988 -0.2334
  228loPI   C1A 3639   7.118   8.620   8.793  0.0112 -0.0324 -0.1697
  228loPI   C2A 3640   7.076   8.734   8.409 -0.2472 -0.0214  0.0191
  228loPI   C3A 3641   6.978   8.692   8.060 -0.2841 -0.2390  0.0649
  228loPI   C4A 3642   6.755   8.566   7.808 -0.1399  0.1100  0.1225
  228loPI   C5A 3643   6.450   8.648   7.427  0.2730 -0.2233 -0.0406
  228loPI   C6A 3644   6.068   8.895   7.187 -0.0608  0.1558 -0.0988
  228loPI   C1B 3645   6.647   8.519   8.546  0.1399 -0.0790 -0.3486
  228loPI   C2B 3646   6.496   8.491   8.195  0.0566 -0.0056  0.0079
  228loPI   C3B 3647   6.311   8.350   7.826 -0.0987 -0.3240 -0.2166
  228loPI   C4B 3648   5.999   8.075   7.794  0.0600  0.0331 -0.0757
  229loPI    C1 3649  18.828  12.430  10.294  0.1925 -0.1296 -0.0256
  229loPI    C2 3650  19.159  12.311  10.483  0.2886  0.2988  0.0865
  229loPI    C3 3651  18.820  12.366  10.689  0.0515 -0.4419 -0.0761
  229loPI   PO4 3652  18.939  12.513  10.075 -0.0884  0.0402  0.2800
  229loPI   GL1 3653  18.723  12.577   9.712  0.1183 -0.2219 -0.0839
  229loPI   GL2 3654  18.649  12.736   9.634 -0.0315  0.0618 -0.0560
  229loPI   C1A 3655  18.679  12.354   9.353  0.1173 -0.0824  0.2917
  229loPI   C2A 3656  18.578  12.202   8.972 -0.0628 -0.1130  0.4966
  229loPI   C3A 3657  18.231  12.229   8.668 -0.0954 -0.1344 -0.2963
  229loPI   C4A 3658  18.130  12.389   8.242 -0.1052 -0.2290 -0.1327
  229loPI   C5A 3659  18.251  12.240   7.892  0.2172 -0.1447 -0.2188
  229loPI   C6A 3660  18.481  12.354   7.615  0.2544 -0.1024  0.2308
  229loPI   C1B 3661  18.948  12.773   9.292 -0.0717 -0.0988  0.0113
  229loPI   C2B 3662  19.013  12.746   8.793 -0.1821  0.0772 -0.0497
  229loPI   C3B 3663  18.955  12.564   8.438 -0.2879  0.0754  0.2687
  229loPI   C4B 3664  18.618  12.308   8.380  0.2130  0.3156 -0.3576
  230loPI    C1 3665   5.867  18.808  10.238 -0.3034  0.0955  0.0066
  230loPI    C2 3666   6.259  18.885  10.259 -0.2739 -0.0029 -0.1602
  230loPI    C3 3667   5.998  19.116  10.456 -0.1450  0.1651 -0.1846
  230loPI   PO4 3668   5.829  18.799  10.043 -0.3022 -0.0192 -0.1775
  230loPI   GL1 3669   5.686  18.742   9.629  0.0738  0.0975  0.1227
  230loPI   GL2 3670   5.495  19.069   9.515 -0.0296  0.0334  0.4754
  230loPI   C1A 3671   5.910  18.447   9.316 -0.0442 -0.0936  0.0933
  230loPI   C2A 3672   5.786  18.420   8.838 -0.0849 -0.3695 -0.1086
  230loPI   C3A 3673   6.012  18.074   8.511  0.1624  0.0276 -0.0263
  230loPI   C4A 3674   6.351  18.149   8.157  0.3147  0.0710  0.5020
  230loPI   C5A 3675   6.663  18.015   7.739 -0.1151 -0.0382 -0.0693
  230loPI   C6A 3676   7.057  18.022   7.433  0.2016 -0.1847  0.5202
  230loPI   C1B 3677   5.466  19.249   9.080 -0.2952 -0.2466  0.0477
  230loPI   C2B 3678   5.575  19.294   8.724  0.3251  0.0177  0.1520
  230loPI   C3B 3679   5.394  19.287   8.299 -0.1781  0.1063 -0.1337
  230loPI   C4B 3680   5.072  19.516   8.040  0.0360  0.1290 -0.1212
  231loPI    C1 3681  13.357   2.470  10.261  0.0021 -0.0916  0.1535
  231loPI    C2 3682  13.656   2.260  10.426  0.1054  0.1345  0.2587
  231loPI    C3 3683  13.648   2.658  10.461  0.0247  0.1703 -0.1192
  231loPI   PO4 3684  13.358   2.433   9.998 -0.0374 -0.3126 -0.1449
  231loPI   GL1 3685  13.291   2.360   9.544 -0.1928  0.0508  0.3636
  231loPI   GL2 3686  13.509   2.395   9.398 -0.1522  0.0583  0.1573
  231loPI   C1A 3687  13.016   2.408   9.220 -0.0332  0.0147  0.1688
  231loPI   C2A 3688  12.751   2.716   9.131 -0.3275  0.0791  0.1575
  231loPI   C3A 3689  12.552   2.723   8.725 -0.0738 -0.2149 -0.1940
  231loPI   C4A 3690  12.408   2.647   8.345  0.0519 -0.0000 -0.0700
  231loPI   C5A 3691  12.390   2.483   8.048 -0.0309  0.0209 -0.5508
  231loPI   C6A 3692  12.446   2.336   7.685 -0.0245  0.0667  0.1083
  231loPI   C1B 3693  13.570   2.344   8.980 -0.0374  0.0768 -0.1426
  231loPI   C2B 3694  13.679   2.174   8.585 -0.2087 -0.2432  0.1528
  231loPI   C3B 3695  13.608   1.876   8.217 -0.0303  0.2645 -0.2422
  231loPI   C4B 3696  13.839   1.508   8.267  0.0997  0.0399 -0.2772
  232loPI    C1 3697   7.367  18.462   9.663  0.1167 -0.1504  0.0247
  232loPI    C2 3698   7.377  18.495  10.062  0.1810  0.1861 -0.0024
  232loPI    C3 3699   7.711  18.410   9.860  0.1638  0.0912  0.0089
  232loPI   PO4 3700   7.069  18.340   9.665  0.0403 -0.3651  0.2495
  232loPI   GL1 3701   7.064  17.913   9.444 -0.3191  0.1965 -0.0367
  232loPI   GL2 3702   7.293  17.637   9.452  0.0298  0.1170  0.0705
  232loPI   C1A 3703   6.946  17.714   9.146 -0.2835  0.3120 -0.2471
  232loPI   C2A 3704   6.968  17.605   8.691 -0.0786 -0.1365  0.0796
  232loPI   C3A 3705   7.281  17.584   8.335  0.1589  0.1731 -0.0787
  232loPI   C4A 3706   7.395  17.486   7.958  0.1783 -0.0409 -0.1208
  232loPI   C5A 3707   7.320  17.247   7.589 -0.0208  0.0390  0.1601
  232loPI   C6A 3708   7.428  17.493   7.161 -0.0008  0.0081 -0.0572
  232loPI   C1B 3709   7.426  17.649   8.938 -0.1462 -0.0149  0.0323
  232loPI   C2B 3710   7.799  17.523   8.692 -0.0139  0.2920 -0.0842
  232loPI   C3B 3711   8.137  17.743   8.566 -0.0814 -0.0981  0.2939
  232loPI   C4B 3712   8.281  17.985   8.297 -0.1467  0.4628  0.0590
  233loPI    C1 3713  18.668   5.185  10.275 -0.0468  0.1024  0.3009
  233loPI    C2 3714  18.305   5.050  10.375  0.0101 -0.2727  0.0225
  233loPI    C3 3715  18.629   4.908  10.561  0.0412 -0.2096  0.0167
  233loPI   PO4 3716  18.585   5.366  10.064 -0.1675 -0.2400  0.1047
  233loPI   GL1 3717  18.748   5.400   9.608 -0.0037  0.2265  0.0361
  233loPI   GL2 3718  18.392   5.243   9.450  0.2177 -0.2097 -0.2485
  233loPI   C1A 3719  18.795   5.524   9.189 -0.0471  0.1236 -0.1043
  233loPI   C2A 3720  18.827   5.517   8.789  0.0091 -0.1328  0.1031
  233loPI   C3A 3721  18.997   5.443   8.426 -0.0509  0.1231  0.1172
  233loPI   C4A 3722  19.069   5.418   7.951 -0.3381  0.2243 -0.2830
  233loPI   C5A 3723  19.022   5.191   7.589 -0.2490 -0.3025  0.2531
  233loPI   C6A 3724  18.681   4.961   7.309  0.3430  0.1482  0.4240
  233loPI   C1B 3725  18.310   5.206   9.038 -0.0416 -0.2453  0.0501
  233loPI   C2B 3726  18.472   5.211   8.652 -0.2101 -0.1666 -0.1691
  233loPI   C3B 3727  18.550   5.173   8.176  0.2430  0.0804 -0.0434
  233loPI   C4B 3728  18.571   5.361   7.763  0.3277  0.1910  0.0702
  234loPI    C1 3729   7.400   2.894  10.255  0.0356 -0.1357 -0.0654
  234loPI    C2 3730   7.267   2.517  10.236 -0.0227 -0.1255  0.1156
  234loPI    C3 3731   7.055   2.794  10.432  0.1207 -0.0437  0.1565
  234loPI   PO4 3732   7.535   2.924   9.924  0.0421  0.1505  0.1602
  234loPI   GL1 3733   7.715   2.663   9.482 -0.0418  0.1287  0.0301
  234loPI   GL2 3734   7.875   2.414   9.406 -0.0606 -0.2447 -0.0021
  234loPI   C1A 3735   8.090   2.925   9.376  0.0231  0.3172 -0.0079
  234loPI   C2A 3736   8.246   3.127   9.052  0.1711  0.1527 -0.2516
  234loPI   C3A 3737   8.196   3.097   8.575 -0.0582 -0.0314  0.3161
  234loPI   C4A 3738   8.206   3.163   8.103 -0.1028  0.0335  0.1824
  234loPI   C5A 3739   7.996   3.328   7.700 -0.0699 -0.0213  0.2684
  234loPI   C6A 3740   7.566   3.152   7.577  0.0898 -0.1552  0.1793
  234loPI   C1B 3741   7.795   2.456   9.020 -0.0083 -0.1002 -0.5093
  234loPI   C2B 3742   7.676   2.465   8.624 -0.0909  0.0130  0.2173
  234loPI   C3B 3743   7.564   2.397   8.184  0.0677 -0.1896 -0.1712
  234loPI   C4B 3744   7.793   2.239   7.826 -0.0772 -0.0585  0.2846
  235loPI    C1 3745   9.543  11.626   9.695  0.2003  0.2636  0.0024
  235loPI    C2 3746   9.884  11.552   9.500  0.0761  0.2790 -0.2240
  235loPI    C3 3747   9.866  11.505   9.896  0.2118 -0.1763 -0.2671
  235loPI   PO4 3748   9.369  11.505   9.556 -0.1198 -0.1064 -0.2540
  235loPI   GL1 3749   9.400  11.574   9.006 -0.2606  0.1388 -0.2312
  235loPI   GL2 3750   9.626  11.422   9.074  0.1748 -0.0250  0.0855
  235loPI   C1A 3751   9.287  11.666   8.550  0.0122  0.3305 -0.1043
  235loPI   C2A 3752   9.465  11.608   8.073  0.0304 -0.0149 -0.4436
  235loPI   C3A 3753   9.455  11.160   7.822  0.0539  0.2236  0.0658
  235loPI   C4A 3754   9.530  10.933   7.493 -0.0409  0.1095 -0.4229
  235loPI   C5A 3755   9.353  10.559   7.221 -0.3013 -0.0259  0.0215
  235loPI   C6A 3756   9.371  10.099   7.062 -0.3531  0.1945 -0.4148
  235loPI   C1B 3757   9.664  11.392   8.578  0.1373 -0.0545 -0.1817
  235loPI   C2B 3758   9.424  11.128   8.371  0.1471 -0.0247  0.1823
  235loPI   C3B 3759   9.306  10.615   8.427 -0.3251 -0.0756  0.0878
  235loPI   C4B 3760   9.236  10.256   8.246  0.1527 -0.0249  0.2395
  236loPI    C1 3761   0.162  13.939  10.431 -0.1284  0.3175  0.2932
  236loPI    C2 3762  -0.144  13.878  10.681 -0.1631  0.1244  0.2050
  236loPI    C3 3763   0.012  13.571  10.477  0.0191  0.2406  0.1677
  236loPI   PO4 3764   0.165  14.111  10.267 -0.0097 -0.1050  0.2797
  236loPI   GL1 3765   0.501  14.132   9.959  0.1890 -0.2005  0.1007
  236loPI   GL2 3766   0.185  14.287   9.825 -0.0099 -0.0797 -0.3622
  236loPI   C1A 3767   0.528  14.036   9.518  0.1308 -0.0964 -0.0731
  236loPI   C2A 3768   0.385  14.317   9.089 -0.0651 -0.1481  0.1102
  236loPI   C3A 3769   0.435  14.521   8.738  0.2279  0.0988  0.1133
  236loPI   C4A 3770   0.235  14.650   8.292 -0.0201  0.2071  0.2305
  236loPI   C5A 3771   0.066  14.669   7.820 -0.1629  0.1312 -0.2977
  236loPI   C6A 3772   0.020  14.548   7.451 -0.0501  0.1110  0.3329
  236loPI   C1B 3773  -0.059  14.225   9.379 -0.3411 -0.0412  0.0474
  236loPI   C2B 3774  -0.244  14.439   9.027 -0.0972  0.2569 -0.0305
  236loPI   C3B 3775  -0.117  14.515   8.780  0.1030 -0.0408  0.2474
  236loPI   C4B 3776  -0.030  14.220   8.362  0.4448  0.2517  0.0541
  237loPI    C1 3777  16.642  11.232  10.266 -0.1960 -0.0398  0.0679
  237loPI    C2 3778  16.579  11.515   9.991 -0.0162 -0.2179 -0.1609
  237loPI    C3 3779  16.713  11.616  10.354 -0.0283 -0.0035 -0.2143
  237loPI   PO4 3780  16.710  11.005  10.028 -0.0971  0.1320  0.5133
  237loPI   GL1 3781  16.601  11.121   9.570  0.0244  0.1089 -0.2169
  237loPI   GL2 3782  16.830  11.356   9.593  0.1741  0.3460  0.0814
  237loPI   C1A 3783  16.456  11.248   9.136 -0.2380  0.2259  0.2547
  237loPI   C2A 3784  16.487  11.440   8.694 -0.2126  0.1651 -0.1760
  237loPI   C3A 3785  16.549  11.433   8.367  0.1898 -0.1144  0.0304
  237loPI   C4A 3786  16.752  11.136   8.050  0.2421 -0.1470  0.0039
  237loPI   C5A 3787  16.770  10.741   7.788  0.0376 -0.4916  0.1030
  237loPI   C6A 3788  16.684  10.533   7.330 -0.1940  0.0096 -0.3172
  237loPI   C1B 3789  16.922  11.300   9.154 -0.0458 -0.3002 -0.1357
  237loPI   C2B 3790  16.878  11.020   8.749 -0.3795  0.1600  0.1294
  237loPI   C3B 3791  16.790  10.593   8.572 -0.1646  0.2286 -0.3041
  237loPI   C4B 3792  16.941  10.294   8.861 -0.0794  0.0642 -0.1927
  238loPI    C1 3793   8.631  11.782   9.705  0.0175 -0.2577  0.0104
  238loPI    C2 3794   8.709  11.668  10.081 -0.1435 -0.0800  0.0994
  238loPI    C3 3795   8.561  12.032  10.009  0.0853 -0.0339 -0.1561
  238loPI   PO4 3796   8.929  11.833   9.652  0.1367  0.1117  0.4290
  238loPI   GL1 3797   8.980  11.924   9.245  0.1081 -0.0973 -0.0473
  238loPI   GL2 3798   9.068  12.256   9.347  0.2980 -0.0417  0.1143
  238loPI   C1A 3799   9.056  12.039   8.828 -0.1357 -0.0536 -0.2509
  238loPI   C2A 3800   9.178  12.073   8.354 -0.1187 -0.4371  0.1900
  238loPI   C3A 3801   9.023  12.334   8.104 -0.2116 -0.0434 -0.0637
  238loPI   C4A 3802   9.127  12.436   7.667 -0.1654 -0.0450  0.2568
  238loPI   C5A 3803   9.329  12.324   7.153  0.0819 -0.0190  0.0974
  238loPI   C6A 3804   9.462  12.473   6.779  0.0623 -0.2292 -0.0664
  238loPI   C1B 3805   9.215  12.483   8.904  0.0006 -0.1338 -0.0302
  238loPI   C2B 3806   9.444  12.635   8.642 -0.0137 -0.3880  0.1801
  238loPI   C3B 3807   9.474  12.653   8.162  0.0165 -0.0992 -0.0532
  238loPI   C4B 3808   9.662  12.503   7.753 -0.2749 -0.3265  0.0412
  239loPI    C1 3809   0.017   2.474   9.957  0.0395 -0.1289 -0.0740
  239loPI    C2 3810   0.168   2.103   9.963  0.0862 -0.1085  0.0438
  239loPI    C3 3811  -0.103   2.213  10.236  0.1431 -0.0266  0.0677
  239loPI   PO4 3812   0.053   2.501   9.629 -0.0136 -0.0084 -0.1583
  239loPI   GL1 3813   0.104   2.275   9.215  0.0706  0.0083 -0.1067
  239loPI   GL2 3814   0.454   2.236   9.131  0.1807 -0.1734 -0.2177
  239loPI   C1A 3815  -0.079   2.176   8.876  0.1440 -0.0369 -0.1481
  239loPI   C2A 3816  -0.116   2.230   8.458 -0.1336 -0.0875 -0.3225
  239loPI   C3A 3817  -0.322   2.157   8.178 -0.0523  0.0452 -0.0219
  239loPI   C4A 3818  -0.689   2.360   7.969 -0.1560  0.0016  0.0725
  239loPI   C5A 3819  -1.138   2.328   7.804  0.2341 -0.1145  0.2724
  239loPI   C6A 3820  -1.355   2.385   7.537 -0.1160 -0.1267 -0.1749
  239loPI   C1B 3821   0.459   2.150   8.736 -0.1738  0.2026  0.1036
  239loPI   C2B 3822   0.615   2.035   8.290  0.3750 -0.1990  0.1519
  239loPI   C3B 3823   0.714   2.167   7.866 -0.1380  0.1230  0.0601
  239loPI   C4B 3824   0.818   2.492   7.561 -0.0275  0.2383  0.2605
  240loPI    C1 3825  13.770  12.297   9.777  0.0478 -0.1499  0.1997
  240loPI    C2 3826  14.074  12.089   9.620  0.0481  0.1255 -0.1802
  240loPI    C3 3827  14.112  12.256   9.982  0.2544 -0.0508 -0.1181
  240loPI   PO4 3828  13.666  12.408   9.542 -0.1849 -0.0982 -0.1510
  240loPI   GL1 3829  13.755  12.303   9.228 -0.0111  0.2073 -0.0122
  240loPI   GL2 3830  14.068  12.377   9.227 -0.2904  0.2967 -0.1451
  240loPI   C1A 3831  13.734  12.193   8.814  0.2036 -0.2323 -0.3229
  240loPI   C2A 3832  13.923  11.982   8.443 -0.0393  0.1140 -0.4922
  240loPI   C3A 3833  13.923  12.448   8.327  0.0109  0.0678  0.1184
  240loPI   C4A 3834  13.993  12.490   7.889  0.1468 -0.0480  0.2122
  240loPI   C5A 3835  14.237  12.774   7.486 -0.0002  0.2275 -0.0834
  240loPI   C6A 3836  14.361  13.109   7.292  0.1665 -0.1920 -0.2131
  240loPI   C1B 3837  14.249  12.236   8.813  0.3408 -0.0568  0.0329
  240loPI   C2B 3838  14.377  12.223   8.424  0.0348 -0.0896 -0.2663
  240loPI   C3B 3839  14.285  12.002   8.070 -0.0004  0.0242 -0.0900
  240loPI   C4B 3840  13.820  11.883   7.974  0.1075  0.0955 -0.1085
  241loPI    C1 3841  16.117  11.009  10.207  0.2460 -0.0171  0.0941
  241loPI    C2 3842  16.357  10.714  10.331  0.1900  0.0094  0.2685
  241loPI    C3 3843  16.282  11.025  10.571  0.1339  0.0953  0.1408
  241loPI   PO4 3844  16.178  11.146   9.970 -0.1559  0.4754 -0.0880
  241loPI   GL1 3845  16.001  10.800   9.663  0.0804  0.2402  0.1377
  241loPI   GL2 3846  16.117  11.006   9.475 -0.1256  0.0166 -0.4112
  241loPI   C1A 3847  16.139  10.529   9.280  0.4407  0.3846  0.2519
  241loPI   C2A 3848  15.940  10.649   8.878  0.0284  0.2108  0.1121
  241loPI   C3A 3849  15.917  10.665   8.390 -0.0368 -0.0381  0.2878
  241loPI   C4A 3850  15.857  10.629   7.958 -0.0770 -0.1665 -0.2110
  241loPI   C5A 3851  15.517  10.733   7.798  0.4674  0.2686 -0.0102
  241loPI   C6A 3852  15.191  10.788   7.567 -0.2558 -0.1768  0.3306
  241loPI   C1B 3853  15.982  11.107   9.007 -0.1975 -0.3131 -0.2309
  241loPI   C2B 3854  15.955  11.255   8.662 -0.2450  0.1614 -0.1030
  241loPI   C3B 3855  16.084  11.372   8.349  0.0762  0.2292  0.0529
  241loPI   C4B 3856  16.162  11.576   8.054  0.0984  0.0651  0.1079
  242loPI    C1 3857  10.833  10.811   9.880  0.0580 -0.3128  0.1691
  242loPI    C2 3858  10.467  10.790  10.040  0.0481  0.0924  0.2105
  242loPI    C3 3859  10.726  11.067  10.169  0.1894  0.1469 -0.1772
  242loPI   PO4 3860  10.752  10.848   9.651  0.2899 -0.2286 -0.2988
  242loPI   GL1 3861  10.684  11.059   9.307 -0.0920 -0.0687  0.1978
  242loPI   GL2 3862  10.732  10.806   9.097  0.0260 -0.2303 -0.1503
  242loPI   C1A 3863  10.452  11.329   8.939  0.1215  0.0532  0.0015
  242loPI   C2A 3864  10.457  11.705   8.676  0.1845 -0.1145 -0.4100
  242loPI   C3A 3865  10.464  11.912   8.349  0.1147 -0.0097 -0.2761
  242loPI   C4A 3866  10.370  12.350   8.173 -0.3040  0.2677  0.2678
  242loPI   C5A 3867  10.154  12.532   7.746  0.1605  0.0502 -0.1551
  242loPI   C6A 3868  10.054  12.461   7.277  0.0375 -0.0019  0.2369
  242loPI   C1B 3869  10.471  10.891   8.661 -0.2107 -0.0909  0.1820
  242loPI   C2B 3870  10.275  10.774   8.199 -0.1969 -0.0595 -0.0491
  242loPI   C3B 3871  10.241  10.434   7.934  0.0816  0.1661 -0.2517
  242loPI   C4B 3872  10.103  10.100   7.765  0.1387  0.2489  0.0556
  243loPI    C1 3873   6.102  17.312  10.321  0.0113 -0.0499 -0.0777
  243loPI    C2 3874   6.044  16.988  10.548 -0.0856  0.0158 -0.0078
  243loPI    C3 3875   6.316  17.261  10.655 -0.0031 -0.0430 -0.0674
  243loPI   PO4 3876   6.171  17.186  10.003  0.2558 -0.1935 -0.0777
  243loPI   GL1 3877   6.181  17.060   9.465  0.4110  0.1906  0.0122
  243loPI   GL2 3878   6.076  17.351   9.477 -0.1372 -0.0356  0.0133
  243loPI   C1A 3879   6.293  17.177   9.082 -0.1810 -0.2546  0.1413
  243loPI   C2A 3880   6.195  17.237   8.642  0.1664  0.3178 -0.2665
  243loPI   C3A 3881   6.118  17.169   8.200 -0.0697  0.5058 -0.0805
  243loPI   C4A 3882   5.912  17.428   7.816 -0.2672  0.0288  0.2082
  243loPI   C5A 3883   6.112  17.811   7.519  0.2113 -0.0861 -0.0212
  243loPI   C6A 3884   6.510  17.821   7.302  0.2029 -0.1684 -0.2329
  243loPI   C1B 3885   5.968  17.585   9.313 -0.0898  0.0176 -0.1699
  243loPI   C2B 3886   5.683  17.818   9.007 -0.0604 -0.1799  0.1240
  243loPI   C3B 3887   5.542  17.924   8.553  0.3994 -0.1824  0.1758
  243loPI   C4B 3888   5.525  18.324   8.351 -0.1490  0.1225  0.1576
  244loPI    C1 3889   9.174   6.574   9.648  0.1484 -0.1188  0.3304
  244loPI    C2 3890   9.294   6.200   9.576  0.2632 -0.0013 -0.1235
  244loPI    C3 3891   9.175   6.305   9.943  0.0244 -0.5353 -0.0384
  244loPI   PO4 3892   9.463   6.768   9.535 -0.0594 -0.4045 -0.2467
  244loPI   GL1 3893   9.850   6.808   9.277 -0.0512  0.0898  0.2325
  244loPI   GL2 3894   9.832   6.483   9.276 -0.2364  0.1863  0.2736
  244loPI   C1A 3895   9.752   6.746   8.870 -0.1234  0.0014  0.1466
  244loPI   C2A 3896   9.451   6.425   8.729 -0.0540 -0.1946  0.0258
  244loPI   C3A 3897   9.123   6.245   8.463 -0.1227  0.2056 -0.0998
  244loPI   C4A 3898   8.896   6.508   8.147 -0.0170  0.2727  0.3496
  244loPI   C5A 3899   8.593   6.429   7.714  0.0606 -0.1235 -0.2610
  244loPI   C6A 3900   8.448   6.655   7.300  0.2534 -0.0185 -0.1385
  244loPI   C1B 3901   9.579   6.264   9.204  0.1218 -0.0377  0.0462
  244loPI   C2B 3902   9.065   6.235   9.062 -0.0761  0.3231  0.1319
  244loPI   C3B 3903   8.826   5.940   8.775 -0.0903 -0.0519  0.3818
  244loPI   C4B 3904   8.659   5.829   8.394  0.5072  0.0132 -0.2911
  245loPI    C1 3905   3.166   5.893  10.254 -0.1431  0.0706  0.2282
  245loPI    C2 3906   3.553   5.978  10.311 -0.1547  0.0717  0.3062
  245loPI    C3 3907   3.322   5.876  10.622 -0.1627 -0.1569  0.2272
  245loPI   PO4 3908   3.039   5.996  10.020  0.2561 -0.1184 -0.1382
  245loPI   GL1 3909   3.040   5.843   9.623  0.1987  0.1013 -0.3315
  245loPI   GL2 3910   3.260   5.568   9.465 -0.0833 -0.1766  0.2425
  245loPI   C1A 3911   2.825   5.855   9.217 -0.0540  0.1786  0.2818
  245loPI   C2A 3912   2.573   5.816   8.752  0.1419  0.0562  0.2670
  245loPI   C3A 3913   2.597   5.733   8.434  0.3774  0.0333  0.0656
  245loPI   C4A 3914   2.866   5.569   8.020  0.1891 -0.1713  0.0899
  245loPI   C5A 3915   2.732   5.521   7.579  0.1335  0.2365 -0.0017
  245loPI   C6A 3916   2.984   5.757   7.292  0.0115  0.1785  0.1177
  245loPI   C1B 3917   3.249   5.495   9.063 -0.1157  0.0716  0.0132
  245loPI   C2B 3918   2.972   5.416   8.773  0.3346 -0.1349  0.1671
  245loPI   C3B 3919   3.070   5.298   8.338 -0.1751 -0.3638  0.1085
  245loPI   C4B 3920   3.102   5.163   7.893 -0.2311 -0.0798  0.0941
  246loPI    C1 3921   2.570   3.601  10.195 -0.1526  0.1452 -0.0930
  246loPI    C2 3922   2.827   3.893  10.289  0.1102 -0.1355  0.0805
  246loPI    C3 3923   2.950   3.579  10.073 -0.1815 -0.1003 -0.1451
  246loPI   PO4 3924   2.351   3.624  10.148 -0.2920 -0.0248 -0.1666
  246loPI   GL1 3925   2.115   3.749   9.821 -0.1965 -0.0271  0.1897
  246loPI   GL2 3926   1.847   3.654   9.502  0.1288  0.2266 -0.3138
  246loPI   C1A 3927   2.227   3.815   9.346 -0.3476  0.0664 -0.5323
  246loPI   C2A 3928   2.381   3.620   8.997  0.2974  0.0562  0.0228
  246loPI   C3A 3929   2.282   3.639   8.523 -0.0097  0.0807  0.0392
  246loPI   C4A 3930   2.301   3.738   8.117  0.0855  0.1116  0.0488
  246loPI   C5A 3931   2.215   3.642   7.719  0.3066 -0.1488  0.0219
  246loPI   C6A 3932   2.531   3.480   7.361  0.0910  0.0079  0.0808
  246loPI   C1B 3933   1.753   3.836   9.093 -0.0256  0.1656  0.2059
  246loPI   C2B 3934   1.912   3.974   8.704 -0.3177  0.0111  0.3642
  246loPI   C3B 3935   2.002   4.185   8.320 -0.1801  0.0141  0.1134
  246loPI   C4B 3936   2.027   4.417   8.018  0.0650 -0.0710  0.0505
  247loPI    C1 3937   0.844  11.894  10.283 -0.1700  0.0656  0.1359
  247loPI    C2 3938   0.780  12.115  10.610 -0.1437  0.0749  0.1348
  247loPI    C3 3939   0.787  11.716  10.637  0.0531  0.0801  0.1807
  247loPI   PO4 3940   0.654  12.072  10.089 -0.1008 -0.0555  0.0718
  247loPI   GL1 3941   0.575  11.964   9.621  0.0870 -0.1577  0.0114
  247loPI   GL2 3942   0.500  12.321   9.559  0.0461  0.1943 -0.0820
  247loPI   C1A 3943   0.839  12.059   9.268 -0.0676  0.1296  0.0419
  247loPI   C2A 3944   0.894  11.996   8.895 -0.1964 -0.0304 -0.3062
  247loPI   C3A 3945   0.670  11.743   8.640  0.0664  0.0265 -0.1218
  247loPI   C4A 3946   0.906  11.429   8.392  0.4244 -0.0208 -0.1464
  247loPI   C5A 3947   0.779  11.213   7.973 -0.1052  0.0926  0.1531
  247loPI   C6A 3948   0.622  11.374   7.600  0.0601  0.2264  0.1344
  247loPI   C1B 3949   0.502  12.446   9.140 -0.3195 -0.3122  0.0210
  247loPI   C2B 3950   0.305  12.679   8.840 -0.2525  0.3488  0.0748
  247loPI   C3B 3951   0.185  12.726   8.429  0.1629 -0.1372 -0.1027
  247loPI   C4B 3952   0.411  12.710   8.071  0.1304  0.3273 -0.0717
  248loPI    C1 3953  12.910  12.285   9.922 -0.0767 -0.0885 -0.0502
  248loPI    C2 3954  13.227  12.510   9.825 -0.0119 -0.1119  0.1038
  248loPI    C3 3955  12.965  12.641  10.097 -0.3284  0.0652 -0.2755
  248loPI   PO4 3956  12.944  12.156   9.612 -0.0679 -0.3838 -0.0103
  248loPI   GL1 3957  12.993  12.281   9.150  0.0786  0.1598 -0.1391
  248loPI   GL2 3958  13.212  12.424   9.219 -0.0996 -0.0798 -0.0550
  248loPI   C1A 3959  13.012  12.235   8.689  0.0480 -0.6209 -0.0242
  248loPI   C2A 3960  12.968  12.420   8.235  0.1547  0.0556  0.2706
  248loPI   C3A 3961  12.995  12.493   7.833  0.0335 -0.1009  0.0178
  248loPI   C4A 3962  12.642  12.618   7.525  0.3111  0.0216  0.0095
  248loPI   C5A 3963  12.654  13.004   7.207 -0.0986  0.1824 -0.1033
  248loPI   C6A 3964  12.841  13.350   6.841  0.4056  0.0176 -0.3615
  248loPI   C1B 3965  13.408  12.590   8.956 -0.2968  0.0689 -0.2193
  248loPI   C2B 3966  13.350  12.608   8.455  0.0092  0.0731 -0.1961
  248loPI   C3B 3967  13.519  12.524   8.032  0.2613 -0.1070  0.2355
  248loPI   C4B 3968  13.560  12.628   7.554  0.1953  0.0352  0.0269
  249loPI    C1 3969  12.412  13.712   9.807 -0.1472  0.1633 -0.0375
  249loPI    C2 3970  12.181  13.768  10.128 -0.1776  0.1866 -0.0633
  249loPI    C3 3971  12.215  14.057   9.854  0.0904  0.2863  0.0717
  249loPI   PO4 3972  12.340  13.547   9.627  0.0237 -0.3545 -0.3217
  249loPI   GL1 3973  12.532  13.459   9.315  0.0288  0.1656 -0.1563
  249loPI   GL2 3974  12.655  13.649   9.194  0.4828 -0.0780  0.0876
  249loPI   C1A 3975  12.336  13.386   8.988 -0.3065 -0.2721  0.0259
  249loPI   C2A 3976  12.342  13.675   8.598 -0.2063  0.1021 -0.1539
  249loPI   C3A 3977  12.111  13.933   8.329 -0.1473  0.1317 -0.1498
  249loPI   C4A 3978  12.131  14.232   8.032 -0.2485  0.3371  0.0002
  249loPI   C5A 3979  12.031  14.311   7.636 -0.2148  0.1605 -0.1630
  249loPI   C6A 3980  11.918  14.302   7.241  0.3822  0.1846  0.0543
  249loPI   C1B 3981  12.772  13.326   8.804  0.0441 -0.4149  0.1826
  249loPI   C2B 3982  13.091  13.357   8.445 -0.1676  0.3950  0.0048
  249loPI   C3B 3983  13.360  13.191   8.148 -0.1178 -0.1522  0.2186
  249loPI   C4B 3984  13.254  12.923   7.928  0.3775  0.2125  0.0882
  250loPI    C1 3985   9.418  18.884  10.273 -0.1313  0.1183 -0.0711
  250loPI    C2 3986   9.607  19.103  10.549  0.1051 -0.0557 -0.0924
  250loPI    C3 3987   9.622  18.704  10.566 -0.0344 -0.0686 -0.2511
  250loPI   PO4 3988   9.551  19.048  10.015 -0.0579  0.0752  0.1519
  250loPI   GL1 3989   9.402  18.908   9.604  0.2203 -0.2114 -0.2101
  250loPI   GL2 3990   9.829  18.745   9.588  0.0174  0.1040  0.2539
  250loPI   C1A 3991   9.467  19.091   9.209  0.0509 -0.3618 -0.3120
  250loPI   C2A 3992   9.331  19.115   8.731 -0.0118  0.1566  0.0637
  250loPI   C3A 3993   9.397  19.008   8.250  0.0101  0.0957 -0.0436
  250loPI   C4A 3994   9.071  18.996   7.909 -0.2631 -0.2774  0.1340
  250loPI   C5A 3995   8.852  19.139   7.520  0.3447 -0.0716 -0.0856
  250loPI   C6A 3996   8.891  19.098   7.148  0.1836  0.2255  0.1096
  250loPI   C1B 3997   9.922  19.001   9.170 -0.1283  0.2911  0.2837
  250loPI   C2B 3998   9.899  19.075   8.707  0.1915 -0.2170 -0.0764
  250loPI   C3B 3999   9.943  18.974   8.277  0.0647 -0.2603  0.1562
  250loPI   C4B 4000  10.114  18.898   7.957  0.2575 -0.3927 -0.2359
  251loPI    C1 4001  10.430   0.614  10.303 -0.0999  0.1304  0.1379
  251loPI    C2 4002  10.727   0.376  10.181 -0.2350 -0.0503  0.1573
  251loPI    C3 4003  10.688   0.463  10.569 -0.2227 -0.0471  0.1578
  251loPI   PO4 4004  10.457   0.837  10.080  0.0227 -0.1616 -0.0211
  251loPI   GL1 4005  10.549   0.617   9.721 -0.3805  0.2365  0.0961
  251loPI   GL2 4006  10.558   0.251   9.620  0.0605  0.1253  0.1273
  251loPI   C1A 4007  10.188   0.582   9.344 -0.1610 -0.2110  0.0438
  251loPI   C2A 4008  10.204   0.438   8.957  0.1368  0.1964  0.0330
  251loPI   C3A 4009  10.256   0.450   8.568  0.1291  0.3681 -0.0191
  251loPI   C4A 4010  10.186   0.364   8.106  0.0739 -0.0400  0.1574
  251loPI   C5A 4011  10.058   0.225   7.720 -0.3283  0.3134 -0.0983
  251loPI   C6A 4012  10.036   0.334   7.247 -0.1127 -0.1109  0.0182
  251loPI   C1B 4013  10.524   0.165   9.178 -0.2211 -0.1295 -0.1318
  251loPI   C2B 4014  10.406  -0.020   8.731 -0.0319 -0.1212  0.0269
  251loPI   C3B 4015  10.426  -0.420   8.353  0.0869 -0.1505  0.0600
  251loPI   C4B 4016  10.543  -0.580   7.952 -0.1333 -0.2197  0.2843
  252loPI    C1 4017  17.689   8.095   9.813 -0.1349 -0.0390  0.1404
  252loPI    C2 4018  17.398   7.891   9.998 -0.0589 -0.1603  0.1268
  252loPI    C3 4019  17.757   7.930  10.171 -0.0608 -0.0728  0.1109
  252loPI   PO4 4020  17.624   7.941   9.554  0.2179  0.0290  0.0342
  252loPI   GL1 4021  17.591   7.828   9.247  0.2087 -0.0477 -0.3695
  252loPI   GL2 4022  17.921   7.983   9.136 -0.1089 -0.1401  0.0277
  252loPI   C1A 4023  17.520   7.950   8.807  0.2779  0.0550 -0.1652
  252loPI   C2A 4024  17.497   8.187   8.412 -0.1583  0.1629 -0.1800
  252loPI   C3A 4025  17.954   8.404   8.071  0.2620  0.1168  0.0167
  252loPI   C4A 4026  18.056   8.694   7.560 -0.5075 -0.1775  0.0027
  252loPI   C5A 4027  17.994   8.935   7.332  0.1055 -0.2506 -0.5199
  252loPI   C6A 4028  17.812   9.406   7.153 -0.2500  0.1072  0.4139
  252loPI   C1B 4029  18.337   7.893   8.872 -0.0225  0.0903 -0.1649
  252loPI   C2B 4030  18.459   7.660   8.572  0.1575 -0.0354 -0.2408
  252loPI   C3B 4031  18.695   7.386   8.298 -0.0887 -0.1387  0.0422
  252loPI   C4B 4032  18.990   7.768   8.073  0.0341 -0.2678 -0.4299
  253loPI    C1 4033  12.323   2.109  10.291  0.0757  0.1975 -0.2723
  253loPI    C2 4034  12.580   2.376  10.443  0.0930  0.0727 -0.0795
  253loPI    C3 4035  12.186   2.425  10.494  0.0839  0.1886 -0.2529
  253loPI   PO4 4036  12.438   2.080  10.088 -0.1474 -0.0212  0.2231
  253loPI   GL1 4037  12.238   2.034   9.741 -0.1290  0.1362 -0.0299
  253loPI   GL2 4038  12.212   2.333   9.580 -0.0262 -0.0335 -0.1514
  253loPI   C1A 4039  12.174   1.629   9.460 -0.0587 -0.1544  0.0933
  253loPI   C2A 4040  12.235   1.703   8.962 -0.1244 -0.2066  0.0386
  253loPI   C3A 4041  12.488   1.609   8.514 -0.1002 -0.1736 -0.1046
  253loPI   C4A 4042  12.428   1.578   8.042  0.1760  0.0023  0.0244
  253loPI   C5A 4043  12.254   1.743   7.726 -0.2619  0.3520  0.2145
  253loPI   C6A 4044  11.943   2.060   7.460 -0.1624  0.1580  0.1215
  253loPI   C1B 4045  11.997   2.119   9.273 -0.0674 -0.0000  0.3545
  253loPI   C2B 4046  11.840   2.063   8.980 -0.0184  0.1796 -0.3016
  253loPI   C3B 4047  11.595   2.094   8.545  0.1446  0.2400  0.0292
  253loPI   C4B 4048  11.556   1.959   8.125 -0.3877 -0.1382  0.1102
  254loPI    C1 4049   8.510   6.227   9.831  0.2588  0.1167 -0.2248
  254loPI    C2 4050   8.220   6.418   9.633 -0.0652 -0.1767 -0.0466
  254loPI    C3 4051   8.230   6.430  10.032  0.2581 -0.0493 -0.0551
  254loPI   PO4 4052   8.695   6.295   9.619  0.0598 -0.2049  0.0797
  254loPI   GL1 4053   8.643   6.360   9.247 -0.4608  0.0121 -0.1162
  254loPI   GL2 4054   8.779   6.626   9.260  0.1188 -0.1392  0.0798
  254loPI   C1A 4055   8.424   6.189   8.906 -0.1527  0.0970 -0.1976
  254loPI   C2A 4056   8.486   6.285   8.466 -0.3088 -0.0329  0.0981
  254loPI   C3A 4057   8.372   6.028   8.076  0.3218  0.1756 -0.0279
  254loPI   C4A 4058   8.180   6.023   7.652  0.1798  0.1023 -0.3776
  254loPI   C5A 4059   8.110   6.252   7.200  0.0688  0.1880  0.1077
  254loPI   C6A 4060   7.876   6.399   6.794 -0.4105  0.0575  0.2894
  254loPI   C1B 4061   8.798   6.565   8.805 -0.2253  0.4574 -0.3483
  254loPI   C2B 4062   8.987   6.821   8.521  0.3595 -0.3268  0.0519
  254loPI   C3B 4063   8.836   7.202   8.243  0.1503  0.1025 -0.3128
  254loPI   C4B 4064   8.543   7.281   8.001 -0.1437  0.0019  0.3539
  255loPI    C1 4065   3.158  16.669   9.740  0.0733  0.0205  0.0087
  255loPI    C2 4066   3.087  16.744  10.127 -0.0146  0.0736 -0.0175
  255loPI    C3 4067   3.010  17.024   9.851 -0.3132 -0.0975 -0.1126
  255loPI   PO4 4068   3.155  16.454   9.725  0.0344 -0.0366  0.1208
  255loPI   GL1 4069   3.374  16.225   9.416 -0.0248  0.0619 -0.1418
  255loPI   GL2 4070   3.395  15.860   9.381  0.1125 -0.1973 -0.1638
  255loPI   C1A 4071   3.437  16.583   9.180 -0.0638  0.3068  0.2500
  255loPI   C2A 4072   3.797  16.601   8.912  0.2628 -0.1464  0.0845
  255loPI   C3A 4073   3.991  16.734   8.626  0.0021 -0.0508 -0.2506
  255loPI   C4A 4074   3.967  16.947   8.277  0.0417  0.0442 -0.0831
  255loPI   C5A 4075   3.742  16.756   7.902 -0.0843  0.0348  0.0523
  255loPI   C6A 4076   3.519  16.765   7.477  0.1336  0.0160  0.1348
  255loPI   C1B 4077   3.162  15.839   8.997 -0.0690  0.3185 -0.0189
  255loPI   C2B 4078   2.969  15.827   8.588 -0.2703 -0.0780 -0.1164
  255loPI   C3B 4079   2.850  16.102   8.312  0.3021 -0.1389 -0.1078
  255loPI   C4B 4080   2.533  16.368   8.131  0.1073  0.1967 -0.1170
  256loPI    C1 4081  15.586  13.736  10.797 -0.1771 -0.3517 -0.0503
  256loPI    C2 4082  15.227  13.817  10.953 -0.0089  0.0538  0.1403
  256loPI    C3 4083  15.534  13.729  11.193  0.0127 -0.3395 -0.0243
  256loPI   PO4 4084  15.455  13.884  10.460 -0.1698  0.0295  0.0419
  256loPI   GL1 4085  15.694  13.726  10.010  0.1553  0.0325 -0.1110
  256loPI   GL2 4086  15.454  13.695   9.805 -0.3205 -0.1402 -0.2855
  256loPI   C1A 4087  15.964  13.905   9.672  0.0417 -0.3624  0.0015
  256loPI   C2A 4088  16.150  14.064   9.341  0.0216 -0.2022 -0.0495
  256loPI   C3A 4089  16.332  14.345   9.063  0.2849  0.1337 -0.3105
  256loPI   C4A 4090  16.616  14.477   8.794 -0.0619  0.0383  0.1254
  256loPI   C5A 4091  16.747  14.414   8.318 -0.1801 -0.4099  0.0398
  256loPI   C6A 4092  16.331  14.548   7.965 -0.0894  0.1140  0.1129
  256loPI   C1B 4093  15.749  13.468   9.464 -0.1124  0.1682  0.0475
  256loPI   C2B 4094  15.915  13.614   9.131  0.0435 -0.0406 -0.0116
  256loPI   C3B 4095  16.193  13.740   8.770 -0.2370 -0.0468 -0.1015
  256loPI   C4B 4096  16.343  13.577   8.435  0.2322  0.0231  0.1605
  257loPI    C1 4097   1.649  18.102   9.999  0.0501 -0.3297 -0.0289
  257loPI    C2 4098   1.275  18.229  10.064  0.1784  0.0700 -0.0436
  257loPI    C3 4099   1.568  18.331  10.317  0.3078 -0.1073 -0.1195
  257loPI   PO4 4100   1.688  18.212   9.688 -0.1757 -0.0017 -0.1363
  257loPI   GL1 4101   1.568  18.160   9.251  0.2248  0.0574 -0.3165
  257loPI   GL2 4102   1.259  18.031   9.416 -0.0883  0.1819 -0.0250
  257loPI   C1A 4103   1.613  17.987   8.831 -0.0017  0.0634 -0.1660
  257loPI   C2A 4104   1.524  17.842   8.366 -0.2262 -0.0354 -0.1174
  257loPI   C3A 4105   1.439  17.809   7.952  0.2719  0.2346  0.0832
  257loPI   C4A 4106   1.671  17.711   7.633 -0.2770 -0.0590 -0.0667
  257loPI   C5A 4107   1.894  17.605   7.290 -0.0506 -0.0456  0.2316
  257loPI   C6A 4108   2.305  17.400   7.225 -0.3226 -0.1918 -0.0265
  257loPI   C1B 4109   0.939  18.270   9.317 -0.1162 -0.0935 -0.2155
  257loPI   C2B 4110   0.765  18.586   9.125 -0.0613  0.1285 -0.1789
  257loPI   C3B 4111   0.786  18.715   8.734  0.2045 -0.2143  0.2666
  257loPI   C4B 4112   0.901  18.794   8.332  0.0104  0.2634  0.3134
  258loPI    C1 4113  14.212  17.920   9.870 -0.1427 -0.0409  0.0781
  258loPI    C2 4114  14.074  17.696  10.172  0.0896 -0.0442  0.1841
  258loPI    C3 4115  13.911  18.054  10.097 -0.2779 -0.2400  0.0195
  258loPI   PO4 4116  14.415  17.957   9.912  0.1536  0.0477  0.3283
  258loPI   GL1 4117  14.691  18.151   9.621 -0.0462 -0.0483 -0.1793
  258loPI   GL2 4118  14.366  18.282   9.500 -0.0262 -0.0611  0.3219
  258loPI   C1A 4119  14.901  18.232   9.111  0.1303 -0.1612 -0.2685
  258loPI   C2A 4120  15.221  18.487   8.838 -0.1894 -0.4115 -0.1391
  258loPI   C3A 4121  15.196  18.453   8.392 -0.2403  0.2868 -0.3216
  258loPI   C4A 4122  14.961  18.557   8.006  0.0948 -0.2611 -0.0194
  258loPI   C5A 4123  14.964  18.710   7.530 -0.0434 -0.1493 -0.1759
  258loPI   C6A 4124  14.691  18.751   7.265 -0.2137  0.0904  0.0538
  258loPI   C1B 4125  14.395  18.364   9.112  0.2680 -0.0809  0.0058
  258loPI   C2B 4126  14.433  18.339   8.642 -0.1311 -0.1386  0.0170
  258loPI   C3B 4127  14.348  18.535   8.286 -0.4501 -0.1052  0.3287
  258loPI   C4B 4128  14.266  18.461   7.909 -0.1367  0.0841 -0.3661
  259loPI    C1 4129  16.193  14.866   9.913  0.2444  0.0091 -0.2092
  259loPI    C2 4130  16.380  14.867  10.267  0.1496 -0.1620 -0.1572
  259loPI    C3 4131  16.033  15.062  10.223  0.2359 -0.0160 -0.1977
  259loPI   PO4 4132  16.312  14.932   9.788 -0.3551  0.2800  0.1480
  259loPI   GL1 4133  16.346  14.595   9.497  0.0071 -0.0049 -0.2114
  259loPI   GL2 4134  16.584  14.515   9.517 -0.1788 -0.0606  0.2281
  259loPI   C1A 4135  16.442  14.845   9.066 -0.0307  0.0467 -0.0186
  259loPI   C2A 4136  16.584  15.173   8.762 -0.4522  0.0257  0.1932
  259loPI   C3A 4137  16.449  15.321   8.404 -0.0508 -0.0026 -0.2883
  259loPI   C4A 4138  16.590  15.294   8.044 -0.1243  0.1291  0.0944
  259loPI   C5A 4139  16.670  15.381   7.567 -0.0912 -0.1145  0.2679
  259loPI   C6A 4140  16.557  15.281   7.210 -0.0764  0.0102 -0.4189
  259loPI   C1B 4141  16.837  14.308   9.203 -0.0448  0.0206 -0.2352
  259loPI   C2B 4142  17.153  14.240   8.895 -0.1901 -0.2522  0.2860
  259loPI   C3B 4143  17.122  14.127   8.547 -0.0531 -0.0016  0.2839
  259loPI   C4B 4144  17.087  13.928   8.098 -0.1462 -0.0589 -0.1171
  260loPI    C1 4145   0.622   6.902   9.941  0.0098 -0.1108 -0.2271
  260loPI    C2 4146   0.336   7.071   9.718 -0.0094  0.3063  0.1014
  260loPI    C3 4147   0.284   7.029  10.113  0.1005 -0.2536  0.0646
  260loPI   PO4 4148   0.861   6.931   9.744 -0.0167  0.0302  0.2014
  260loPI   GL1 4149   0.729   7.273   9.474  0.1466  0.0521 -0.0139
  260loPI   GL2 4150   1.062   7.253   9.423 -0.3527  0.1699 -0.1030
  260loPI   C1A 4151   0.338   7.337   9.114 -0.1014  0.0331 -0.0431
  260loPI   C2A 4152   0.343   7.647   8.716  0.0128  0.0325  0.0005
  260loPI   C3A 4153   0.452   8.080   8.651 -0.1697  0.2313 -0.2252
  260loPI   C4A 4154   0.799   8.255   8.667 -0.1376  0.0314  0.0187
  260loPI   C5A 4155   1.115   8.235   8.564  0.2619 -0.5015 -0.2445
  260loPI   C6A 4156   1.462   8.143   8.432 -0.1296  0.3409 -0.1688
  260loPI   C1B 4157   0.866   7.269   9.041 -0.4738  0.1455 -0.1414
  260loPI   C2B 4158   0.642   7.251   8.703 -0.1980 -0.0688 -0.0350
  260loPI   C3B 4159   0.607   7.462   8.349 -0.0544  0.1430 -0.0211
  260loPI   C4B 4160   0.670   7.711   7.911 -0.1170  0.1481  0.0712
  261loPI    C1 4161   8.690   2.753  10.332 -0.0772  0.0100 -0.1064
  261loPI    C2 4162   8.358   2.975  10.298 -0.1406 -0.0786 -0.0707
  261loPI    C3 4163   8.333   2.576  10.295 -0.0759 -0.0901  0.3108
  261loPI   PO4 4164   8.913   2.885  10.234 -0.0506  0.0210  0.0339
  261loPI   GL1 4165   8.881   2.941   9.800  0.1000 -0.0014  0.1896
  261loPI   GL2 4166   9.108   2.893   9.582 -0.2277 -0.0007  0.1998
  261loPI   C1A 4167   8.655   2.868   9.394 -0.0660 -0.1873  0.2698
  261loPI   C2A 4168   8.790   2.891   9.009 -0.2898  0.2639  0.2697
  261loPI   C3A 4169   8.619   2.851   8.652  0.0901 -0.0784 -0.0589
  261loPI   C4A 4170   8.558   2.854   8.056 -0.4985  0.2085  0.0706
  261loPI   C5A 4171   8.710   2.790   7.558  0.0254 -0.2423 -0.1708
  261loPI   C6A 4172   8.835   2.963   7.152 -0.4057  0.2058  0.2689
  261loPI   C1B 4173   9.158   2.677   9.184  0.1076  0.3538 -0.0214
  261loPI   C2B 4174   9.178   2.658   8.777 -0.0258  0.0291 -0.0690
  261loPI   C3B 4175   9.036   2.622   8.360 -0.2290  0.0173 -0.0531
  261loPI   C4B 4176   8.993   2.541   7.934 -0.1331 -0.1989  0.1485
  262loPI    C1 4177   3.828   0.219  10.017 -0.0158 -0.1603  0.0872
  262loPI    C2 4178   4.056   0.491  10.201 -0.1392 -0.0301  0.0492
  262loPI    C3 4179   3.786   0.283  10.410 -0.0041 -0.1670  0.0896
  262loPI   PO4 4180   4.044   0.094   9.856 -0.0545 -0.2778 -0.2453
  262loPI   GL1 4181   4.144   0.280   9.491 -0.0601 -0.2633 -0.2037
  262loPI   GL2 4182   4.280   0.509   9.505 -0.1003 -0.2634 -0.1473
  262loPI   C1A 4183   3.930   0.240   9.059 -0.0024 -0.0786  0.1099
  262loPI   C2A 4184   3.796   0.134   8.512 -0.1581 -0.1966  0.1641
  262loPI   C3A 4185   3.919   0.242   8.132 -0.1450  0.0601  0.0325
  262loPI   C4A 4186   4.031   0.108   7.704 -0.1007  0.0933 -0.1095
  262loPI   C5A 4187   3.977   0.002   7.307 -0.1092 -0.1504  0.3849
  262loPI   C6A 4188   4.189  -0.021   6.983 -0.0635  0.2876 -0.2150
  262loPI   C1B 4189   4.374   0.574   9.099 -0.1170 -0.0479 -0.0757
  262loPI   C2B 4190   4.337   0.733   8.678  0.2381 -0.3902  0.1082
  262loPI   C3B 4191   4.338   0.719   8.229 -0.0781 -0.1235 -0.3785
  262loPI   C4B 4192   4.453   0.406   7.887 -0.1519 -0.5468  0.1415
  263loPI    C1 4193  10.768   3.127  10.142 -0.0571 -0.1261  0.1806
  263loPI    C2 4194  11.063   3.384  10.227 -0.0310 -0.1572  0.1843
  263loPI    C3 4195  10.701   3.433  10.391 -0.0720 -0.0288  0.0583
  263loPI   PO4 4196  10.789   3.127   9.924  0.0924 -0.0311 -0.2232
  263loPI   GL1 4197  10.774   3.016   9.469  0.0360 -0.2166 -0.1930
  263loPI   GL2 4198  10.765   3.357   9.305  0.2477 -0.3096  0.0141
  263loPI   C1A 4199  10.585   2.892   9.056  0.1418 -0.2389 -0.2308
  263loPI   C2A 4200  10.579   2.453   8.866 -0.1434 -0.3269 -0.6095
  263loPI   C3A 4201  10.537   2.230   8.453  0.2040  0.1178  0.1260
  263loPI   C4A 4202  10.427   2.075   8.200  0.2154  0.1311  0.1740
  263loPI   C5A 4203  10.235   2.043   7.819  0.2338  0.1484 -0.1007
  263loPI   C6A 4204   9.829   2.124   7.817 -0.1036  0.3246 -0.2875
  263loPI   C1B 4205  10.892   3.249   8.995 -0.2501 -0.1809 -0.2389
  263loPI   C2B 4206  10.868   3.278   8.646 -0.0022 -0.2407  0.2187
  263loPI   C3B 4207  11.037   3.227   8.204  0.2405 -0.0391  0.1346
  263loPI   C4B 4208  11.338   3.210   7.878  0.1585  0.0623  0.0125
  264loPI    C1 4209   6.523  13.933  10.119  0.1300  0.2122 -0.1144
  264loPI    C2 4210   6.136  14.033  10.141  0.1303  0.2015 -0.0594
  264loPI    C3 4211   6.312  13.845  10.447  0.2495  0.4555  0.0306
  264loPI   PO4 4212   6.528  13.893   9.891  0.0474  0.1848  0.1125
  264loPI   GL1 4213   6.670  13.932   9.560  0.1493 -0.0853  0.1596
  264loPI   GL2 4214   6.905  14.050   9.452  0.1946 -0.2718 -0.2220
  264loPI   C1A 4215   6.580  13.655   9.171 -0.0581  0.1386  0.2558
  264loPI   C2A 4216   6.390  13.348   9.055 -0.1477  0.1143 -0.1359
  264loPI   C3A 4217   6.304  13.151   8.645  0.0262 -0.1123  0.0153
  264loPI   C4A 4218   6.055  13.105   8.226  0.3326 -0.0535  0.0002
  264loPI   C5A 4219   5.786  12.834   7.810 -0.1207 -0.1032  0.3656
  264loPI   C6A 4220   5.700  12.824   7.413  0.0376  0.1086  0.1508
  264loPI   C1B 4221   6.719  14.129   9.040  0.1142 -0.1570  0.1009
  264loPI   C2B 4222   6.532  14.176   8.623  0.1356  0.6755 -0.1434
  264loPI   C3B 4223   6.431  14.083   8.162  0.2801  0.1853  0.1765
  264loPI   C4B 4224   6.156  14.047   7.962 -0.0648  0.0839 -0.2581
  265loPI    C1 4225   5.121   7.335   9.976 -0.0262 -0.0312 -0.0165
  265loPI    C2 4226   5.457   7.313  10.192 -0.0961 -0.1020  0.0858
  265loPI    C3 4227   5.131   7.485  10.347 -0.1444 -0.1471  0.0342
  265loPI   PO4 4228   5.174   7.031   9.829 -0.2105  0.0848 -0.4201
  265loPI   GL1 4229   5.305   6.992   9.405  0.0655 -0.1229 -0.0250
  265loPI   GL2 4230   5.624   6.892   9.270  0.4000 -0.0657  0.1297
  265loPI   C1A 4231   5.017   6.908   9.073  0.1748  0.3661 -0.0881
  265loPI   C2A 4232   4.902   6.659   8.703 -0.1996 -0.1561  0.0268
  265loPI   C3A 4233   5.051   6.610   8.337 -0.0402  0.2530  0.3487
  265loPI   C4A 4234   4.731   6.586   8.055 -0.1240  0.0862 -0.0805
  265loPI   C5A 4235   4.639   6.925   7.666 -0.0266 -0.0431  0.2081
  265loPI   C6A 4236   4.938   7.021   7.247 -0.3057 -0.1594 -0.2267
  265loPI   C1B 4237   5.595   7.033   8.867 -0.1049 -0.3941  0.0081
  265loPI   C2B 4238   5.323   7.032   8.638 -0.1029 -0.1561  0.0659
  265loPI   C3B 4239   5.163   7.208   8.293 -0.2264  0.3022 -0.4001
  265loPI   C4B 4240   5.041   7.198   7.794 -0.0125 -0.1780 -0.1317
  266loPI    C1 4241   0.802   9.020  10.148 -0.0232 -0.1518  0.0157
  266loPI    C2 4242   0.690   9.272  10.438  0.0942  0.1002 -0.1540
  266loPI    C3 4243   1.048   9.094  10.455 -0.0179 -0.1151  0.0027
  266loPI   PO4 4244   0.568   9.171   9.847 -0.0143  0.2107 -0.1424
  266loPI   GL1 4245   0.589   9.525   9.626  0.0797 -0.2466  0.1479
  266loPI   GL2 4246   0.815   9.503   9.383  0.0128 -0.1327  0.0217
  266loPI   C1A 4247   0.322   9.645   9.265  0.0384  0.3306  0.1126
  266loPI   C2A 4248   0.164   9.352   8.824  0.1641  0.1132 -0.0810
  266loPI   C3A 4249   0.169   9.481   8.346  0.0389  0.0722  0.3120
  266loPI   C4A 4250   0.314   9.217   7.958 -0.0429  0.2476 -0.2294
  266loPI   C5A 4251   0.401   9.004   7.522 -0.2770  0.0490  0.3600
  266loPI   C6A 4252   0.690   8.866   7.195  0.1247  0.1569 -0.1459
  266loPI   C1B 4253   0.714   9.518   8.967 -0.1503  0.1419  0.1588
  266loPI   C2B 4254   0.626   9.772   8.648  0.0588 -0.2685 -0.1515
  266loPI   C3B 4255   0.625   9.779   8.205 -0.2944  0.0633  0.0933
  266loPI   C4B 4256   0.910   9.742   7.830 -0.0579  0.0215  0.1275
  267loPI    C1 4257  17.429  17.967  10.186 -0.1117 -0.1929 -0.0860
  267loPI    C2 4258  17.444  18.366  10.220 -0.0362 -0.1944 -0.1004
  267loPI    C3 4259  17.479  18.136  10.545  0.3232 -0.1994 -0.1384
  267loPI   PO4 4260  17.229  17.970   9.937  0.0354  0.0837 -0.3367
  267loPI   GL1 4261  17.192  18.154   9.580 -0.0692 -0.1550  0.1498
  267loPI   GL2 4262  17.510  18.200   9.325 -0.1650  0.2189  0.1130
  267loPI   C1A 4263  17.196  17.863   9.212 -0.2107 -0.2329 -0.3600
  267loPI   C2A 4264  17.158  17.584   8.951  0.1347  0.0129  0.2567
  267loPI   C3A 4265  17.362  17.540   8.572 -0.5449  0.0846  0.3104
  267loPI   C4A 4266  17.369  17.473   8.242  0.2070 -0.1789 -0.0728
  267loPI   C5A 4267  17.624  17.732   7.963  0.1331 -0.3068  0.1688
  267loPI   C6A 4268  17.542  18.049   7.742  0.2788 -0.0971 -0.0082
  267loPI   C1B 4269  17.243  18.503   9.009  0.1578  0.0487  0.1284
  267loPI   C2B 4270  17.196  18.534   8.615  0.0933  0.3156 -0.0830
  267loPI   C3B 4271  17.239  18.450   8.221  0.2059 -0.1189  0.1020
  267loPI   C4B 4272  17.501  18.534   7.852  0.4082  0.0893  0.0908
  268loPI    C1 4273  11.622   8.010   9.794 -0.0881  0.1962  0.0739
  268loPI    C2 4274  11.300   8.097  10.014 -0.2342 -0.0545 -0.0362
  268loPI    C3 4275  11.458   7.730  10.028 -0.2807 -0.0908 -0.3916
  268loPI   PO4 4276  11.535   8.159   9.511  0.1210  0.0203  0.1237
  268loPI   GL1 4277  11.516   8.275   9.128 -0.4286 -0.0900 -0.4705
  268loPI   GL2 4278  11.227   8.011   9.173  0.0195  0.0688  0.3088
  268loPI   C1A 4279  11.406   8.459   8.806 -0.2491  0.0293  0.1865
  268loPI   C2A 4280  11.387   8.418   8.359  0.3182  0.1266  0.4853
  268loPI   C3A 4281  11.613   8.399   7.866 -0.1907  0.3538  0.0992
  268loPI   C4A 4282  11.873   8.277   7.490 -0.3351 -0.1248  0.0518
  268loPI   C5A 4283  12.092   8.260   7.176  0.0208  0.1914  0.1394
  268loPI   C6A 4284  12.266   8.295   6.771 -0.0915  0.0615  0.1174
  268loPI   C1B 4285  11.177   7.961   8.765 -0.4835  0.1651 -0.0570
  268loPI   C2B 4286  11.262   7.859   8.389  0.2111  0.0570  0.2453
  268loPI   C3B 4287  11.169   7.957   8.001  0.0745 -0.1456  0.3127
  268loPI   C4B 4288  10.973   7.889   7.646  0.1963 -0.1650 -0.1692
  269loPI    C1 4289   2.271  17.612  10.209  0.0681 -0.0048 -0.2452
  269loPI    C2 4290   2.628  17.540  10.373  0.0798  0.0447 -0.2487
  269loPI    C3 4291   2.342  17.261  10.386  0.0467  0.0861 -0.0543
  269loPI   PO4 4292   2.371  17.644   9.874  0.0358  0.0721  0.2756
  269loPI   GL1 4293   2.042  17.812   9.574  0.2288 -0.1139  0.1867
  269loPI   GL2 4294   1.717  17.642   9.526 -0.3731  0.1134 -0.0763
  269loPI   C1A 4295   2.081  17.886   9.116 -0.0523 -0.0735  0.0575
  269loPI   C2A 4296   2.124  17.898   8.830  0.0827  0.1020 -0.0884
  269loPI   C3A 4297   2.040  17.895   8.442  0.1175  0.0640 -0.1110
  269loPI   C4A 4298   1.855  18.029   7.995 -0.0326  0.1331 -0.4091
  269loPI   C5A 4299   1.832  18.244   7.556 -0.2103 -0.1255 -0.1036
  269loPI   C6A 4300   1.584  18.612   7.502  0.0106  0.1800 -0.0748
  269loPI   C1B 4301   1.752  17.534   9.163 -0.1694  0.0532  0.1980
  269loPI   C2B 4302   1.770  17.540   8.680 -0.2570  0.2720  0.0311
  269loPI   C3B 4303   1.818  17.533   8.171  0.0687  0.2264  0.3646
  269loPI   C4B 4304   2.032  17.490   7.927  0.0598  0.0650 -0.0495
  270loPI    C1 4305  12.612  16.566  10.113  0.3540 -0.1047 -0.0255
  270loPI    C2 4306  12.874  16.819  10.277  0.2133  0.0215  0.0063
  270loPI    C3 4307  12.507  16.784  10.431  0.1848 -0.0957 -0.0868
  270loPI   PO4 4308  12.763  16.544   9.855 -0.1245  0.0406  0.0352
  270loPI   GL1 4309  12.737  16.622   9.397  0.0118 -0.1561  0.3561
  270loPI   GL2 4310  13.003  16.821   9.210  0.0401 -0.1994 -0.0801
  270loPI   C1A 4311  12.545  16.571   9.061  0.0345  0.2005  0.0872
  270loPI   C2A 4312  12.129  16.721   8.850 -0.0059  0.2897 -0.1943
  270loPI   C3A 4313  12.043  17.037   8.569 -0.1576  0.0567 -0.0683
  270loPI   C4A 4314  11.889  17.108   8.222 -0.1981 -0.1780 -0.0999
  270loPI   C5A 4315  11.907  17.172   7.918  0.0113  0.1978 -0.2794
  270loPI   C6A 4316  12.131  17.305   7.614  0.0901 -0.1074 -0.2825
  270loPI   C1B 4317  13.119  16.645   8.790 -0.3569  0.3430 -0.2212
  270loPI   C2B 4318  13.225  16.300   8.564  0.0967  0.1271  0.1948
  270loPI   C3B 4319  12.982  15.930   8.435  0.1299 -0.2145  0.2988
  270loPI   C4B 4320  13.001  15.527   8.374 -0.0376 -0.2932  0.3309
  271loPI    C1 4321  13.740   4.440   9.685  0.0123  0.0649 -0.1181
  271loPI    C2 4322  13.528   4.282   9.985  0.0827 -0.1274 -0.1678
  271loPI    C3 4323  13.373   4.578   9.764  0.0536  0.0563  0.0934
  271loPI   PO4 4324  13.817   4.230   9.517  0.0002  0.0793  0.0239
  271loPI   GL1 4325  13.641   4.133   9.145  0.3177  0.0443  0.2233
  271loPI   GL2 4326  13.462   3.692   9.170 -0.1542 -0.0778 -0.0214
  271loPI   C1A 4327  13.499   4.254   8.738  0.1646  0.0912  0.1573
  271loPI   C2A 4328  13.467   4.164   8.277  0.2929 -0.0826  0.2019
  271loPI   C3A 4329  13.769   4.144   7.930 -0.0774  0.4044 -0.1532
  271loPI   C4A 4330  13.802   3.910   7.537  0.4068  0.0178  0.0647
  271loPI   C5A 4331  13.951   3.445   7.457 -0.0042 -0.0998  0.0360
  271loPI   C6A 4332  14.280   3.079   7.589 -0.2089 -0.2581 -0.2017
  271loPI   C1B 4333  13.465   3.682   8.766 -0.2496 -0.0432 -0.0820
  271loPI   C2B 4334  13.527   3.643   8.395 -0.1539  0.0639 -0.0536
  271loPI   C3B 4335  13.408   3.607   8.006  0.4215 -0.1443 -0.0634
  271loPI   C4B 4336  13.456   3.450   7.607  0.3033 -0.0144 -0.0167
  272loPI    C1 4337  16.734   1.979  10.232 -0.1148 -0.1274  0.2465
  272loPI    C2 4338  16.574   2.181  10.537  0.0086  0.1810  0.1115
  272loPI    C3 4339  16.970   2.135  10.514  0.0043  0.2114 -0.0336
  272loPI   PO4 4340  16.518   1.925   9.987 -0.1000 -0.3148 -0.0567
  272loPI   GL1 4341  16.430   1.965   9.484  0.2858  0.0327  0.0912
  272loPI   GL2 4342  16.687   2.182   9.604  0.0129  0.1364 -0.4638
  272loPI   C1A 4343  16.098   2.069   9.283  0.2439 -0.0655 -0.0301
  272loPI   C2A 4344  16.089   2.064   8.828  0.1090  0.1930  0.1072
  272loPI   C3A 4345  16.007   2.164   8.419  0.2501 -0.2561 -0.1307
  272loPI   C4A 4346  16.175   2.044   8.119  0.1482  0.0377 -0.4392
  272loPI   C5A 4347  16.401   1.828   7.890  0.1441  0.3968  0.0879
  272loPI   C6A 4348  16.419   1.520   7.443  0.1390 -0.5204 -0.1550
  272loPI   C1B 4349  16.553   2.091   9.031  0.1298  0.1122 -0.1715
  272loPI   C2B 4350  16.474   2.070   8.536 -0.1939 -0.0070 -0.1028
  272loPI   C3B 4351  16.670   2.336   8.229 -0.0314 -0.2830  0.4392
  272loPI   C4B 4352  16.817   2.597   7.907  0.0366 -0.0360  0.2224
  273loPI    C1 4353  15.181  11.743  10.571  0.1934 -0.2233  0.3218
  273loPI    C2 4354  15.089  11.382  10.718 -0.1754 -0.1900  0.1826
  273loPI    C3 4355  14.854  11.696  10.797  0.0264 -0.0227  0.1265
  273loPI   PO4 4356  15.308  11.685  10.387 -0.1089  0.3577  0.1776
  273loPI   GL1 4357  15.199  11.542   9.953  0.0052  0.2559  0.2876
  273loPI   GL2 4358  15.200  11.348   9.728  0.3079  0.0284  0.1393
  273loPI   C1A 4359  14.964  11.767   9.668  0.1734  0.0194  0.1498
  273loPI   C2A 4360  14.889  11.700   9.226 -0.0280  0.1481 -0.1134
  273loPI   C3A 4361  14.589  11.421   8.905 -0.2168 -0.0897 -0.0508
  273loPI   C4A 4362  14.683  11.255   8.542 -0.0079  0.0016 -0.0407
  273loPI   C5A 4363  14.903  11.259   8.133  0.0902 -0.0710 -0.3700
  273loPI   C6A 4364  15.276  11.145   7.895  0.1116  0.1531  0.2062
  273loPI   C1B 4365  15.385  11.700   9.294  0.0418 -0.1437 -0.0290
  273loPI   C2B 4366  15.675  11.924   9.031  0.4072  0.0478 -0.0849
  273loPI   C3B 4367  15.791  12.110   8.583 -0.2498 -0.3651 -0.0365
  273loPI   C4B 4368  15.849  12.297   8.222 -0.0058 -0.1163 -0.0542
  274loPI    C1 4369   6.502   7.355   9.997  0.0015 -0.1438 -0.0582
  274loPI    C2 4370   6.785   7.130  10.168 -0.0985  0.0082  0.3162
  274loPI    C3 4371   6.800   7.528  10.200 -0.2372  0.0277  0.1521
  274loPI   PO4 4372   6.494   7.361   9.749  0.4604  0.2273  0.1715
  274loPI   GL1 4373   6.530   7.414   9.305 -0.1506  0.0041  0.1891
  274loPI   GL2 4374   6.304   7.710   9.377 -0.2071  0.1896 -0.0874
  274loPI   C1A 4375   6.568   7.110   8.926  0.0467 -0.0095 -0.1163
  274loPI   C2A 4376   6.624   7.046   8.503 -0.1052 -0.1507 -0.1576
  274loPI   C3A 4377   6.580   7.072   8.111  0.1646  0.2650 -0.1123
  274loPI   C4A 4378   6.420   7.256   7.714  0.1131  0.0863 -0.1356
  274loPI   C5A 4379   6.294   7.498   7.321 -0.1122 -0.1101  0.0901
  274loPI   C6A 4380   6.086   7.848   7.384  0.0169  0.3507  0.0955
  274loPI   C1B 4381   6.252   7.938   8.988 -0.2999  0.1384  0.2124
  274loPI   C2B 4382   6.505   8.047   8.614  0.0113 -0.2330 -0.1176
  274loPI   C3B 4383   6.318   8.018   8.189  0.0912  0.0682  0.1681
  274loPI   C4B 4384   6.329   7.723   7.770 -0.1643 -0.0725 -0.0969
  275loPI    C1 4385  17.979  17.019  10.266 -0.1520  0.0027  0.1280
  275loPI    C2 4386  18.284  16.805  10.412 -0.0311 -0.0783 -0.2316
  275loPI    C3 4387  18.002  16.946  10.659  0.1068 -0.3021  0.0609
  275loPI   PO4 4388  18.103  17.120   9.977 -0.1248 -0.0244  0.1635
  275loPI   GL1 4389  18.138  17.364   9.671  0.0372 -0.1431  0.1742
  275loPI   GL2 4390  18.456  17.132   9.663 -0.1156 -0.0845  0.2609
  275loPI   C1A 4391  18.353  17.621   9.291 -0.1503  0.2315  0.0937
  275loPI   C2A 4392  18.230  17.860   8.958 -0.0334  0.3650  0.3917
  275loPI   C3A 4393  18.124  18.207   8.648 -0.3244  0.5164  0.0784
  275loPI   C4A 4394  18.133  18.225   8.134  0.2059 -0.0336 -0.2305
  275loPI   C5A 4395  18.050  18.419   7.759  0.0058  0.1142  0.0063
  275loPI   C6A 4396  18.084  18.717   7.517 -0.0782  0.0608  0.0276
  275loPI   C1B 4397  18.676  17.047   9.264  0.2868 -0.2602  0.0363
  275loPI   C2B 4398  18.604  17.225   8.870 -0.1620 -0.3402  0.0394
  275loPI   C3B 4399  18.434  17.531   8.559 -0.1766 -0.0655  0.1069
  275loPI   C4B 4400  18.281  17.816   8.248  0.0640  0.1723 -0.1326
  276loPI    C1 4401  14.795  16.465  10.357 -0.0092 -0.1733 -0.1088
  276loPI    C2 4402  14.415  16.480  10.480  0.0016  0.0163 -0.0956
  276loPI    C3 4403  14.696  16.325  10.719 -0.0769 -0.1838 -0.1313
  276loPI   PO4 4404  14.887  16.434  10.049  0.0644 -0.1588  0.1900
  276loPI   GL1 4405  14.980  16.569   9.639 -0.2228 -0.2352  0.1385
  276loPI   GL2 4406  14.741  16.482   9.577 -0.3419  0.0314 -0.0381
  276loPI   C1A 4407  15.013  16.826   9.280  0.0242 -0.0082  0.0643
  276loPI   C2A 4408  15.135  16.935   8.882 -0.0654 -0.0061 -0.2215
  276loPI   C3A 4409  15.246  17.172   8.565  0.1054  0.4226  0.2009
  276loPI   C4A 4410  15.550  17.438   8.265  0.0591 -0.1414 -0.0241
  276loPI   C5A 4411  15.908  17.404   8.026 -0.0565  0.0325 -0.1908
  276loPI   C6A 4412  16.163  17.665   7.831  0.1282 -0.0673  0.0743
  276loPI   C1B 4413  14.610  16.519   9.194 -0.0823  0.0997 -0.0913
  276loPI   C2B 4414  14.685  16.665   8.677 -0.0468 -0.1655 -0.3068
  276loPI   C3B 4415  14.904  16.636   8.376 -0.0399 -0.1558 -0.0127
  276loPI   C4B 4416  14.687  16.755   7.930  0.2149  0.1200  0.0537
  277loPI    C1 4417  18.527   3.332   9.801 -0.0431 -0.0319 -0.0362
  277loPI    C2 4418  18.546   3.055  10.090 -0.1189 -0.0718 -0.0693
  277loPI    C3 4419  18.878   3.245   9.973 -0.0507 -0.2156 -0.1115
  277loPI   PO4 4420  18.529   3.218   9.531  0.0419 -0.3800 -0.0079
  277loPI   GL1 4421  18.631   3.301   9.090 -0.1588  0.0868 -0.1201
  277loPI   GL2 4422  18.858   3.508   9.061  0.2443  0.1416  0.3358
  277loPI   C1A 4423  18.499   2.866   8.837  0.1631  0.1168  0.0660
  277loPI   C2A 4424  18.348   2.729   8.440  0.0472 -0.1734  0.4105
  277loPI   C3A 4425  17.935   2.742   8.194 -0.0967 -0.2701 -0.0470
  277loPI   C4A 4426  17.805   2.789   7.815 -0.1405  0.3944 -0.0090
  277loPI   C5A 4427  17.715   2.790   7.339  0.2544 -0.1019  0.0030
  277loPI   C6A 4428  17.539   2.654   7.055 -0.0526  0.0345  0.0070
  277loPI   C1B 4429  18.854   3.300   8.673  0.2359 -0.3692  0.1333
  277loPI   C2B 4430  18.913   3.308   8.208  0.0520  0.0904 -0.2309
  277loPI   C3B 4431  18.803   3.266   7.819  0.0793  0.0014  0.1375
  277loPI   C4B 4432  18.893   3.082   7.454  0.0506  0.1073  0.2350
  278loPI    C1 4433   4.795   7.683  10.002  0.1682  0.2299  0.0659
  278loPI    C2 4434   4.649   7.586  10.362  0.0595  0.0200 -0.0331
  278loPI    C3 4435   4.834   7.936  10.309 -0.1403  0.1590  0.1675
  278loPI   PO4 4436   4.627   7.661   9.892  0.2221  0.0789 -0.2020
  278loPI   GL1 4437   4.325   7.894   9.709 -0.0193  0.1423  0.0128
  278loPI   GL2 4438   4.507   7.595   9.436  0.0384 -0.2576 -0.0506
  278loPI   C1A 4439   4.344   8.113   9.174 -0.0198  0.1302 -0.1021
  278loPI   C2A 4440   4.148   8.090   8.804 -0.0265 -0.0349 -0.2985
  278loPI   C3A 4441   4.078   8.315   8.394 -0.1998  0.0441  0.1231
  278loPI   C4A 4442   4.036   8.387   7.899 -0.1428  0.1567  0.0586
  278loPI   C5A 4443   3.760   8.421   7.570  0.0501 -0.2317  0.0310
  278loPI   C6A 4444   3.348   8.553   7.569 -0.2506 -0.2230 -0.1928
  278loPI   C1B 4445   4.671   7.272   9.151  0.1616 -0.1321 -0.0602
  278loPI   C2B 4446   4.844   7.303   8.754 -0.0047 -0.2856  0.0011
  278loPI   C3B 4447   5.073   7.596   8.621 -0.2361 -0.3523 -0.0679
  278loPI   C4B 4448   5.217   7.795   8.333 -0.5468 -0.3768  0.2502
  279loPI    C1 4449   5.497   9.955   9.641  0.2439 -0.0694  0.0926
  279loPI    C2 4450   5.358   9.984  10.015  0.0557 -0.2074  0.0352
  279loPI    C3 4451   5.612  10.259   9.874 -0.0443 -0.0323  0.1912
  279loPI   PO4 4452   5.308   9.860   9.518  0.0852  0.1808  0.1059
  279loPI   GL1 4453   5.349  10.039   9.103  0.0252 -0.2832 -0.3774
  279loPI   GL2 4454   5.596   9.814   9.009  0.1086  0.3221  0.0103
  279loPI   C1A 4455   5.328  10.014   8.673 -0.1632 -0.1534  0.2347
  279loPI   C2A 4456   5.306  10.033   8.243 -0.1657  0.0071  0.4449
  279loPI   C3A 4457   5.237  10.113   7.774 -0.2823  0.2972 -0.0709
  279loPI   C4A 4458   5.337  10.447   7.369 -0.1845 -0.0966 -0.4508
  279loPI   C5A 4459   5.134  10.845   7.113  0.0089 -0.2592  0.3981
  279loPI   C6A 4460   5.384  10.930   6.645  0.0831  0.1333 -0.0952
  279loPI   C1B 4461   5.854  10.159   8.746 -0.1415 -0.2798  0.4571
  279loPI   C2B 4462   6.227  10.331   8.439 -0.0005 -0.2191  0.1422
  279loPI   C3B 4463   6.483  10.353   8.040 -0.0391 -0.0786 -0.1527
  279loPI   C4B 4464   6.350  10.330   7.561 -0.2481  0.0901 -0.0788
  280loPI    C1 4465   1.447   3.367  10.122  0.2235 -0.0541 -0.0930
  280loPI    C2 4466   1.322   3.055  10.338  0.0759 -0.0234 -0.1332
  280loPI    C3 4467   1.267   3.427  10.474 -0.2011  0.0048 -0.3136
  280loPI   PO4 4468   1.305   3.279   9.879 -0.3079  0.0888 -0.0676
  280loPI   GL1 4469   1.368   3.394   9.532 -0.1805 -0.3600  0.0098
  280loPI   GL2 4470   1.603   3.160   9.498  0.1887  0.0757  0.1224
  280loPI   C1A 4471   1.367   3.380   9.028 -0.3028  0.0235  0.2263
  280loPI   C2A 4472   1.294   3.547   8.596  0.2966 -0.0099 -0.3059
  280loPI   C3A 4473   1.304   3.502   8.227 -0.1500 -0.0633 -0.1396
  280loPI   C4A 4474   1.181   3.350   7.763 -0.2610  0.0917  0.1564
  280loPI   C5A 4475   0.905   3.493   7.457 -0.0080  0.1446 -0.0467
  280loPI   C6A 4476   0.496   3.624   7.390  0.3143 -0.1589 -0.0018
  280loPI   C1B 4477   1.602   2.895   9.071  0.2187  0.0542  0.2359
  280loPI   C2B 4478   1.578   3.046   8.661 -0.1322 -0.2503 -0.0367
  280loPI   C3B 4479   1.591   3.052   8.126  0.1984 -0.4334 -0.1952
  280loPI   C4B 4480   1.801   2.870   7.686  0.0073 -0.0385  0.3229
  281loPI    C1 4481   0.933   3.772  10.375 -0.0763 -0.2172 -0.0324
  281loPI    C2 4482   1.105   4.062  10.589  0.0561 -0.3552  0.0501
  281loPI    C3 4483   0.756   4.130  10.405  0.2984 -0.0032 -0.2959
  281loPI   PO4 4484   1.060   3.733  10.081 -0.1224  0.1156  0.0317
  281loPI   GL1 4485   1.129   3.812   9.686 -0.2734  0.0285 -0.3534
  281loPI   GL2 4486   0.853   4.016   9.664 -0.0920  0.1213 -0.0073
  281loPI   C1A 4487   1.212   3.840   9.233  0.0234  0.0319 -0.0842
  281loPI   C2A 4488   1.285   4.093   8.915 -0.2492  0.5237 -0.2498
  281loPI   C3A 4489   1.044   4.041   8.512 -0.3776  0.2553 -0.1732
  281loPI   C4A 4490   1.067   3.927   8.074 -0.2513  0.0050 -0.2846
  281loPI   C5A 4491   1.217   3.841   7.675 -0.3058  0.2410  0.0237
  281loPI   C6A 4492   0.934   3.962   7.334 -0.1412  0.0359 -0.1191
  281loPI   C1B 4493   0.722   4.110   9.142 -0.1725  0.0513 -0.1093
  281loPI   C2B 4494   0.605   4.077   8.754 -0.0673 -0.1005 -0.2219
  281loPI   C3B 4495   0.665   4.210   8.271 -0.1380 -0.0908 -0.2104
  281loPI   C4B 4496   0.505   4.558   7.948 -0.0405  0.3520 -0.2407
  282loPI    C1 4497  18.304   7.138   9.430 -0.2273 -0.1125 -0.1381
  282loPI    C2 4498  18.131   7.096   9.789 -0.0712 -0.1118 -0.0621
  282loPI    C3 4499  18.517   7.201   9.763 -0.1337  0.0836 -0.2334
  282loPI   PO4 4500  18.065   6.925   9.286 -0.2230 -0.1737  0.0254
  282loPI   GL1 4501  17.767   7.159   9.048  0.3102  0.0317 -0.3949
  282loPI   GL2 4502  17.885   7.457   9.017  0.1106 -0.3439  0.1086
  282loPI   C1A 4503  17.779   7.010   8.537 -0.1064 -0.2463  0.0528
  282loPI   C2A 4504  17.887   6.567   8.326  0.0493  0.1082  0.4120
  282loPI   C3A 4505  18.058   6.554   7.892 -0.0249  0.1663  0.2308
  282loPI   C4A 4506  18.034   6.585   7.405 -0.1192 -0.1287 -0.0101
  282loPI   C5A 4507  18.244   6.322   7.040  0.3350 -0.1206 -0.1221
  282loPI   C6A 4508  18.469   6.387   6.745  0.0851 -0.1598 -0.2244
  282loPI   C1B 4509  17.873   7.591   8.687 -0.0061  0.0890 -0.4607
  282loPI   C2B 4510  17.957   7.524   8.261  0.3267  0.0103  0.3130
  282loPI   C3B 4511  18.028   7.600   7.765  0.1010  0.1212  0.0998
  282loPI   C4B 4512  18.283   7.332   7.445  0.2974  0.0967  0.4131
  283loPI    C1 4513   4.815  14.395  10.096  0.1025 -0.1535 -0.1031
  283loPI    C2 4514   5.109  14.337   9.831 -0.0308 -0.3375 -0.2135
  283loPI    C3 4515   5.059  14.080  10.133  0.1151 -0.1332 -0.0118
  283loPI   PO4 4516   4.627  14.504   9.894 -0.5566  0.3458  0.1219
  283loPI   GL1 4517   4.690  14.703   9.526  0.1304 -0.0240  0.0926
  283loPI   GL2 4518   4.791  14.474   9.379  0.1650 -0.0389  0.0371
  283loPI   C1A 4519   4.397  15.028   9.447  0.1895  0.1266  0.2192
  283loPI   C2A 4520   4.062  15.323   9.269  0.1954  0.0259 -0.1397
  283loPI   C3A 4521   3.887  15.367   8.828  0.2387  0.0434  0.2815
  283loPI   C4A 4522   3.746  15.722   8.644  0.0535  0.2714  0.1317
  283loPI   C5A 4523   3.843  16.142   8.514 -0.2341 -0.0959 -0.1001
  283loPI   C6A 4524   4.047  16.425   8.146 -0.0188 -0.1410  0.0756
  283loPI   C1B 4525   4.797  14.607   9.003 -0.0054 -0.3538 -0.1501
  283loPI   C2B 4526   4.784  14.628   8.587 -0.1225  0.0765 -0.1501
  283loPI   C3B 4527   4.651  14.546   8.269 -0.1707  0.2228  0.2341
  283loPI   C4B 4528   4.856  14.363   7.877  0.1864  0.1465  0.0525
  284loPI    C1 4529  15.547  17.845  10.067  0.1484 -0.1125  0.0492
  284loPI    C2 4530  15.529  17.864  10.467  0.1022  0.0901  0.0386
  284loPI    C3 4531  15.881  17.902  10.281  0.1666 -0.2970  0.0721
  284loPI   PO4 4532  15.395  18.056   9.947 -0.1395  0.0388  0.0801
  284loPI   GL1 4533  15.215  18.006   9.576  0.0395 -0.0174 -0.1630
  284loPI   GL2 4534  15.542  18.229   9.423  0.1360 -0.0742  0.1822
  284loPI   C1A 4535  14.921  17.752   9.293 -0.1090  0.2197 -0.1403
  284loPI   C2A 4536  15.080  17.578   8.879  0.3256 -0.0139  0.1282
  284loPI   C3A 4537  15.072  17.643   8.366 -0.0618 -0.0960  0.1839
  284loPI   C4A 4538  15.018  17.812   7.961  0.0901  0.0252 -0.3153
  284loPI   C5A 4539  15.098  18.109   7.596 -0.0226 -0.2146  0.0696
  284loPI   C6A 4540  15.066  18.351   7.219 -0.0390 -0.1764  0.1834
  284loPI   C1B 4541  15.704  18.336   9.001  0.0259  0.0479  0.1838
  284loPI   C2B 4542  15.685  18.604   8.649  0.1280  0.1570  0.0538
  284loPI   C3B 4543  15.725  18.568   8.205 -0.0327 -0.1156 -0.1305
  284loPI   C4B 4544  15.438  18.397   7.937 -0.0475 -0.0033 -0.3599
  285loPI    C1 4545  13.957   2.494  10.088  0.0229 -0.1074 -0.3272
  285loPI    C2 4546  14.356   2.474  10.116  0.0032 -0.0117  0.1001
  285loPI    C3 4547  14.149   2.703  10.370 -0.3171  0.0401 -0.1996
  285loPI   PO4 4548  13.873   2.574   9.889  0.4276 -0.0138 -0.1774
  285loPI   GL1 4549  13.996   2.348   9.460  0.0555 -0.2329  0.1603
  285loPI   GL2 4550  14.206   2.153   9.655  0.0939 -0.3634  0.1145
  285loPI   C1A 4551  14.146   2.241   9.154  0.1339  0.2426  0.1802
  285loPI   C2A 4552  14.106   2.384   8.716  0.0598 -0.1654 -0.7253
  285loPI   C3A 4553  14.479   2.339   8.536  0.2121  0.1029  0.1248
  285loPI   C4A 4554  14.490   2.369   8.111  0.1307 -0.0366  0.1018
  285loPI   C5A 4555  14.474   2.185   7.767 -0.1390  0.2877 -0.0903
  285loPI   C6A 4556  14.552   2.166   7.307  0.0754 -0.3391  0.0924
  285loPI   C1B 4557  14.524   2.112   9.411  0.2609 -0.0725  0.0189
  285loPI   C2B 4558  14.698   2.108   9.057  0.1918 -0.2534 -0.0106
  285loPI   C3B 4559  14.825   1.873   8.691 -0.0196  0.0948  0.2121
  285loPI   C4B 4560  14.744   1.944   8.211  0.2622 -0.1343 -0.2853
  286loPI    C1 4561  15.347   4.964   9.835 -0.0659 -0.1326 -0.0184
  286loPI    C2 4562  15.627   5.121  10.073  0.1128 -0.2369 -0.1579
  286loPI    C3 4563  15.323   4.916  10.232 -0.0744  0.1659  0.0201
  286loPI   PO4 4564  15.481   4.854   9.705  0.0408  0.0604 -0.0660
  286loPI   GL1 4565  15.815   4.769   9.403 -0.1554  0.0733 -0.0798
  286loPI   GL2 4566  16.104   4.776   9.390 -0.4500 -0.0187 -0.2060
  286loPI   C1A 4567  15.848   4.658   8.992  0.3473  0.2946 -0.1751
  286loPI   C2A 4568  16.057   4.526   8.688  0.1981 -0.2336  0.0473
  286loPI   C3A 4569  16.202   4.402   8.337 -0.0844 -0.0472  0.0277
  286loPI   C4A 4570  16.331   4.351   7.936  0.3072  0.0387 -0.0600
  286loPI   C5A 4571  16.215   4.383   7.629 -0.1141  0.1913 -0.0332
  286loPI   C6A 4572  16.357   4.743   7.322  0.3055 -0.1373 -0.2572
  286loPI   C1B 4573  16.024   5.098   9.104  0.1589  0.1003  0.1088
  286loPI   C2B 4574  16.110   5.228   8.700 -0.0049 -0.0437  0.0568
  286loPI   C3B 4575  16.344   4.874   8.490 -0.2356  0.0591 -0.0924
  286loPI   C4B 4576  16.568   4.804   8.121  0.0362 -0.0439  0.0130
  287loPI    C1 4577  12.147   1.153  10.403 -0.2710  0.1336  0.1091
  287loPI    C2 4578  12.492   0.957  10.352 -0.2360  0.2544 -0.1335
  287loPI    C3 4579  12.419   1.147  10.696 -0.2800 -0.1974  0.1141
  287loPI   PO4 4580  12.113   1.263  10.180  0.1327  0.1676 -0.0089
  287loPI   GL1 4581  12.230   1.135   9.839 -0.2104  0.4435  0.0307
  287loPI   GL2 4582  12.193   0.812   9.703  0.0921  0.1861  0.2382
  287loPI   C1A 4583  12.086   1.159   9.372  0.0221  0.1981  0.1561
  287loPI   C2A 4584  12.080   1.196   8.944 -0.0967 -0.0865  0.2796
  287loPI   C3A 4585  12.086   1.248   8.485  0.0433 -0.0920  0.2473
  287loPI   C4A 4586  12.116   1.190   8.008  0.3217 -0.1101 -0.0086
  287loPI   C5A 4587  11.872   1.479   7.622  0.1101  0.0931  0.2369
  287loPI   C6A 4588  12.004   1.614   7.116 -0.0906 -0.1957  0.1638
  287loPI   C1B 4589  12.401   0.687   9.315 -0.1734 -0.2374 -0.4599
  287loPI   C2B 4590  12.413   0.776   8.876  0.0828 -0.4332  0.0708
  287loPI   C3B 4591  12.515   0.604   8.411  0.1435  0.1682  0.2558
  287loPI   C4B 4592  12.627   0.592   7.919 -0.0449  0.2015  0.0340
  288loPI    C1 4593  13.551  15.604  10.062 -0.0547 -0.2475  0.0025
  288loPI    C2 4594  13.614  15.981  10.179  0.0603 -0.3022  0.1187
  288loPI    C3 4595  13.518  15.701  10.448 -0.0930 -0.3425  0.0234
  288loPI   PO4 4596  13.763  15.577   9.847  0.0235  0.1331  0.3888
  288loPI   GL1 4597  13.953  15.309   9.510  0.3345 -0.1068  0.1282
  288loPI   GL2 4598  13.800  15.111   9.324  0.0675  0.1220  0.1146
  288loPI   C1A 4599  14.122  15.407   9.064 -0.0691  0.0283  0.2246
  288loPI   C2A 4600  14.247  15.210   8.720 -0.1801  0.3502 -0.0068
  288loPI   C3A 4601  14.455  15.079   8.337 -0.0710  0.0309 -0.3202
  288loPI   C4A 4602  14.262  14.903   7.999  0.1182  0.3254 -0.1339
  288loPI   C5A 4603  14.148  14.751   7.587 -0.2097 -0.3408 -0.2021
  288loPI   C6A 4604  14.081  14.386   7.422  0.1464 -0.0426  0.0938
  288loPI   C1B 4605  13.816  14.978   8.857 -0.4054 -0.1178 -0.0631
  288loPI   C2B 4606  13.863  14.894   8.436 -0.0359  0.1038  0.0435
  288loPI   C3B 4607  13.737  15.054   8.085 -0.0870  0.1163  0.0138
  288loPI   C4B 4608  13.760  15.070   7.559  0.0524 -0.3155  0.2178
  289loPI    C1 4609  13.221  11.468   9.538  0.0331 -0.0300 -0.0611
  289loPI    C2 4610  12.992  11.706   9.313  0.0508 -0.0315 -0.0807
  289loPI    C3 4611  12.943  11.699   9.710 -0.0969 -0.1563 -0.1004
  289loPI   PO4 4612  13.498  11.505   9.383  0.0552  0.1482 -0.2774
  289loPI   GL1 4613  13.539  11.546   8.922  0.1840 -0.1313 -0.1445
  289loPI   GL2 4614  13.336  11.818   9.004 -0.1737  0.0444 -0.0192
  289loPI   C1A 4615  13.437  11.508   8.452  0.0017  0.2259 -0.0248
  289loPI   C2A 4616  13.323  11.519   8.082 -0.0208  0.3112 -0.2266
  289loPI   C3A 4617  13.040  11.803   7.763 -0.3800  0.2177  0.2314
  289loPI   C4A 4618  12.902  12.076   7.526  0.2026 -0.1937  0.0199
  289loPI   C5A 4619  13.064  12.492   7.294  0.2117 -0.1854  0.0751
  289loPI   C6A 4620  13.110  12.867   7.485  0.0695 -0.1765 -0.1621
  289loPI   C1B 4621  13.366  11.967   8.509  0.1762 -0.1141  0.4044
  289loPI   C2B 4622  13.346  12.085   8.121  0.1774  0.3381 -0.0714
  289loPI   C3B 4623  13.435  12.106   7.661  0.2723  0.0409 -0.0025
  289loPI   C4B 4624  13.587  12.119   7.244  0.2415  0.1265 -0.0775
  290loPI    C1 4625   8.566  18.414   9.895  0.1180  0.0384 -0.1615
  290loPI    C2 4626   8.915  18.402  10.089  0.0377  0.4459  0.0190
  290loPI    C3 4627   8.582  18.509  10.283 -0.1674  0.1882 -0.1833
  290loPI   PO4 4628   8.642  18.105   9.739  0.1660  0.0336 -0.0529
  290loPI   GL1 4629   8.853  18.047   9.374  0.2308 -0.0072  0.0847
  290loPI   GL2 4630   8.866  17.726   9.439  0.0588 -0.2213 -0.3047
  290loPI   C1A 4631   8.906  18.397   9.129 -0.1378 -0.1083  0.0994
  290loPI   C2A 4632   9.077  18.456   8.763  0.0559  0.1758  0.2072
  290loPI   C3A 4633   9.101  18.630   8.498 -0.2400 -0.1799  0.0912
  290loPI   C4A 4634   9.159  18.567   8.124 -0.2192 -0.1123  0.2415
  290loPI   C5A 4635   9.265  18.568   7.766 -0.1487 -0.0070 -0.0312
  290loPI   C6A 4636   9.298  18.275   7.471  0.0040  0.0447  0.2049
  290loPI   C1B 4637   8.849  17.665   9.051 -0.1459  0.1597 -0.1019
  290loPI   C2B 4638   8.770  17.737   8.668 -0.0545 -0.0221  0.0972
  290loPI   C3B 4639   8.776  17.748   8.301 -0.0523 -0.1717 -0.3593
  290loPI   C4B 4640   8.620  17.800   7.874  0.0780 -0.1465  0.2621
  291loPI    C1 4641   8.858  11.311   9.732  0.0629 -0.1666 -0.1454
  291loPI    C2 4642   9.147  11.036   9.721  0.1550 -0.0834  0.1224
  291loPI    C3 4643   8.964  11.120  10.067  0.0771  0.1389  0.0289
  291loPI   PO4 4644   8.772  11.323   9.486  0.0222 -0.0063 -0.2540
  291loPI   GL1 4645   8.560  11.513   9.236  0.0838  0.3510 -0.0510
  291loPI   GL2 4646   8.466  11.801   9.221 -0.0613 -0.1057  0.2584
  291loPI   C1A 4647   8.468  11.424   8.790  0.0205  0.3771  0.2898
  291loPI   C2A 4648   8.391  11.415   8.343  0.1732 -0.1141 -0.3095
  291loPI   C3A 4649   8.275  11.330   7.972 -0.2500 -0.0219 -0.2194
  291loPI   C4A 4650   8.064  11.192   7.618 -0.0015 -0.1169 -0.2399
  291loPI   C5A 4651   8.153  11.413   7.203  0.3414  0.0020  0.1706
  291loPI   C6A 4652   7.963  11.343   6.808 -0.1884 -0.0305  0.1987
  291loPI   C1B 4653   8.620  11.886   8.827  0.0275 -0.1034  0.0590
  291loPI   C2B 4654   8.685  11.995   8.364 -0.0768 -0.1030 -0.0322
  291loPI   C3B 4655   8.966  11.812   8.019 -0.3267 -0.0371  0.1327
  291loPI   C4B 4656   9.438  12.038   7.844 -0.0105 -0.2466 -0.2759
  292loPI    C1 4657   2.016   0.723  10.031  0.0574 -0.1527 -0.0847
  292loPI    C2 4658   2.194   1.002  10.255  0.0623 -0.1819 -0.0522
  292loPI    C3 4659   1.978   0.714  10.429 -0.0927 -0.0941 -0.0969
  292loPI   PO4 4660   2.144   0.777   9.766 -0.0059  0.2755  0.1567
  292loPI   GL1 4661   2.438   0.619   9.478  0.0334 -0.2786 -0.2094
  292loPI   GL2 4662   2.561   0.889   9.390 -0.1308 -0.1755  0.3406
  292loPI   C1A 4663   2.351   0.621   9.024  0.0564  0.1641 -0.2108
  292loPI   C2A 4664   2.287   0.597   8.601  0.0776 -0.3151 -0.3074
  292loPI   C3A 4665   2.359   0.424   8.242  0.1944  0.2835 -0.1691
  292loPI   C4A 4666   2.316   0.228   7.878  0.1693 -0.1585 -0.2051
  292loPI   C5A 4667   2.556   0.134   7.542 -0.1821  0.1451 -0.2809
  292loPI   C6A 4668   2.799  -0.183   7.450  0.2711  0.1660 -0.1473
  292loPI   C1B 4669   2.623   1.034   8.997 -0.0919 -0.5787 -0.0079
  292loPI   C2B 4670   2.612   1.026   8.538  0.1337 -0.0858 -0.0992
  292loPI   C3B 4671   2.552   1.122   8.147 -0.1395  0.1311  0.2273
  292loPI   C4B 4672   2.318   1.453   7.973 -0.0050  0.0805 -0.1396
  293loPI    C1 4673   7.768   8.775   9.851 -0.1478 -0.0173 -0.0303
  293loPI    C2 4674   7.757   8.424  10.043 -0.3190  0.0040 -0.0001
  293loPI    C3 4675   7.666   8.762  10.237  0.0557  0.0930  0.0290
  293loPI   PO4 4676   7.723   8.676   9.517  0.3763 -0.0579  0.0857
  293loPI   GL1 4677   7.437   8.883   9.061  0.0602 -0.0638 -0.2519
  293loPI   GL2 4678   7.843   9.022   9.197  0.0351  0.0805 -0.1416
  293loPI   C1A 4679   7.531   8.728   8.597 -0.1190 -0.2039  0.0263
  293loPI   C2A 4680   7.577   8.651   8.136  0.0543  0.0633  0.2853
  293loPI   C3A 4681   7.780   8.414   7.686  0.2171 -0.2228 -0.1625
  293loPI   C4A 4682   7.765   8.054   7.338  0.4166  0.1512  0.0440
  293loPI   C5A 4683   8.036   7.915   6.986  0.0797 -0.0114 -0.1583
  293loPI   C6A 4684   8.325   7.822   6.936  0.2246  0.0711 -0.2948
  293loPI   C1B 4685   7.927   8.815   8.841 -0.2543 -0.1905 -0.3026
  293loPI   C2B 4686   8.065   8.523   8.709  0.2809 -0.2718  0.3246
  293loPI   C3B 4687   8.228   8.463   8.349 -0.2470  0.2819 -0.0017
  293loPI   C4B 4688   8.183   8.393   7.984  0.0749  0.1292  0.1711
  294loPI    C1 4689  11.971   8.910   9.913  0.2856  0.0949  0.1591
  294loPI    C2 4690  12.144   8.591   9.744 -0.0925 -0.0734  0.0790
  294loPI    C3 4691  12.233   8.691  10.121  0.1435 -0.1804  0.0533
  294loPI   PO4 4692  11.710   8.944   9.772 -0.1232 -0.2549 -0.0627
  294loPI   GL1 4693  11.616   9.219   9.267  0.1107  0.0660  0.2661
  294loPI   GL2 4694  11.795   9.494   9.188 -0.3637 -0.2987  0.1601
  294loPI   C1A 4695  11.889   8.969   8.996 -0.0914 -0.4444 -0.2532
  294loPI   C2A 4696  11.684   8.811   8.594 -0.0722  0.2452 -0.0554
  294loPI   C3A 4697  11.825   8.763   8.066  0.1020  0.2533 -0.1471
  294loPI   C4A 4698  11.937   8.807   7.558 -0.0998  0.0578  0.2241
  294loPI   C5A 4699  11.683   9.094   7.224  0.0755  0.3549 -0.0093
  294loPI   C6A 4700  11.425   9.045   6.747  0.1427 -0.0087 -0.0201
  294loPI   C1B 4701  11.845   9.435   8.640  0.0112 -0.0534 -0.1551
  294loPI   C2B 4702  11.723   9.287   8.260 -0.1911  0.0815  0.2867
  294loPI   C3B 4703  11.586   9.419   7.867 -0.0742  0.1922 -0.0408
  294loPI   C4B 4704  11.388   9.779   7.754 -0.2022 -0.1762 -0.1718
  295loPI    C1 4705  16.311  17.555  10.405  0.0882 -0.0060 -0.2220
  295loPI    C2 4706  16.696  17.544  10.512  0.0244  0.0124  0.0161
  295loPI    C3 4707  16.445  17.259  10.638 -0.0570  0.0445 -0.0722
  295loPI   PO4 4708  16.293  17.692  10.163 -0.0455  0.0229  0.0177
  295loPI   GL1 4709  16.130  17.805   9.780 -0.1584  0.1551  0.2660
  295loPI   GL2 4710  15.866  17.967   9.695 -0.0901  0.0911 -0.0259
  295loPI   C1A 4711  16.278  17.605   9.439  0.2192  0.0593 -0.1159
  295loPI   C2A 4712  16.191  17.368   9.112  0.0717  0.0770  0.0529
  295loPI   C3A 4713  16.088  17.521   8.633 -0.1724 -0.0092  0.0304
  295loPI   C4A 4714  15.996  17.832   8.325  0.1889 -0.1516 -0.2671
  295loPI   C5A 4715  15.836  18.069   7.959  0.0259  0.0281  0.1906
  295loPI   C6A 4716  16.012  18.497   7.757 -0.1771 -0.4680  0.0502
  295loPI   C1B 4717  16.002  18.022   9.259 -0.2203  0.0884  0.1689
  295loPI   C2B 4718  15.907  17.897   8.899  0.0657  0.2599  0.1932
  295loPI   C3B 4719  15.628  17.711   8.712 -0.2136  0.0189 -0.1972
  295loPI   C4B 4720  15.489  18.000   8.373  0.0182  0.0967  0.4285
  296loPI    C1 4721   5.239   2.093   9.901 -0.0003 -0.0993  0.0288
  296loPI    C2 4722   4.917   2.243   9.718  0.0978 -0.2202 -0.2478
  296loPI    C3 4723   4.874   2.023  10.049 -0.0589  0.2684  0.0679
  296loPI   PO4 4724   5.334   1.991   9.746 -0.2551  0.1730  0.0317
  296loPI   GL1 4725   5.233   1.968   9.362  0.0681 -0.0050 -0.2043
  296loPI   GL2 4726   5.230   1.603   9.230  0.0573 -0.2468 -0.1243
  296loPI   C1A 4727   5.499   2.118   8.940 -0.0189 -0.0415  0.1622
  296loPI   C2A 4728   5.712   2.493   8.768  0.0110  0.2760 -0.0895
  296loPI   C3A 4729   5.737   2.775   8.520  0.4761 -0.1089 -0.2858
  296loPI   C4A 4730   5.670   3.296   8.469 -0.0171  0.2691 -0.0533
  296loPI   C5A 4731   5.497   3.565   8.740 -0.1884 -0.1635  0.2040
  296loPI   C6A 4732   5.542   3.794   9.030 -0.1149  0.1168  0.2320
  296loPI   C1B 4733   5.077   1.389   8.826 -0.0006  0.3734 -0.0471
  296loPI   C2B 4734   4.905   1.447   8.289 -0.3749 -0.1336 -0.0927
  296loPI   C3B 4735   4.802   1.679   7.939  0.2714 -0.4039 -0.4977
  296loPI   C4B 4736   4.758   1.732   7.482 -0.2229  0.2301  0.1747
  297loPI    C1 4737   6.376  16.302   9.887 -0.0165 -0.1337 -0.1760
  297loPI    C2 4738   6.176  16.119  10.181  0.0158  0.2470  0.0911
  297loPI    C3 4739   6.576  16.107  10.174  0.0055 -0.0714 -0.1486
  297loPI   PO4 4740   6.189  16.202   9.684 -0.0772 -0.1234  0.0576
  297loPI   GL1 4741   5.984  15.997   9.473 -0.0314 -0.0946  0.3065
  297loPI   GL2 4742   6.255  16.051   9.216 -0.3446 -0.1587  0.0328
  297loPI   C1A 4743   5.773  16.141   9.035 -0.1694 -0.3291 -0.1199
  297loPI   C2A 4744   5.601  16.257   8.704 -0.2218  0.0632  0.2774
  297loPI   C3A 4745   5.726  16.416   8.380 -0.2563 -0.0498  0.0897
  297loPI   C4A 4746   6.055  16.666   8.090 -0.0043 -0.2602  0.2896
  297loPI   C5A 4747   5.954  16.934   7.779 -0.1500  0.2886  0.2747
  297loPI   C6A 4748   5.532  17.210   7.601  0.0637  0.3165  0.0789
  297loPI   C1B 4749   6.182  16.252   8.783 -0.2042  0.0625  0.1938
  297loPI   C2B 4750   6.194  16.351   8.425  0.3204 -0.0609  0.0685
  297loPI   C3B 4751   6.195  16.167   8.010  0.1449 -0.2951 -0.0860
  297loPI   C4B 4752   6.100  15.907   7.670 -0.1826 -0.3248 -0.1399
  298loPI    C1 4753   5.557   8.552   9.964 -0.1342  0.0469 -0.1280
  298loPI    C2 4754   5.943   8.461  10.021 -0.2117 -0.1100  0.1654
  298loPI    C3 4755   5.772   8.752  10.236 -0.2214  0.0594 -0.0681
  298loPI   PO4 4756   5.521   8.579   9.701  0.2339  0.0931  0.1406
  298loPI   GL1 4757   5.488   8.508   9.258 -0.0356 -0.0622 -0.1153
  298loPI   GL2 4758   5.202   8.524   9.115  0.0279  0.0623  0.2712
  298loPI   C1A 4759   5.587   8.292   8.874  0.0078  0.0242  0.0613
  298loPI   C2A 4760   5.618   8.027   8.438  0.0026  0.0823 -0.1126
  298loPI   C3A 4761   5.796   7.736   8.183 -0.0798 -0.3151 -0.0212
  298loPI   C4A 4762   5.592   7.417   8.070  0.1118 -0.0685 -0.1688
  298loPI   C5A 4763   5.503   7.283   7.776 -0.2408 -0.0607 -0.3846
  298loPI   C6A 4764   5.418   6.976   7.434  0.0467 -0.1875 -0.1251
  298loPI   C1B 4765   5.135   8.584   8.626  0.1755 -0.0819 -0.0321
  298loPI   C2B 4766   5.214   8.428   8.247  0.0859  0.2097  0.0555
  298loPI   C3B 4767   4.985   8.559   7.834 -0.1425 -0.0889  0.1171
  298loPI   C4B 4768   4.878   8.494   7.356  0.0156 -0.0581 -0.3663
  299loPI    C1 4769   4.868  12.563   9.930  0.1866 -0.0726  0.0185
  299loPI    C2 4770   5.030  12.871  10.128 -0.0710  0.0053  0.1116
  299loPI    C3 4771   4.958  12.525  10.317  0.1369 -0.0846  0.0290
  299loPI   PO4 4772   4.597  12.658   9.856 -0.2170 -0.0855  0.0264
  299loPI   GL1 4773   4.616  12.712   9.473 -0.0808 -0.0552 -0.0265
  299loPI   GL2 4774   4.886  13.009   9.536  0.2127 -0.2222 -0.1550
  299loPI   C1A 4775   4.378  12.873   9.155  0.0112  0.0220  0.0939
  299loPI   C2A 4776   4.545  12.933   8.714  0.0011 -0.1372 -0.0183
  299loPI   C3A 4777   4.614  13.062   8.332  0.0846  0.0011  0.0737
  299loPI   C4A 4778   4.841  12.898   7.882  0.0377 -0.0255  0.0910
  299loPI   C5A 4779   5.225  12.891   7.730 -0.3287 -0.0901 -0.2158
  299loPI   C6A 4780   5.453  13.250   7.575 -0.1598 -0.1727  0.0487
  299loPI   C1B 4781   4.922  13.092   9.100  0.0813  0.1112 -0.0463
  299loPI   C2B 4782   5.064  13.093   8.619  0.5012  0.2684  0.3376
  299loPI   C3B 4783   5.150  13.188   8.162  0.0969  0.1712 -0.1613
  299loPI   C4B 4784   5.543  13.212   8.153  0.3022 -0.0228 -0.0858
  300loPI    C1 4785   7.109   9.464   9.526 -0.0620 -0.0555 -0.1426
  300loPI    C2 4786   6.802   9.478   9.781  0.0413  0.2594 -0.0314
  300loPI    C3 4787   7.066   9.180   9.804 -0.0032  0.2339  0.1687
  300loPI   PO4 4788   7.015   9.611   9.345 -0.1867  0.0652  0.0094
  300loPI   GL1 4789   6.907   9.875   9.160  0.0726  0.2203  0.1385
  300loPI   GL2 4790   7.025  10.118   9.096 -0.1811  0.1573 -0.1363
  300loPI   C1A 4791   6.833   9.631   8.749 -0.0546 -0.0005 -0.2392
  300loPI   C2A 4792   6.706   9.542   8.388  0.1775  0.1018 -0.1980
  300loPI   C3A 4793   6.869   9.309   7.989 -0.1214  0.2159 -0.2861
  300loPI   C4A 4794   7.007   9.035   7.645 -0.0274 -0.2681  0.2420
  300loPI   C5A 4795   7.250   8.740   7.486  0.2176 -0.1495 -0.0465
  300loPI   C6A 4796   7.428   8.470   7.332 -0.0519  0.0103  0.1663
  300loPI   C1B 4797   6.941  10.085   8.651  0.1664 -0.1664  0.3749
  300loPI   C2B 4798   6.956   9.979   8.273  0.0476  0.3331  0.0522
  300loPI   C3B 4799   6.856  10.046   7.831  0.2233 -0.3498 -0.0047
  300loPI   C4B 4800   6.593   9.885   7.631 -0.2639 -0.1178  0.3562
  301loPI    C1 4801   4.670   8.708   9.841  0.0176  0.1036 -0.2440
  301loPI    C2 4802   5.061   8.623   9.828 -0.0027 -0.0484  0.0524
  301loPI    C3 4803   4.846   8.528  10.152 -0.3006 -0.0261 -0.1345
  301loPI   PO4 4804   4.605   8.694   9.597 -0.2820 -0.0758  0.2826
  301loPI   GL1 4805   4.743   8.751   9.189 -0.0274 -0.2748 -0.0834
  301loPI   GL2 4806   4.821   9.108   9.188 -0.0055 -0.1005  0.2060
  301loPI   C1A 4807   4.752   8.823   8.771  0.2506 -0.1279 -0.1982
  301loPI   C2A 4808   4.658   8.674   8.382  0.0458  0.0779 -0.4242
  301loPI   C3A 4809   4.516   8.325   8.070  0.1913  0.1095  0.1816
  301loPI   C4A 4810   4.475   8.119   7.691 -0.0224 -0.1442 -0.1145
  301loPI   C5A 4811   4.328   7.748   7.517  0.0016 -0.0367  0.0767
  301loPI   C6A 4812   4.298   7.281   7.416  0.0830 -0.1152 -0.0050
  301loPI   C1B 4813   4.783   9.290   8.842  0.1048 -0.1251  0.3071
  301loPI   C2B 4814   4.624   9.163   8.370 -0.2863  0.0845  0.0287
  301loPI   C3B 4815   4.699   9.088   7.961 -0.0671  0.1494  0.3096
  301loPI   C4B 4816   4.857   9.296   7.692 -0.3406  0.1781  0.0487
  302loPI    C1 4817  13.757   5.554   9.607 -0.0775  0.1121 -0.0130
  302loPI    C2 4818  13.876   5.331   9.917 -0.1704  0.0290 -0.0367
  302loPI    C3 4819  13.770   5.713   9.974 -0.2583 -0.0076  0.0462
  302loPI   PO4 4820  13.799   5.353   9.411 -0.2419 -0.0373 -0.0106
  302loPI   GL1 4821  13.519   5.164   9.167  0.0842  0.0422  0.1141
  302loPI   GL2 4822  13.736   5.288   8.942 -0.2019  0.3709  0.0390
  302loPI   C1A 4823  13.162   5.058   8.805 -0.0557  0.1373  0.2394
  302loPI   C2A 4824  13.160   5.064   8.360 -0.2692  0.1604  0.2863
  302loPI   C3A 4825  13.131   5.038   7.941 -0.1025 -0.0599 -0.2882
  302loPI   C4A 4826  13.134   4.918   7.585 -0.2109 -0.1255 -0.3061
  302loPI   C5A 4827  13.376   4.862   7.209  0.2307 -0.3215 -0.0291
  302loPI   C6A 4828  13.422   5.156   6.866 -0.0920  0.2092 -0.4371
  302loPI   C1B 4829  13.703   5.246   8.560  0.1472  0.1775  0.1665
  302loPI   C2B 4830  13.732   5.216   8.189 -0.4486 -0.1287 -0.2403
  302loPI   C3B 4831  13.673   5.363   7.832 -0.2912 -0.0568  0.3298
  302loPI   C4B 4832  13.681   5.191   7.465  0.0847 -0.0146 -0.2712
  303loPI    C1 4833  12.209   6.074   9.861 -0.1703  0.1918 -0.1220
  303loPI    C2 4834  11.936   6.322  10.017  0.0031  0.3715 -0.1005
  303loPI    C3 4835  12.319   6.436   9.992  0.1041  0.0648  0.0063
  303loPI   PO4 4836  12.061   5.972   9.557  0.0473 -0.1338 -0.1390
  303loPI   GL1 4837  11.718   5.963   9.203  0.1475 -0.2294  0.2055
  303loPI   GL2 4838  11.826   6.234   9.062  0.0503  0.1736 -0.2424
  303loPI   C1A 4839  12.018   5.831   8.822  0.1685  0.0550  0.1308
  303loPI   C2A 4840  12.360   5.664   8.496  0.0508  0.0048  0.0230
  303loPI   C3A 4841  12.329   5.635   8.039 -0.0794  0.2646 -0.1154
  303loPI   C4A 4842  12.283   5.525   7.686 -0.1115  0.0921  0.0819
  303loPI   C5A 4843  12.342   5.762   7.274 -0.0407 -0.2678  0.0029
  303loPI   C6A 4844  12.009   6.004   7.121 -0.1658  0.0143 -0.1719
  303loPI   C1B 4845  11.538   6.063   8.740  0.1150  0.0047  0.0315
  303loPI   C2B 4846  11.377   6.055   8.308  0.0582 -0.0461  0.2234
  303loPI   C3B 4847  11.454   6.080   7.851 -0.0891 -0.2143  0.0730
  303loPI   C4B 4848  11.589   5.901   7.507  0.0655 -0.0206  0.0357
  304loPI    C1 4849  14.663   8.031   9.678 -0.0629 -0.0987 -0.0323
  304loPI    C2 4850  14.815   8.085  10.043 -0.0722  0.0665 -0.0523
  304loPI    C3 4851  14.447   8.216   9.958 -0.0243  0.1356 -0.1550
  304loPI   PO4 4852  14.830   8.053   9.532 -0.0077  0.2284 -0.1767
  304loPI   GL1 4853  15.036   8.159   9.064  0.1437  0.2611  0.1077
  304loPI   GL2 4854  15.234   8.385   8.972 -0.0448  0.1485  0.3288
  304loPI   C1A 4855  14.672   8.308   8.762 -0.0789 -0.2487 -0.2858
  304loPI   C2A 4856  14.646   8.447   8.338 -0.0343  0.0589 -0.3959
  304loPI   C3A 4857  14.288   8.719   8.244 -0.1894 -0.0582  0.1983
  304loPI   C4A 4858  13.861   8.729   8.089 -0.0857  0.0089  0.1202
  304loPI   C5A 4859  13.946   8.554   7.694 -0.3678  0.0693 -0.2573
  304loPI   C6A 4860  14.333   8.424   7.400 -0.1979 -0.1053 -0.2366
  304loPI   C1B 4861  15.176   8.496   8.616  0.0692  0.2715 -0.2076
  304loPI   C2B 4862  15.115   8.519   8.157 -0.4368  0.1128 -0.0533
  304loPI   C3B 4863  15.049   8.425   7.785  0.0195 -0.1507  0.0489
  304loPI   C4B 4864  14.817   8.638   7.572 -0.0307  0.1359 -0.2714
  305loPI    C1 4865   6.030   7.612   9.776 -0.2383  0.0785 -0.0247
  305loPI    C2 4866   5.853   7.629  10.134 -0.4705 -0.1766 -0.1236
  305loPI    C3 4867   5.996   7.281   9.998  0.2161  0.0428  0.0005
  305loPI   PO4 4868   5.827   7.681   9.609  0.1020  0.0335  0.2925
  305loPI   GL1 4869   5.509   7.850   9.338  0.1979  0.2890 -0.1447
  305loPI   GL2 4870   5.288   7.996   9.154  0.0564 -0.0228 -0.0424
  305loPI   C1A 4871   5.751   7.829   8.919  0.1138 -0.2599 -0.1368
  305loPI   C2A 4872   6.049   7.771   8.573  0.1980 -0.0592 -0.1107
  305loPI   C3A 4873   6.382   7.519   8.349 -0.0175  0.2472 -0.1154
  305loPI   C4A 4874   6.769   7.588   8.059 -0.3063 -0.3287 -0.1334
  305loPI   C5A 4875   6.853   7.569   7.704 -0.2250  0.0543 -0.1372
  305loPI   C6A 4876   6.780   7.727   7.324  0.2676 -0.2157  0.2399
  305loPI   C1B 4877   5.129   8.114   8.799  0.0199  0.0980 -0.1533
  305loPI   C2B 4878   4.844   8.072   8.472 -0.2749  0.0423 -0.0587
  305loPI   C3B 4879   4.764   7.707   8.205  0.0992  0.3082  0.1136
  305loPI   C4B 4880   4.750   7.660   7.692 -0.0896 -0.0157 -0.1269
  306loPI    C1 4881   6.860   1.673   9.398 -0.0753 -0.0847  0.1233
  306loPI    C2 4882   6.737   2.053   9.420  0.1057 -0.0185  0.0095
  306loPI    C3 4883   6.970   1.901   9.708 -0.0332 -0.0685  0.0965
  306loPI   PO4 4884   6.710   1.531   9.395 -0.2940  0.2496  0.0256
  306loPI   GL1 4885   6.534   1.373   9.078 -0.0042  0.1195  0.0701
  306loPI   GL2 4886   6.305   1.228   8.998  0.0332 -0.0691  0.0123
  306loPI   C1A 4887   6.765   1.329   8.676 -0.1525  0.1175 -0.0551
  306loPI   C2A 4888   6.966   1.287   8.350 -0.0526 -0.3690  0.0472
  306loPI   C3A 4889   6.950   1.165   7.964 -0.4059 -0.0577  0.0463
  306loPI   C4A 4890   7.048   0.743   7.783 -0.1404 -0.2153  0.0883
  306loPI   C5A 4891   7.172   0.313   7.710 -0.0985  0.1886  0.2928
  306loPI   C6A 4892   7.225  -0.136   7.641 -0.2006 -0.1905 -0.2762
  306loPI   C1B 4893   6.259   1.445   8.653  0.3228 -0.0860  0.3984
  306loPI   C2B 4894   6.426   1.422   8.156  0.1450 -0.3001  0.0458
  306loPI   C3B 4895   6.558   1.378   7.819 -0.0801 -0.2246 -0.0115
  306loPI   C4B 4896   6.854   1.253   7.477 -0.0524 -0.0852  0.0515
  307loPI    C1 4897  15.347   4.215   9.869  0.1521 -0.3789  0.1464
  307loPI    C2 4898  15.430   4.106  10.245  0.0118 -0.0195  0.2860
  307loPI    C3 4899  15.499   4.482  10.126 -0.1181 -0.0826  0.0050
  307loPI   PO4 4900  15.329   4.006   9.806  0.0195 -0.0603  0.0877
  307loPI   GL1 4901  15.459   4.011   9.367 -0.1261 -0.4008  0.0638
  307loPI   GL2 4902  15.704   3.838   9.400 -0.1344  0.2529  0.0173
  307loPI   C1A 4903  15.565   4.232   8.898 -0.0823 -0.0709 -0.0839
  307loPI   C2A 4904  15.647   4.366   8.524  0.0519 -0.0001 -0.0222
  307loPI   C3A 4905  15.707   4.424   8.120  0.1691 -0.1487 -0.2504
  307loPI   C4A 4906  15.672   4.627   7.679  0.1374 -0.5172 -0.1308
  307loPI   C5A 4907  15.890   4.690   7.307 -0.1117  0.0598  0.0896
  307loPI   C6A 4908  15.867   4.922   6.891  0.0898 -0.2081 -0.0009
  307loPI   C1B 4909  15.729   3.766   8.922 -0.2845  0.2939 -0.0091
  307loPI   C2B 4910  15.591   3.787   8.576 -0.0096 -0.0382 -0.2627
  307loPI   C3B 4911  15.439   3.738   8.100  0.0822 -0.1037  0.1566
  307loPI   C4B 4912  15.141   3.763   7.770  0.0487  0.0649  0.0315
  308loPI    C1 4913   5.276  16.869  10.347  0.0636  0.0637 -0.0581
  308loPI    C2 4914   5.123  16.508  10.269 -0.1657  0.1691 -0.1041
  308loPI    C3 4915   5.054  16.682  10.622  0.3051 -0.0149  0.0863
  308loPI   PO4 4916   5.191  17.037  10.113  0.0748 -0.1330 -0.1559
  308loPI   GL1 4917   4.961  16.787   9.798 -0.1426  0.1240 -0.2425
  308loPI   GL2 4918   4.709  16.497   9.889 -0.1193 -0.0119  0.0061
  308loPI   C1A 4919   5.043  16.821   9.385  0.3107  0.1118 -0.1014
  308loPI   C2A 4920   5.416  17.018   9.200 -0.1836  0.0612 -0.1208
  308loPI   C3A 4921   5.679  17.220   8.954  0.0465  0.2362  0.1576
  308loPI   C4A 4922   5.747  17.449   8.635  0.1225 -0.0316  0.0447
  308loPI   C5A 4923   5.904  17.582   8.285  0.0723 -0.0384 -0.0562
  308loPI   C6A 4924   5.788  17.908   8.057 -0.0465 -0.1504  0.0416
  308loPI   C1B 4925   4.769  16.374   9.462 -0.2060 -0.0589 -0.2620
  308loPI   C2B 4926   4.775  16.399   8.971 -0.1338  0.0463 -0.0853
  308loPI   C3B 4927   4.874  16.640   8.646 -0.0035  0.4442 -0.0297
  308loPI   C4B 4928   4.966  16.660   8.182 -0.0459  0.2005 -0.1214
  309loPI    C1 4929  16.021   6.160   9.844 -0.0705 -0.0680  0.1235
  309loPI    C2 4930  15.989   6.552   9.775  0.1185 -0.0451  0.1605
  309loPI    C3 4931  15.694   6.357   9.962 -0.0445  0.0482  0.0038
  309loPI   PO4 4932  16.034   6.049   9.649 -0.1713  0.1228 -0.0009
  309loPI   GL1 4933  16.006   5.946   9.296  0.2320  0.2441 -0.1181
  309loPI   GL2 4934  15.765   5.685   9.324  0.2637  0.4814 -0.2511
  309loPI   C1A 4935  16.019   6.163   8.896  0.0962 -0.2260  0.0943
  309loPI   C2A 4936  15.850   6.127   8.435  0.1280  0.1168  0.0480
  309loPI   C3A 4937  15.823   6.428   8.151 -0.0719  0.0457 -0.1371
  309loPI   C4A 4938  15.842   6.558   7.757  0.1634 -0.2882  0.0536
  309loPI   C5A 4939  16.169   6.595   7.489 -0.1853 -0.1326  0.0913
  309loPI   C6A 4940  16.392   6.647   7.209 -0.0974  0.0356 -0.0766
  309loPI   C1B 4941  15.540   5.860   8.977  0.0691 -0.1003 -0.1167
  309loPI   C2B 4942  15.555   5.600   8.565  0.0918  0.1600 -0.2096
  309loPI   C3B 4943  15.821   5.349   8.276 -0.2182 -0.3599 -0.0265
  309loPI   C4B 4944  16.352   5.258   8.137 -0.2325  0.1199 -0.2910
  310loPI    C1 4945  12.166  18.157  10.151  0.0299  0.0234  0.2023
  310loPI    C2 4946  11.839  18.121   9.924  0.0506 -0.1078  0.1921
  310loPI    C3 4947  11.804  18.148  10.321  0.0209  0.0084  0.1822
  310loPI   PO4 4948  12.349  18.046   9.945  0.3335  0.3406 -0.0128
  310loPI   GL1 4949  12.568  17.877   9.638 -0.0682  0.0357  0.0362
  310loPI   GL2 4950  12.344  17.535   9.568 -0.2253  0.0755  0.0520
  310loPI   C1A 4951  12.686  18.077   9.143 -0.0841 -0.0124 -0.0080
  310loPI   C2A 4952  12.620  17.958   8.704 -0.3947  0.0276  0.0499
  310loPI   C3A 4953  12.766  17.828   8.380 -0.2165 -0.0900  0.2348
  310loPI   C4A 4954  12.906  17.718   8.041 -0.1598  0.0147  0.0836
  310loPI   C5A 4955  13.087  17.499   7.683  0.2382  0.0280  0.0347
  310loPI   C6A 4956  13.103  17.268   7.312 -0.1255 -0.1449 -0.1787
  310loPI   C1B 4957  12.486  17.591   9.103 -0.3793  0.1686 -0.0012
  310loPI   C2B 4958  12.473  17.442   8.695  0.0563 -0.1534 -0.0270
  310loPI   C3B 4959  12.841  17.255   8.390  0.0572  0.0168  0.1313
  310loPI   C4B 4960  13.235  17.212   8.133  0.4082 -0.0823  0.0822
  311loPI    C1 4961   1.331   1.158   9.988 -0.1085 -0.0824 -0.1136
  311loPI    C2 4962   1.618   0.931  10.151  0.1670  0.3384  0.0055
  311loPI    C3 4963   1.362   1.130  10.386 -0.2636 -0.0719 -0.1002
  311loPI   PO4 4964   1.382   1.187   9.786 -0.1739 -0.2377 -0.1852
  311loPI   GL1 4965   1.297   1.114   9.369 -0.2288 -0.0118  0.0268
  311loPI   GL2 4966   1.091   0.888   9.315 -0.1088 -0.0446  0.1020
  311loPI   C1A 4967   1.448   1.049   8.996 -0.0904  0.2383  0.0322
  311loPI   C2A 4968   1.595   1.126   8.533  0.2004  0.1001  0.1642
  311loPI   C3A 4969   1.444   1.115   8.128  0.1716  0.0747  0.1058
  311loPI   C4A 4970   1.371   1.067   7.808 -0.0759 -0.0271 -0.1776
  311loPI   C5A 4971   1.272   1.099   7.413 -0.0698  0.0097  0.2354
  311loPI   C6A 4972   1.056   1.121   7.069 -0.1368  0.3003 -0.1835
  311loPI   C1B 4973   1.064   0.682   8.952 -0.1242 -0.1727  0.0207
  311loPI   C2B 4974   1.131   0.903   8.601 -0.2967  0.1214 -0.1287
  311loPI   C3B 4975   1.184   0.661   8.281 -0.0123  0.0237  0.0234
  311loPI   C4B 4976   1.325   0.230   8.121  0.1293 -0.5263 -0.2043
  312loPI    C1 4977   5.618   2.999  10.100 -0.3428 -0.0595 -0.0791
  312loPI    C2 4978   5.795   3.175  10.412 -0.0532  0.0351 -0.2920
  312loPI    C3 4979   5.412   3.255  10.328 -0.2005 -0.1581  0.1638
  312loPI   PO4 4980   5.779   3.057   9.878  0.0574 -0.0703  0.4560
  312loPI   GL1 4981   5.707   3.175   9.536 -0.0616 -0.0096 -0.1533
  312loPI   GL2 4982   5.590   2.913   9.375  0.1005  0.0646 -0.2066
  312loPI   C1A 4983   5.818   3.355   9.093  0.0983  0.2712 -0.1498
  312loPI   C2A 4984   6.069   3.548   8.728  0.0065 -0.0201 -0.4096
  312loPI   C3A 4985   5.997   3.677   8.323 -0.1208 -0.1850 -0.0523
  312loPI   C4A 4986   5.783   3.577   7.965  0.1346 -0.1477  0.0646
  312loPI   C5A 4987   5.763   3.405   7.496  0.1338  0.6339  0.0715
  312loPI   C6A 4988   5.588   3.438   7.121 -0.1031 -0.0813  0.2301
  312loPI   C1B 4989   5.312   2.754   9.053 -0.1685  0.0446 -0.0391
  312loPI   C2B 4990   5.248   2.726   8.667 -0.0251  0.1014 -0.1928
  312loPI   C3B 4991   5.237   2.562   8.193  0.1978 -0.2713  0.0524
  312loPI   C4B 4992   5.644   2.644   7.972 -0.0334 -0.1780 -0.0144
  313loPI    C1 4993  12.634   0.487  10.480  0.0071  0.2546  0.0112
  313loPI    C2 4994  12.937   0.426  10.734 -0.1167 -0.0166  0.0975
  313loPI    C3 4995  12.708   0.753  10.770  0.1063  0.1424  0.0894
  313loPI   PO4 4996  12.715   0.404  10.239 -0.1989  0.0489  0.0674
  313loPI   GL1 4997  12.813   0.539   9.868 -0.2836 -0.0794 -0.2631
  313loPI   GL2 4998  12.648   0.785   9.886 -0.1464  0.0409 -0.1711
  313loPI   C1A 4999  13.039   0.614   9.487 -0.0364  0.0384 -0.3081
  313loPI   C2A 5000  13.367   0.866   9.200  0.0430  0.0577 -0.0292
  313loPI   C3A 5001  13.715   0.794   8.875 -0.1080 -0.1101 -0.1468
  313loPI   C4A 5002  14.010   0.763   8.583  0.0211 -0.0378  0.0770
  313loPI   C5A 5003  14.105   0.976   8.230  0.2184 -0.0377 -0.5157
  313loPI   C6A 5004  14.427   0.975   7.930 -0.1618  0.1393  0.0071
  313loPI   C1B 5005  12.694   1.019   9.600  0.2820 -0.2240 -0.2639
  313loPI   C2B 5006  12.767   0.963   9.188 -0.1052 -0.5081 -0.1836
  313loPI   C3B 5007  13.060   1.049   8.880 -0.2397  0.0164 -0.0969
  313loPI   C4B 5008  12.987   1.227   8.537 -0.1162 -0.1167  0.3155
  314loPI    C1 5009  11.571  10.441   9.613  0.0598  0.0963  0.0544
  314loPI    C2 5010  11.287  10.481   9.892 -0.1411  0.2915 -0.1738
  314loPI    C3 5011  11.671  10.536   9.989 -0.1686 -0.0581  0.1564
  314loPI   PO4 5012  11.483  10.325   9.395 -0.1551  0.2056  0.0609
  314loPI   GL1 5013  11.423  10.571   9.013  0.0628  0.2633  0.1275
  314loPI   GL2 5014  11.166  10.341   9.032 -0.0499 -0.0834 -0.2410
  314loPI   C1A 5015  11.534  10.735   8.608 -0.0444  0.2046 -0.0579
  314loPI   C2A 5016  11.653  10.920   8.195 -0.0924 -0.2881  0.0139
  314loPI   C3A 5017  11.682  11.064   7.831  0.1274 -0.0564  0.3618
  314loPI   C4A 5018  11.805  10.796   7.551  0.1694 -0.2049  0.2015
  314loPI   C5A 5019  12.090  10.413   7.409 -0.0831 -0.4780  0.0920
  314loPI   C6A 5020  12.416  10.200   7.265  0.1580  0.2137 -0.0400
  314loPI   C1B 5021  11.188  10.289   8.578  0.1973  0.0448  0.0824
  314loPI   C2B 5022  11.248  10.547   8.285 -0.1528  0.2549  0.2254
  314loPI   C3B 5023  11.410  10.555   7.848  0.1027 -0.0644  0.0898
  314loPI   C4B 5024  11.668  10.262   7.702  0.5078  0.1699  0.4437
  315loPI    C1 5025  18.552   8.647  10.061  0.1392  0.1427  0.0462
  315loPI    C2 5026  18.637   8.256  10.085 -0.1335  0.0358 -0.5378
  315loPI    C3 5027  18.433   8.435  10.379  0.3797 -0.1474 -0.0515
  315loPI   PO4 5028  18.458   8.653   9.810  0.0841 -0.2307  0.2651
  315loPI   GL1 5029  18.226   8.816   9.474 -0.1193 -0.0653  0.1303
  315loPI   GL2 5030  18.552   8.911   9.315 -0.1287  0.1192  0.4059
  315loPI   C1A 5031  18.002   9.244   9.467  0.0138  0.1820  0.0965
  315loPI   C2A 5032  17.759   9.667   9.413  0.4144 -0.3494 -0.1696
  315loPI   C3A 5033  17.462   9.797   9.076  0.1145  0.1321 -0.1238
  315loPI   C4A 5034  17.280   9.939   8.722 -0.1327 -0.3192 -0.1992
  315loPI   C5A 5035  17.014   9.954   8.364 -0.0287 -0.1370 -0.1461
  315loPI   C6A 5036  16.882  10.301   8.001  0.4942  0.0340  0.2297
  315loPI   C1B 5037  18.557   9.030   8.955 -0.0733 -0.0788 -0.0835
  315loPI   C2B 5038  18.409   9.143   8.493 -0.1243 -0.0797  0.2040
  315loPI   C3B 5039  18.514   9.325   8.094 -0.1459 -0.1195  0.0404
  315loPI   C4B 5040  18.647   9.506   7.678  0.2703 -0.0575 -0.0335
  316loPI    C1 5041   9.983  12.814  10.092 -0.1721  0.0822 -0.0935
  316loPI    C2 5042   9.817  12.671  10.427 -0.1887 -0.0279 -0.1482
  316loPI    C3 5043  10.151  12.890  10.447 -0.2706  0.0897 -0.0481
  316loPI   PO4 5044   9.873  12.636   9.907 -0.4564 -0.2144  0.2171
  316loPI   GL1 5045   9.587  12.564   9.582  0.0106  0.1298 -0.0944
  316loPI   GL2 5046   9.351  12.703   9.361  0.2208 -0.1671 -0.2480
  316loPI   C1A 5047   9.823  12.629   9.230 -0.3399 -0.1301  0.0327
  316loPI   C2A 5048   9.904  12.601   8.776  0.0767  0.0743  0.3306
  316loPI   C3A 5049   9.935  12.563   8.391 -0.1210  0.0217 -0.0716
  316loPI   C4A 5050  10.156  12.857   8.218  0.1077 -0.0823  0.1598
  316loPI   C5A 5051  10.419  12.963   7.891  0.2900 -0.0538 -0.2071
  316loPI   C6A 5052  10.599  13.377   7.735 -0.1749  0.0060  0.0153
  316loPI   C1B 5053   9.285  12.983   8.978 -0.5612 -0.1500 -0.0845
  316loPI   C2B 5054   9.426  13.164   8.529  0.1783  0.0814 -0.0012
  316loPI   C3B 5055   9.372  13.373   8.129  0.1971 -0.0164  0.2108
  316loPI   C4B 5056   9.029  13.558   7.873 -0.3295  0.1818  0.2074
  317loPI    C1 5057  15.245   3.130  10.227  0.1386 -0.1161  0.0617
  317loPI    C2 5058  14.915   3.336  10.321  0.1094 -0.1784  0.0953
  317loPI    C3 5059  15.188   3.255  10.603  0.2136 -0.0187  0.0412
  317loPI   PO4 5060  15.184   3.103   9.975  0.2255 -0.0016  0.1523
  317loPI   GL1 5061  15.068   3.070   9.570 -0.2181  0.1521 -0.1201
  317loPI   GL2 5062  15.451   2.895   9.547 -0.0688  0.0399  0.1877
  317loPI   C1A 5063  15.012   2.938   9.127  0.0570  0.2020  0.1172
  317loPI   C2A 5064  15.084   3.142   8.805 -0.0683 -0.2732  0.0413
  317loPI   C3A 5065  15.124   3.157   8.400  0.3607  0.0587 -0.1930
  317loPI   C4A 5066  14.933   3.343   8.040  0.1913  0.3759 -0.2132
  317loPI   C5A 5067  14.825   3.276   7.627  0.0469 -0.4858  0.1326
  317loPI   C6A 5068  15.029   2.994   7.459  0.0521 -0.0078 -0.0334
  317loPI   C1B 5069  15.426   2.610   9.249  0.1175 -0.1449 -0.1414
  317loPI   C2B 5070  15.347   2.692   8.755 -0.0479  0.0771 -0.0458
  317loPI   C3B 5071  15.268   2.730   8.240 -0.1035 -0.1560  0.2316
  317loPI   C4B 5072  15.122   2.848   7.928  0.0304 -0.0060 -0.1947
  318loPI    C1 5073   3.062   2.250  10.179  0.0486 -0.0221 -0.0695
  318loPI    C2 5074   3.452   2.284  10.099  0.1127  0.0612  0.2648
  318loPI    C3 5075   3.263   2.575  10.298 -0.1121  0.0026  0.1400
  318loPI   PO4 5076   2.909   2.095   9.874 -0.0193  0.0108 -0.0684
  318loPI   GL1 5077   2.888   2.219   9.425 -0.2002  0.1781 -0.3510
  318loPI   GL2 5078   3.183   1.997   9.461  0.1881 -0.0740 -0.2495
  318loPI   C1A 5079   2.919   2.135   8.957  0.3258 -0.1365 -0.1567
  318loPI   C2A 5080   2.834   2.108   8.472  0.3837  0.4220 -0.0886
  318loPI   C3A 5081   3.023   2.047   8.098  0.1045  0.2612  0.2888
  318loPI   C4A 5082   2.984   1.947   7.750 -0.2687  0.0516 -0.3114
  318loPI   C5A 5083   3.005   1.814   7.351  0.0178  0.5434  0.0323
  318loPI   C6A 5084   2.906   2.230   7.167  0.0322 -0.1882  0.2521
  318loPI   C1B 5085   3.330   2.184   9.148  0.2437  0.5261  0.0091
  318loPI   C2B 5086   3.457   2.210   8.756 -0.0146 -0.2261  0.1043
  318loPI   C3B 5087   3.503   2.070   8.300  0.1809  0.2172 -0.1090
  318loPI   C4B 5088   3.563   1.968   7.882  0.0966 -0.1744  0.0233
  319loPI    C1 5089   6.322   3.725   9.863 -0.1858 -0.0549 -0.1768
  319loPI    C2 5090   6.006   3.581  10.062  0.0204 -0.2426  0.0210
  319loPI    C3 5091   6.126   3.406   9.723 -0.0718 -0.1854 -0.0419
  319loPI   PO4 5092   6.352   3.917   9.793  0.0176 -0.2178  0.0534
  319loPI   GL1 5093   6.310   4.082   9.439 -0.0103  0.0286  0.1673
  319loPI   GL2 5094   6.389   3.725   9.323 -0.2173 -0.0165  0.1758
  319loPI   C1A 5095   6.568   4.120   9.053  0.0055 -0.0741  0.2403
  319loPI   C2A 5096   6.534   3.930   8.679 -0.0573  0.0322 -0.1256
  319loPI   C3A 5097   6.852   3.839   8.392 -0.0991 -0.2905 -0.3266
  319loPI   C4A 5098   7.237   3.661   8.305 -0.3549 -0.1580 -0.2732
  319loPI   C5A 5099   7.637   3.820   8.314  0.0126  0.0448 -0.0605
  319loPI   C6A 5100   7.838   4.209   8.311 -0.0643  0.2662 -0.0147
  319loPI   C1B 5101   6.782   3.609   9.106 -0.0843  0.1968 -0.3284
  319loPI   C2B 5102   7.076   3.780   8.818  0.2629 -0.0552  0.0028
  319loPI   C3B 5103   7.487   3.963   8.795  0.2082  0.0110 -0.2360
  319loPI   C4B 5104   7.856   4.290   8.800 -0.1447  0.3083  0.0943
  320loPI    C1 5105   2.118   7.900  10.126  0.2023 -0.0532  0.1666
  320loPI    C2 5106   2.472   8.057  10.226  0.1678  0.0760  0.0877
  320loPI    C3 5107   2.134   8.224  10.359  0.1318  0.0498  0.0296
  320loPI   PO4 5108   2.204   7.739   9.858  0.0884 -0.1069  0.2428
  320loPI   GL1 5109   1.986   7.783   9.442  0.3370 -0.1745 -0.0786
  320loPI   GL2 5110   2.293   7.771   9.396 -0.1686  0.3965  0.0348
  320loPI   C1A 5111   1.875   7.481   9.090  0.0555 -0.0990  0.2796
  320loPI   C2A 5112   1.974   7.524   8.649  0.0088 -0.3441  0.0895
  320loPI   C3A 5113   2.008   7.393   8.197  0.1430 -0.1418  0.3482
  320loPI   C4A 5114   1.919   7.173   7.809 -0.2771  0.1296  0.0395
  320loPI   C5A 5115   2.098   6.836   7.525 -0.0828  0.0360 -0.2587
  320loPI   C6A 5116   2.442   6.462   7.600 -0.2027 -0.1072  0.0436
  320loPI   C1B 5117   2.509   8.140   9.090  0.0166 -0.1784  0.0281
  320loPI   C2B 5118   2.695   8.114   8.705  0.1929  0.1113  0.2218
  320loPI   C3B 5119   2.798   8.125   8.318  0.3678  0.0272  0.0399
  320loPI   C4B 5120   2.686   8.239   7.936 -0.1802 -0.5336  0.0055
  321loPI    C1 5121   1.796   1.350  10.267 -0.3580  0.0942 -0.0841
  321loPI    C2 5122   2.094   1.418  10.525 -0.0912  0.3022 -0.4381
  321loPI    C3 5123   1.797   1.169  10.624  0.3677 -0.1746 -0.2045
  321loPI   PO4 5124   1.872   1.351  10.064  0.3457 -0.1125  0.1002
  321loPI   GL1 5125   1.916   1.278   9.701 -0.0222 -0.4491  0.2617
  321loPI   GL2 5126   2.149   1.528   9.570  0.0378 -0.0100  0.1842
  321loPI   C1A 5127   1.816   1.391   9.169  0.0326  0.2853  0.0305
  321loPI   C2A 5128   1.993   1.781   9.018 -0.0182 -0.0234  0.0979
  321loPI   C3A 5129   2.024   1.908   8.604 -0.1396 -0.1499  0.0431
  321loPI   C4A 5130   2.240   2.159   8.294  0.0246 -0.1945  0.2320
  321loPI   C5A 5131   2.486   2.382   8.130 -0.0508  0.2881 -0.0900
  321loPI   C6A 5132   2.879   2.440   7.815  0.0100  0.3110  0.1138
  321loPI   C1B 5133   2.308   1.438   9.157 -0.1180  0.1436  0.2268
  321loPI   C2B 5134   2.101   1.370   8.745  0.3013 -0.0584  0.2481
  321loPI   C3B 5135   1.916   1.456   8.311  0.2445 -0.0566  0.2372
  321loPI   C4B 5136   1.965   1.828   8.088  0.1116 -0.0561  0.1224
  322loPI    C1 5137   6.258  14.591   9.974  0.1513 -0.1295 -0.0768
  322loPI    C2 5138   6.143  14.731   9.617 -0.0983 -0.3134 -0.0708
  322loPI    C3 5139   5.946  14.840   9.948  0.2264 -0.0233  0.0319
  322loPI   PO4 5140   6.435  14.370   9.849 -0.2840  0.2237 -0.3872
  322loPI   GL1 5141   6.252  14.250   9.559 -0.0055  0.2819  0.3558
  322loPI   GL2 5142   6.147  14.076   9.365  0.0279  0.4442  0.2287
  322loPI   C1A 5143   6.428  14.511   9.266  0.0449  0.0045 -0.0730
  322loPI   C2A 5144   6.773  14.617   8.994 -0.0196  0.2151  0.3324
  322loPI   C3A 5145   7.079  14.371   8.652  0.1851  0.1413  0.1490
  322loPI   C4A 5146   7.141  14.477   8.252  0.0197 -0.0785  0.2967
  322loPI   C5A 5147   6.902  14.222   8.031  0.2023 -0.1123  0.0720
  322loPI   C6A 5148   6.995  14.067   7.603  0.0354 -0.2116  0.3261
  322loPI   C1B 5149   6.106  13.986   8.942 -0.0110 -0.0347 -0.2907
  322loPI   C2B 5150   6.027  14.096   8.443  0.1571 -0.2337 -0.1718
  322loPI   C3B 5151   6.030  14.467   8.264  0.0989 -0.1894 -0.0701
  322loPI   C4B 5152   6.132  14.641   7.899  0.0951  0.0799 -0.3440
  323loPI    C1 5153   6.991   4.522  10.145 -0.0238 -0.1397 -0.1923
  323loPI    C2 5154   7.328   4.676  10.295 -0.0659  0.0546 -0.2933
  323loPI    C3 5155   7.159   4.358  10.468  0.2068 -0.0881 -0.2837
  323loPI   PO4 5156   7.122   4.512   9.873  0.0342  0.1624  0.4783
  323loPI   GL1 5157   6.959   4.592   9.455  0.0989  0.1396  0.0449
  323loPI   GL2 5158   7.317   4.526   9.411  0.0670  0.1725  0.2472
  323loPI   C1A 5159   6.845   4.695   9.032  0.1673 -0.2881 -0.1323
  323loPI   C2A 5160   6.908   4.790   8.648 -0.4295  0.1749  0.0116
  323loPI   C3A 5161   7.118   4.795   8.373  0.2596  0.0719  0.1308
  323loPI   C4A 5162   7.445   4.535   8.074  0.0639 -0.2228  0.0234
  323loPI   C5A 5163   7.306   4.322   7.741 -0.1639 -0.3137  0.2492
  323loPI   C6A 5164   7.192   3.978   7.459  0.3029 -0.0746  0.1192
  323loPI   C1B 5165   7.332   4.639   8.902  0.0099  0.1781 -0.3029
  323loPI   C2B 5166   7.434   4.455   8.527  0.0654 -0.0945  0.1705
  323loPI   C3B 5167   7.246   4.131   8.319  0.3441 -0.0950 -0.0381
  323loPI   C4B 5168   6.995   4.032   7.962  0.1180  0.0287  0.1729
  324loPI    C1 5169  13.019   5.494  10.132  0.1427 -0.1183  0.2487
  324loPI    C2 5170  13.337   5.330   9.954  0.0227 -0.2338  0.1388
  324loPI    C3 5171  13.388   5.592  10.252  0.2259 -0.0300 -0.0702
  324loPI   PO4 5172  12.926   5.600   9.888  0.0369 -0.2301 -0.1806
  324loPI   GL1 5173  12.839   5.584   9.437 -0.0007  0.1275  0.0491
  324loPI   GL2 5174  12.900   5.942   9.282 -0.2646  0.3722  0.0813
  324loPI   C1A 5175  12.635   5.339   9.181  0.4990  0.1570 -0.4681
  324loPI   C2A 5176  12.731   5.325   8.704 -0.1075 -0.1871 -0.2900
  324loPI   C3A 5177  12.733   5.400   8.279 -0.1452  0.0584 -0.1017
  324loPI   C4A 5178  12.759   5.546   7.821 -0.1198  0.1873 -0.0439
  324loPI   C5A 5179  12.749   5.538   7.412 -0.1300  0.0410  0.0136
  324loPI   C6A 5180  12.948   5.264   7.178  0.1428  0.1490  0.3262
  324loPI   C1B 5181  12.732   5.843   8.909  0.0288 -0.0033  0.0227
  324loPI   C2B 5182  12.828   5.804   8.573 -0.2174 -0.2175  0.3380
  324loPI   C3B 5183  12.840   5.975   8.165 -0.1355  0.1906  0.1157
  324loPI   C4B 5184  13.105   5.902   7.710 -0.2092 -0.2929  0.0036
  325loPI    C1 5185   3.912   7.282   9.886  0.0160 -0.2495 -0.1441
  325loPI    C2 5186   4.058   7.407   9.535 -0.0366 -0.1607 -0.1346
  325loPI    C3 5187   4.304   7.254   9.811  0.0268 -0.0893 -0.1512
  325loPI   PO4 5188   3.605   7.283   9.799 -0.1365  0.1801 -0.0268
  325loPI   GL1 5189   3.525   7.523   9.503 -0.0297 -0.2164 -0.1326
  325loPI   GL2 5190   3.315   7.446   9.319  0.1838 -0.0743  0.1992
  325loPI   C1A 5191   3.748   7.276   9.096 -0.1758 -0.0695 -0.0642
  325loPI   C2A 5192   4.046   7.110   8.806 -0.2684  0.1035 -0.4924
  325loPI   C3A 5193   4.030   7.111   8.369 -0.1044 -0.2129 -0.0004
  325loPI   C4A 5194   4.238   6.876   8.029  0.0271 -0.0169 -0.2217
  325loPI   C5A 5195   4.231   6.530   7.806  0.0477  0.4365 -0.0764
  325loPI   C6A 5196   4.204   6.396   7.329 -0.2456  0.2181 -0.2627
  325loPI   C1B 5197   3.313   7.514   8.923  0.0966 -0.1794 -0.1904
  325loPI   C2B 5198   3.361   7.462   8.497 -0.4521  0.2592  0.0473
  325loPI   C3B 5199   3.451   7.561   7.948 -0.0095 -0.2939  0.1410
  325loPI   C4B 5200   3.095   7.631   7.608 -0.1267 -0.2695  0.1007
  326loPI    C1 5201  10.205  15.382  10.031 -0.2311 -0.1557 -0.2192
  326loPI    C2 5202   9.929  15.577  10.244 -0.1381 -0.0227 -0.2187
  326loPI    C3 5203   9.964  15.180  10.278  0.1183  0.0357  0.2948
  326loPI   PO4 5204  10.242  15.454   9.794 -0.0343 -0.0610  0.0534
  326loPI   GL1 5205  10.455  15.384   9.466 -0.5178  0.1646  0.1260
  326loPI   GL2 5206  10.694  15.221   9.498 -0.5426 -0.1726 -0.1711
  326loPI   C1A 5207  10.227  15.318   9.152 -0.0464  0.0982 -0.1496
  326loPI   C2A 5208  10.245  15.479   8.791  0.0151  0.1295 -0.2926
  326loPI   C3A 5209  10.484  15.711   8.402  0.0130  0.0637  0.0809
  326loPI   C4A 5210  10.557  15.706   7.975  0.0565  0.1537  0.1403
  326loPI   C5A 5211  10.437  15.704   7.597 -0.0302 -0.0103  0.1629
  326loPI   C6A 5212  10.249  15.931   7.317  0.1010 -0.0719 -0.3677
  326loPI   C1B 5213  10.469  14.810   9.393 -0.1122 -0.1130 -0.1448
  326loPI   C2B 5214  10.532  14.680   8.990 -0.0330  0.0262  0.1884
  326loPI   C3B 5215  10.543  14.797   8.658  0.0370 -0.1350 -0.2687
  326loPI   C4B 5216  10.559  15.176   8.434 -0.3164  0.0562  0.3109
  327loPI    C1 5217  17.482  13.286   9.793 -0.0897  0.1018 -0.0007
  327loPI    C2 5218  17.286  13.111  10.095  0.0146 -0.0542 -0.0226
  327loPI    C3 5219  17.561  13.391  10.171 -0.0821  0.0304  0.0176
  327loPI   PO4 5220  17.446  13.177   9.636 -0.0667  0.0482 -0.1323
  327loPI   GL1 5221  17.586  12.953   9.350  0.2881  0.1259 -0.1148
  327loPI   GL2 5222  17.415  13.051   9.077 -0.3991  0.0806  0.1107
  327loPI   C1A 5223  17.987  13.098   9.122  0.0027 -0.0505 -0.3986
  327loPI   C2A 5224  18.285  13.193   8.811 -0.0515 -0.1595 -0.0415
  327loPI   C3A 5225  18.485  13.375   8.522  0.1260  0.0114 -0.1440
  327loPI   C4A 5226  18.665  13.293   8.031  0.2568  0.2721 -0.3215
  327loPI   C5A 5227  18.637  13.445   7.622 -0.1176 -0.0106 -0.0170
  327loPI   C6A 5228  18.440  13.603   7.192 -0.0174 -0.0911  0.0234
  327loPI   C1B 5229  17.643  13.134   8.727  0.0257 -0.0148 -0.0404
  327loPI   C2B 5230  17.689  13.248   8.344 -0.2506 -0.0313  0.0601
  327loPI   C3B 5231  17.567  13.206   7.973 -0.0238 -0.0442 -0.0505
  327loPI   C4B 5232  17.744  13.298   7.500  0.0218 -0.1476  0.0979
  328loPI    C1 5233  12.760  10.397   9.822  0.0746 -0.0292  0.0077
  328loPI    C2 5234  13.081  10.178   9.918  0.2695  0.0081 -0.5242
  328loPI    C3 5235  12.769  10.006   9.735  0.0670  0.0142 -0.1934
  328loPI   PO4 5236  12.901  10.651   9.751  0.3871 -0.0160 -0.0697
  328loPI   GL1 5237  12.916  10.936   9.293  0.1798  0.0757 -0.0739
  328loPI   GL2 5238  12.612  10.931   9.137  0.2906 -0.1980 -0.2988
  328loPI   C1A 5239  12.958  11.342   9.033  0.0981  0.0581 -0.0499
  328loPI   C2A 5240  12.987  11.620   8.712 -0.0420  0.1462  0.1891
  328loPI   C3A 5241  12.831  11.604   8.197  0.0336 -0.0647 -0.3914
  328loPI   C4A 5242  12.685  11.422   7.865 -0.0555 -0.0927  0.1824
  328loPI   C5A 5243  12.561  11.129   7.562  0.3398  0.2663 -0.1519
  328loPI   C6A 5244  12.266  11.025   7.324 -0.2207 -0.0116  0.1583
  328loPI   C1B 5245  12.516  11.025   8.711 -0.0670 -0.1128 -0.0037
  328loPI   C2B 5246  12.701  11.063   8.304 -0.0023 -0.1695 -0.0281
  328loPI   C3B 5247  13.192  11.130   8.375  0.0002  0.0612 -0.1744
  328loPI   C4B 5248  13.232  11.053   8.746 -0.0637  0.3762 -0.2319
  329loPI    C1 5249  14.021   9.946  10.097  0.0192 -0.0292 -0.0513
  329loPI    C2 5250  14.161   9.574  10.053 -0.0640 -0.0586 -0.0674
  329loPI    C3 5251  13.794   9.634  10.201  0.1003  0.0296  0.3166
  329loPI   PO4 5252  14.040   9.993   9.761  0.1175  0.0962  0.1120
  329loPI   GL1 5253  14.079   9.834   9.288 -0.0450 -0.1201 -0.0855
  329loPI   GL2 5254  14.364   9.638   9.322 -0.1726  0.2060 -0.0463
  329loPI   C1A 5255  14.047   9.578   8.976  0.0575  0.0286  0.1651
  329loPI   C2A 5256  14.133   9.558   8.679 -0.1750 -0.0063 -0.2638
  329loPI   C3A 5257  14.249   9.680   8.224  0.1292 -0.2258  0.1630
  329loPI   C4A 5258  14.215   9.802   7.755 -0.2210 -0.1474 -0.0247
  329loPI   C5A 5259  14.313  10.247   7.649 -0.5520  0.0342  0.0658
  329loPI   C6A 5260  14.535  10.624   7.534 -0.2116 -0.2030 -0.0343
  329loPI   C1B 5261  14.631   9.632   9.056  0.0077 -0.1565  0.1563
  329loPI   C2B 5262  14.627   9.681   8.716  0.0757 -0.0951  0.0445
  329loPI   C3B 5263  14.773   9.748   8.320 -0.2840  0.0321  0.1510
  329loPI   C4B 5264  14.695   9.862   7.727 -0.2267 -0.1610 -0.0845
  330loPI    C1 5265   8.415   5.339  10.043 -0.3046 -0.1553  0.1511
  330loPI    C2 5266   8.300   5.485  10.397 -0.2192  0.0332  0.1026
  330loPI    C3 5267   8.567   5.187  10.380 -0.3814 -0.1195  0.2020
  330loPI   PO4 5268   8.624   5.467   9.797  0.0709 -0.0738 -0.3104
  330loPI   GL1 5269   8.741   5.368   9.434 -0.0109 -0.0629  0.2746
  330loPI   GL2 5270   8.687   5.213   9.213 -0.2389 -0.2515 -0.0712
  330loPI   C1A 5271   9.024   5.521   8.993  0.0697 -0.1122 -0.2488
  330loPI   C2A 5272   8.849   5.393   8.578 -0.0013  0.3129  0.1471
  330loPI   C3A 5273   8.897   5.395   8.146  0.2403 -0.2434 -0.1522
  330loPI   C4A 5274   8.733   5.444   7.700 -0.1260  0.1779 -0.2026
  330loPI   C5A 5275   8.845   5.797   7.404  0.0788 -0.2618  0.1269
  330loPI   C6A 5276   8.779   6.226   7.318  0.0435 -0.0901 -0.4143
  330loPI   C1B 5277   8.715   4.941   8.809 -0.1937 -0.1569  0.1519
  330loPI   C2B 5278   8.827   4.969   8.382 -0.2303 -0.0658  0.1357
  330loPI   C3B 5279   8.851   4.945   7.911 -0.0239 -0.2023  0.0255
  330loPI   C4B 5280   9.144   5.172   7.657 -0.4995  0.0645  0.3348
  331loPI    C1 5281  18.210   2.425   9.716  0.0439  0.2026 -0.3686
  331loPI    C2 5282  18.259   2.822   9.722 -0.3122  0.2472 -0.1186
  331loPI    C3 5283  18.205   2.621  10.064 -0.2141 -0.0079 -0.2501
  331loPI   PO4 5284  18.436   2.389   9.567 -0.0764  0.2143 -0.1964
  331loPI   GL1 5285  18.400   2.308   9.089 -0.3056  0.1910  0.0401
  331loPI   GL2 5286  18.636   2.183   9.161  0.1007 -0.1116 -0.1046
  331loPI   C1A 5287  18.110   2.332   8.706  0.1797  0.1723 -0.1391
  331loPI   C2A 5288  17.941   2.195   8.314  0.0950  0.2137  0.0753
  331loPI   C3A 5289  17.637   2.335   7.996 -0.0973 -0.3014  0.1093
  331loPI   C4A 5290  17.472   2.125   7.624  0.3676  0.0532  0.3228
  331loPI   C5A 5291  17.202   1.705   7.665 -0.1701 -0.0961 -0.2567
  331loPI   C6A 5292  16.894   1.473   7.516  0.0044 -0.2930  0.0147
  331loPI   C1B 5293  18.560   2.255   8.603 -0.1117 -0.0217 -0.1303
  331loPI   C2B 5294  18.354   1.974   8.321  0.3720  0.2574 -0.0107
  331loPI   C3B 5295  18.367   1.853   7.930 -0.1717 -0.0911  0.1012
  331loPI   C4B 5296  18.684   1.921   7.684 -0.2113  0.0137  0.0660
  332loPI    C1 5297   7.228   1.557   9.935  0.0279  0.2348 -0.1127
  332loPI    C2 5298   7.602   1.624   9.812  0.0520  0.0292 -0.1556
  332loPI    C3 5299   7.515   1.633  10.202  0.1301 -0.0571 -0.1360
  332loPI   PO4 5300   7.183   1.334   9.762 -0.2805  0.1062  0.0395
  332loPI   GL1 5301   7.085   1.177   9.437 -0.1093 -0.0211 -0.0903
  332loPI   GL2 5302   6.996   1.252   9.126 -0.2032  0.3775  0.1089
  332loPI   C1A 5303   7.464   1.119   9.018  0.0918  0.0786  0.1430
  332loPI   C2A 5304   7.509   1.133   8.565 -0.1367  0.0348 -0.3313
  332loPI   C3A 5305   7.812   1.008   8.298 -0.0306 -0.3123  0.1751
  332loPI   C4A 5306   8.045   0.898   7.964 -0.0936 -0.1549  0.6788
  332loPI   C5A 5307   8.010   0.711   7.663 -0.0753  0.0219 -0.0924
  332loPI   C6A 5308   8.084   0.523   7.281 -0.0720  0.0804 -0.3952
  332loPI   C1B 5309   7.154   1.554   8.892 -0.1838  0.1444  0.0013
  332loPI   C2B 5310   7.349   1.631   8.446 -0.1654 -0.2574 -0.0306
  332loPI   C3B 5311   7.314   1.458   8.030 -0.2162  0.1725  0.0244
  332loPI   C4B 5312   7.714   1.272   7.885 -0.2412 -0.0985  0.0886
  333loPI    C1 5313  17.815   3.329   9.674  0.0025 -0.1931 -0.1402
  333loPI    C2 5314  17.437   3.230   9.760 -0.0769  0.1030 -0.1347
  333loPI    C3 5315  17.662   3.414  10.034  0.0438  0.0081 -0.1689
  333loPI   PO4 5316  17.886   3.118   9.489  0.2374 -0.1412 -0.1795
  333loPI   GL1 5317  17.796   2.773   9.268 -0.0537  0.0539 -0.0157
  333loPI   GL2 5318  18.095   2.660   9.288 -0.1271  0.1438 -0.2708
  333loPI   C1A 5319  17.565   2.540   9.091 -0.0273 -0.4019 -0.0884
  333loPI   C2A 5320  17.275   2.504   8.826 -0.1433  0.1214  0.0323
  333loPI   C3A 5321  17.202   2.351   8.378  0.0481  0.1239 -0.0113
  333loPI   C4A 5322  17.125   2.203   8.026  0.0526 -0.2882 -0.2222
  333loPI   C5A 5323  16.975   2.158   7.658  0.0175 -0.1905 -0.2543
  333loPI   C6A 5324  16.659   1.944   7.443  0.1228  0.1977 -0.1730
  333loPI   C1B 5325  17.972   2.770   8.810  0.3833  0.1996 -0.2435
  333loPI   C2B 5326  17.616   2.704   8.545 -0.0071  0.0999 -0.1172
  333loPI   C3B 5327  17.405   2.768   8.171 -0.0292  0.0489  0.0166
  333loPI   C4B 5328  17.306   2.687   7.716 -0.0795 -0.1149 -0.0198
  334loPI    C1 5329  11.805   0.675  10.055  0.0969  0.0358 -0.0006
  334loPI    C2 5330  11.660   1.044  10.109  0.0034 -0.0055  0.0338
  334loPI    C3 5331  11.635   0.774  10.404  0.2841  0.0304  0.0935
  334loPI   PO4 5332  11.714   0.683   9.734 -0.4043  0.0606  0.0423
  334loPI   GL1 5333  11.854   0.584   9.371  0.2726  0.0544  0.3027
  334loPI   GL2 5334  11.790   0.306   9.340 -0.0785 -0.2300  0.0424
  334loPI   C1A 5335  11.915   0.733   8.903 -0.1384  0.0283 -0.2429
  334loPI   C2A 5336  11.941   0.749   8.367 -0.1170 -0.2028  0.0986
  334loPI   C3A 5337  12.131   0.689   8.009 -0.0019  0.0377 -0.2350
  334loPI   C4A 5338  12.202   0.965   7.559  0.2253  0.0618 -0.0479
  334loPI   C5A 5339  12.500   1.263   7.384  0.2608 -0.0816  0.2003
  334loPI   C6A 5340  12.832   1.125   7.106 -0.0863 -0.3587  0.1606
  334loPI   C1B 5341  11.707   0.117   8.940  0.0248  0.2692 -0.1623
  334loPI   C2B 5342  11.739   0.011   8.542  0.0460  0.3142  0.0087
  334loPI   C3B 5343  11.915  -0.156   8.182 -0.3452  0.0233  0.3469
  334loPI   C4B 5344  11.952  -0.332   7.775  0.1926  0.2111  0.0004
  335loPI    C1 5345  18.481  13.753  10.118 -0.0113  0.0581 -0.1893
  335loPI    C2 5346  18.823  13.551  10.162 -0.1071 -0.0424  0.1174
  335loPI    C3 5347  18.813  13.945  10.230  0.0153  0.0182 -0.1990
  335loPI   PO4 5348  18.358  13.782   9.873  0.0453  0.4579  0.1655
  335loPI   GL1 5349  18.356  13.694   9.431 -0.2196  0.0410  0.0107
  335loPI   GL2 5350  18.088  13.445   9.448 -0.1622 -0.0210  0.5242
  335loPI   C1A 5351  18.444  13.640   9.058 -0.2796  0.2918  0.4160
  335loPI   C2A 5352  18.518  13.906   8.681 -0.0958  0.1463 -0.0848
  335loPI   C3A 5353  18.485  14.139   8.389 -0.0648 -0.0718  0.2362
  335loPI   C4A 5354  18.414  14.347   8.028 -0.0753  0.0250 -0.1394
  335loPI   C5A 5355  18.250  14.490   7.720  0.1337  0.0525  0.2390
  335loPI   C6A 5356  17.852  14.606   7.445  0.1003  0.2717 -0.1499
  335loPI   C1B 5357  17.970  13.564   8.980 -0.1165 -0.1441  0.0820
  335loPI   C2B 5358  18.043  13.682   8.644 -0.0602 -0.1902  0.2334
  335loPI   C3B 5359  18.241  13.735   8.257 -0.1148 -0.0875  0.0376
  335loPI   C4B 5360  18.311  13.825   7.851 -0.2732 -0.2610  0.0089
  336loPI    C1 5361   9.494   5.792  10.057 -0.2566 -0.1139  0.2996
  336loPI    C2 5362   9.397   5.708  10.436 -0.0818 -0.1278  0.3424
  336loPI    C3 5363   9.782   5.736  10.330 -0.1301 -0.1067  0.1691
  336loPI   PO4 5364   9.330   5.736   9.923  0.0349  0.3606 -0.0041
  336loPI   GL1 5365   9.195   5.517   9.563  0.0209 -0.0142 -0.3238
  336loPI   GL2 5366   9.038   5.768   9.442  0.0977  0.0898  0.0497
  336loPI   C1A 5367   9.254   5.175   9.264 -0.1832  0.1982 -0.0818
  336loPI   C2A 5368   9.190   5.129   8.804 -0.0737  0.0132  0.0156
  336loPI   C3A 5369   9.287   5.154   8.360  0.2080  0.0635 -0.0353
  336loPI   C4A 5370   9.406   5.427   8.024  0.1980 -0.0693 -0.2976
  336loPI   C5A 5371   9.253   5.713   7.733 -0.3405  0.0123  0.3432
  336loPI   C6A 5372   9.266   6.122   7.533  0.0269  0.2118 -0.1395
  336loPI   C1B 5373   9.408   5.741   9.152  0.1731  0.0091  0.0686
  336loPI   C2B 5374   9.337   5.941   8.787  0.0271  0.2557 -0.0349
  336loPI   C3B 5375   9.152   5.741   8.392  0.2569 -0.0998  0.1762
  336loPI   C4B 5376   8.921   6.025   8.009 -0.1688  0.0502 -0.1733
  337loPI    C1 5377   4.298   5.321   9.919 -0.0126  0.1712 -0.0391
  337loPI    C2 5378   4.371   5.020  10.173 -0.2472  0.1442 -0.0009
  337loPI    C3 5379   4.364   5.397  10.306 -0.1870  0.1464 -0.0037
  337loPI   PO4 5380   4.454   5.253   9.651 -0.4389  0.2352  0.0493
  337loPI   GL1 5381   4.454   4.985   9.219  0.0157 -0.0262 -0.1335
  337loPI   GL2 5382   4.172   5.287   9.213  0.2279 -0.0869 -0.1840
  337loPI   C1A 5383   4.281   4.683   9.109 -0.1280  0.3376 -0.0790
  337loPI   C2A 5384   3.885   4.625   8.860 -0.3586 -0.2907 -0.0679
  337loPI   C3A 5385   3.721   4.651   8.485 -0.1953  0.1694 -0.0647
  337loPI   C4A 5386   3.614   4.430   8.151  0.0224 -0.0407 -0.0117
  337loPI   C5A 5387   3.552   4.287   7.666  0.1730  0.0096  0.1536
  337loPI   C6A 5388   3.298   4.044   7.353  0.0317  0.3444  0.1263
  337loPI   C1B 5389   4.132   5.116   8.825  0.4035  0.0281  0.0286
  337loPI   C2B 5390   3.995   5.299   8.453  0.1641 -0.2253  0.2009
  337loPI   C3B 5391   3.765   5.540   8.184  0.1768 -0.0209 -0.0708
  337loPI   C4B 5392   3.362   5.569   7.940  0.0403  0.1886  0.2208
  338loPI    C1 5393   8.648   4.957   9.906  0.2064  0.1267  0.3347
  338loPI    C2 5394   8.602   4.666  10.177  0.2058 -0.1363  0.0563
  338loPI    C3 5395   8.281   4.838  10.012  0.2067 -0.1897 -0.0015
  338loPI   PO4 5396   8.773   4.901   9.639  0.1653  0.2436 -0.1073
  338loPI   GL1 5397   8.623   4.745   9.278 -0.2192 -0.1171 -0.0139
  338loPI   GL2 5398   8.326   4.843   9.142 -0.1633 -0.0418  0.1724
  338loPI   C1A 5399   8.747   4.483   8.980 -0.4067  0.1731  0.1487
  338loPI   C2A 5400   8.747   4.356   8.611 -0.0041 -0.0832 -0.1079
  338loPI   C3A 5401   8.817   4.438   8.138 -0.0724  0.5147 -0.2747
  338loPI   C4A 5402   8.822   4.421   7.733 -0.0077 -0.1491  0.0934
  338loPI   C5A 5403   8.763   4.759   7.471 -0.3620  0.0299 -0.3627
  338loPI   C6A 5404   8.768   5.157   7.265  0.1931 -0.0334  0.0630
  338loPI   C1B 5405   8.274   4.597   8.740 -0.2023  0.0683  0.1738
  338loPI   C2B 5406   7.984   4.630   8.368 -0.0709 -0.1463 -0.1286
  338loPI   C3B 5407   7.931   4.643   7.910  0.2536 -0.2866  0.0347
  338loPI   C4B 5408   7.781   4.463   7.529  0.0432 -0.2984  0.4731
  339loPI    C1 5409  14.090  18.938  10.475 -0.2399  0.0162  0.1569
  339loPI    C2 5410  13.941  18.575  10.397 -0.1323 -0.0436  0.2278
  339loPI    C3 5411  14.263  18.613  10.631  0.1520  0.0609 -0.1703
  339loPI   PO4 5412  14.155  19.023  10.314 -0.1101 -0.0548  0.1507
  339loPI   GL1 5413  14.233  18.973   9.822 -0.3300 -0.2185  0.0748
  339loPI   GL2 5414  14.347  19.172   9.668 -0.0982 -0.0829 -0.1864
  339loPI   C1A 5415  13.906  19.119   9.437  0.2904 -0.1061  0.2618
  339loPI   C2A 5416  13.830  19.120   9.051  0.2264 -0.1077 -0.1405
  339loPI   C3A 5417  13.696  18.973   8.598 -0.3725  0.1745  0.2643
  339loPI   C4A 5418  13.620  19.162   8.143  0.2139 -0.3775  0.0898
  339loPI   C5A 5419  13.366  19.469   7.886 -0.0467 -0.0006 -0.2867
  339loPI   C6A 5420  13.072  19.730   7.663 -0.4030  0.1501  0.0077
  339loPI   C1B 5421  14.407  18.773   9.411  0.0228 -0.2660 -0.3047
  339loPI   C2B 5422  14.305  18.894   8.997  0.0896  0.0441  0.0914
  339loPI   C3B 5423  14.260  18.914   8.568  0.1290 -0.1222 -0.0037
  339loPI   C4B 5424  14.199  19.052   8.174 -0.2239  0.2151  0.3588
  340loPI    C1 5425   2.205  12.744  10.346  0.0079 -0.0322  0.1168
  340loPI    C2 5426   2.323  13.108  10.463 -0.0744 -0.0150  0.1470
  340loPI    C3 5427   2.234  12.829  10.736  0.0662 -0.0833  0.1237
  340loPI   PO4 5428   1.983  12.784  10.139 -0.1529 -0.2889  0.1497
  340loPI   GL1 5429   1.993  12.827   9.611 -0.1476 -0.3524 -0.0091
  340loPI   GL2 5430   1.975  12.527   9.733 -0.0992 -0.5158  0.2441
  340loPI   C1A 5431   1.935  13.039   9.239 -0.1286  0.3022  0.1385
  340loPI   C2A 5432   2.066  13.056   8.852  0.3066 -0.2625  0.2147
  340loPI   C3A 5433   2.004  12.945   8.413  0.2637  0.1361  0.1908
  340loPI   C4A 5434   1.677  12.937   8.203  0.1346  0.1190  0.0775
  340loPI   C5A 5435   1.324  12.745   7.997  0.1022 -0.0206  0.4073
  340loPI   C6A 5436   1.345  12.866   7.599  0.0551 -0.0706 -0.1700
  340loPI   C1B 5437   1.594  12.495   9.636 -0.1253 -0.1454 -0.0694
  340loPI   C2B 5438   1.467  12.664   9.226  0.1277  0.2614  0.0805
  340loPI   C3B 5439   1.536  13.085   8.876  0.3047 -0.0345 -0.3222
  340loPI   C4B 5440   1.486  13.474   8.712  0.1185 -0.1755 -0.0204
  341loPI    C1 5441   7.447  15.698  10.548 -0.3039  0.3062  0.1248
  341loPI    C2 5442   7.145  15.759  10.803 -0.3419  0.2157  0.1014
  341loPI    C3 5443   7.440  16.028  10.775 -0.4066  0.2913  0.1434
  341loPI   PO4 5444   7.288  15.693  10.312 -0.3460  0.0880 -0.1969
  341loPI   GL1 5445   7.367  15.622   9.917 -0.0373 -0.1835  0.2182
  341loPI   GL2 5446   7.364  15.939   9.844  0.0443  0.1026 -0.2590
  341loPI   C1A 5447   7.396  15.582   9.462  0.1183  0.2408  0.0483
  341loPI   C2A 5448   7.395  15.612   9.093 -0.1558 -0.1885  0.0866
  341loPI   C3A 5449   7.184  15.597   8.634 -0.1434  0.4870  0.2049
  341loPI   C4A 5450   6.972  15.899   8.274 -0.0226 -0.1183 -0.1954
  341loPI   C5A 5451   6.720  16.133   8.026  0.3361  0.0207 -0.1489
  341loPI   C6A 5452   6.528  16.142   7.582  0.0906 -0.1734  0.2242
  341loPI   C1B 5453   7.185  16.029   9.358 -0.1506 -0.1372 -0.1899
  341loPI   C2B 5454   7.121  16.154   8.899 -0.1960 -0.1066  0.1677
  341loPI   C3B 5455   7.300  16.184   8.544 -0.1635  0.3927  0.1755
  341loPI   C4B 5456   7.441  16.085   8.057  0.0006  0.0086 -0.1299
  342loPI    C1 5457  18.769   6.349  10.056  0.1561 -0.2805 -0.1595
  342loPI    C2 5458  19.143   6.489  10.078 -0.0091  0.1221  0.2550
  342loPI    C3 5459  18.943   6.400  10.412 -0.2334 -0.2439  0.0306
  342loPI   PO4 5460  18.634   6.542   9.772  0.3052  0.2640  0.0125
  342loPI   GL1 5461  18.696   6.836   9.399  0.1189  0.0462 -0.1961
  342loPI   GL2 5462  18.502   6.815   9.100  0.0495 -0.1522  0.0556
  342loPI   C1A 5463  18.995   6.529   9.104  0.1869 -0.0557 -0.2769
  342loPI   C2A 5464  19.188   6.527   8.633 -0.2368 -0.1131 -0.0141
  342loPI   C3A 5465  19.374   6.578   8.332 -0.0508  0.1397  0.0486
  342loPI   C4A 5466  19.319   6.870   8.003 -0.2789  0.2254  0.1324
  342loPI   C5A 5467  19.050   7.267   7.810  0.2002  0.1081 -0.0162
  342loPI   C6A 5468  18.663   7.409   7.790 -0.0537  0.1224  0.0366
  342loPI   C1B 5469  18.670   7.005   8.740  0.3343  0.3063  0.0159
  342loPI   C2B 5470  18.773   6.889   8.309 -0.2060  0.2324 -0.0087
  342loPI   C3B 5471  18.633   6.897   7.891 -0.1158  0.0198  0.2309
  342loPI   C4B 5472  18.609   6.959   7.393 -0.0967  0.1854 -0.1499
  343loPI    C1 5473  16.160   2.379   9.976 -0.0627 -0.1889  0.0576
  343loPI    C2 5474  16.177   2.457  10.368  0.0861 -0.1886  0.0517
  343loPI    C3 5475  16.152   2.079  10.240  0.2794 -0.2033  0.0555
  343loPI   PO4 5476  16.321   2.536   9.830  0.3268  0.0648  0.0636
  343loPI   GL1 5477  16.400   2.600   9.492  0.1411 -0.2903  0.1540
  343loPI   GL2 5478  16.721   2.606   9.325 -0.0581  0.0773  0.2590
  343loPI   C1A 5479  16.270   2.537   9.031 -0.0525  0.0127 -0.0375
  343loPI   C2A 5480  16.366   2.560   8.576  0.0171  0.2971  0.4957
  343loPI   C3A 5481  16.303   2.681   8.130 -0.1521  0.0852  0.1408
  343loPI   C4A 5482  16.376   2.822   7.751  0.0175 -0.3789  0.0243
  343loPI   C5A 5483  16.616   2.728   7.412  0.2010 -0.1849  0.2357
  343loPI   C6A 5484  16.984   2.547   7.384  0.2396 -0.0226 -0.0152
  343loPI   C1B 5485  16.778   2.611   8.863 -0.0888  0.1216 -0.2300
  343loPI   C2B 5486  16.880   2.905   8.491  0.2433  0.0336  0.1298
  343loPI   C3B 5487  16.730   3.114   8.137 -0.2133 -0.1506 -0.2140
  343loPI   C4B 5488  16.863   3.108   7.662 -0.0258 -0.2427  0.1261
  344loPI    C1 5489  11.214  18.871  10.153  0.2299 -0.0020 -0.0220
  344loPI    C2 5490  10.835  18.757  10.090  0.2491 -0.1416  0.1070
  344loPI    C3 5491  10.913  19.086  10.305  0.2023 -0.1404  0.1225
  344loPI   PO4 5492  11.396  18.967  10.014  0.0422 -0.1408  0.2111
  344loPI   GL1 5493  11.374  18.949   9.501  0.1067  0.2568  0.2972
  344loPI   GL2 5494  11.694  19.001   9.499  0.1364 -0.0945 -0.1491
  344loPI   C1A 5495  11.412  18.984   9.131 -0.1948  0.2180 -0.0363
  344loPI   C2A 5496  11.528  18.809   8.764  0.0727  0.1996  0.1896
  344loPI   C3A 5497  11.387  18.894   8.332 -0.0986  0.2201 -0.1988
  344loPI   C4A 5498  11.394  19.167   7.975 -0.1242 -0.1418 -0.2050
  344loPI   C5A 5499  11.483  19.080   7.578  0.1284 -0.0197  0.1691
  344loPI   C6A 5500  11.476  19.400   7.266 -0.2317 -0.2228 -0.1083
  344loPI   C1B 5501  11.941  19.058   9.288  0.1805 -0.1674  0.1171
  344loPI   C2B 5502  12.100  18.965   8.811  0.0283 -0.0058  0.1774
  344loPI   C3B 5503  12.296  18.915   8.451  0.1593  0.3330  0.2108
  344loPI   C4B 5504  12.415  18.867   8.133 -0.3364 -0.2878  0.0416
  345loPI    C1 5505   0.897   1.143   9.716  0.1712  0.0407  0.0047
  345loPI    C2 5506   0.866   1.067  10.108  0.0269  0.1482  0.0150
  345loPI    C3 5507   0.952   1.437   9.982 -0.0653  0.1451 -0.0585
  345loPI   PO4 5508   0.755   0.983   9.593 -0.2019  0.0550  0.0735
  345loPI   GL1 5509   0.397   1.148   9.239 -0.0825 -0.0745 -0.0698
  345loPI   GL2 5510   0.586   0.946   9.138 -0.0255 -0.3005 -0.0661
  345loPI   C1A 5511   0.144   1.225   8.785  0.2966  0.0009  0.3885
  345loPI   C2A 5512  -0.040   1.341   8.386  0.5545  0.2344 -0.2610
  345loPI   C3A 5513   0.039   1.214   8.012 -0.1242  0.0315  0.3362
  345loPI   C4A 5514  -0.261   1.054   7.657  0.1190 -0.0710 -0.3959
  345loPI   C5A 5515  -0.440   0.965   7.409 -0.0237  0.4337  0.0346
  345loPI   C6A 5516  -0.565   1.183   7.089  0.1781 -0.1840  0.1755
  345loPI   C1B 5517   0.588   1.024   8.712 -0.2051 -0.1804 -0.1217
  345loPI   C2B 5518   0.707   0.788   8.419  0.0237  0.2955 -0.2442
  345loPI   C3B 5519   0.896   0.964   8.049  0.0632  0.1725 -0.0373
  345loPI   C4B 5520   0.880   0.862   7.546  0.0485  0.1297 -0.1774
  346loPI    C1 5521   7.587  10.532   9.896  0.0663  0.1266 -0.0283
  346loPI    C2 5522   7.499  10.156  10.001 -0.1736  0.1538 -0.1253
  346loPI    C3 5523   7.732  10.380  10.236  0.1484 -0.1238 -0.1727
  346loPI   PO4 5524   7.508  10.525   9.643  0.2043 -0.0080  0.1546
  346loPI   GL1 5525   7.371  10.540   9.245 -0.0345  0.0264  0.0722
  346loPI   GL2 5526   7.551  10.286   9.034 -0.1436 -0.1327  0.3219
  346loPI   C1A 5527   7.189  10.537   8.763  0.0814  0.2032  0.2242
  346loPI   C2A 5528   7.315  10.333   8.373  0.0956 -0.0309 -0.1283
  346loPI   C3A 5529   7.361  10.118   8.008  0.1099  0.1891  0.0251
  346loPI   C4A 5530   7.602   9.937   7.692  0.0388 -0.0158 -0.0879
  346loPI   C5A 5531   7.540   9.525   7.488 -0.0549  0.1315  0.1369
  346loPI   C6A 5532   7.136   9.391   7.259  0.1199 -0.3535  0.2724
  346loPI   C1B 5533   7.790  10.503   8.760 -0.1869 -0.1346 -0.1677
  346loPI   C2B 5534   7.946  10.549   8.401  0.1437  0.3354  0.1031
  346loPI   C3B 5535   8.279  10.458   8.187 -0.1411  0.2491  0.0411
  346loPI   C4B 5536   8.506  10.393   7.876 -0.4797  0.1143 -0.0226
  347loPI    C1 5537   5.796  13.226  10.083  0.0206  0.0274 -0.0876
  347loPI    C2 5538   5.809  12.843   9.968 -0.1409  0.0148 -0.0662
  347loPI    C3 5539   5.675  12.938  10.333 -0.1398  0.0948 -0.0864
  347loPI   PO4 5540   5.795  13.327   9.787  0.0114 -0.0316  0.0321
  347loPI   GL1 5541   5.662  13.446   9.399 -0.1870  0.0388  0.0867
  347loPI   GL2 5542   5.343  13.475   9.446 -0.1422  0.0746 -0.2206
  347loPI   C1A 5543   5.880  13.498   9.021  0.2648  0.0188 -0.3194
  347loPI   C2A 5544   6.012  13.530   8.588 -0.3537 -0.2449  0.2108
  347loPI   C3A 5545   5.797  13.600   8.287 -0.0519  0.2293  0.0786
  347loPI   C4A 5546   5.984  13.484   7.872 -0.0976 -0.3832 -0.2033
  347loPI   C5A 5547   5.926  13.370   7.457 -0.1153  0.0854 -0.0308
  347loPI   C6A 5548   5.696  13.320   7.107 -0.3197 -0.0792  0.3389
  347loPI   C1B 5549   5.022  13.668   9.186  0.0108  0.2212  0.0615
  347loPI   C2B 5550   4.927  13.693   8.709 -0.2941  0.1036  0.0228
  347loPI   C3B 5551   4.766  13.526   8.371  0.2493  0.1187  0.5680
  347loPI   C4B 5552   4.565  13.366   7.938 -0.1960 -0.0814 -0.5101
  348loPI    C1 5553   8.516   8.182   9.549  0.2594 -0.2034 -0.0370
  348loPI    C2 5554   8.642   8.289   9.913 -0.1323  0.2240 -0.0176
  348loPI    C3 5555   8.702   8.532   9.601 -0.1890  0.0618 -0.1563
  348loPI   PO4 5556   8.553   7.947   9.518  0.0532  0.0401  0.0991
  348loPI   GL1 5557   8.397   7.660   9.241 -0.4220  0.0108 -0.0321
  348loPI   GL2 5558   8.393   7.529   8.859  0.0655  0.2146  0.1378
  348loPI   C1A 5559   8.646   7.951   8.878 -0.3824 -0.0999  0.1044
  348loPI   C2A 5560   8.541   7.963   8.520  0.1182 -0.2026  0.0139
  348loPI   C3A 5561   8.438   7.924   8.019 -0.0976  0.1393  0.1296
  348loPI   C4A 5562   8.596   7.689   7.663  0.3043  0.1099  0.0458
  348loPI   C5A 5563   8.784   7.418   7.287 -0.2043  0.2588 -0.0862
  348loPI   C6A 5564   8.784   6.973   7.189  0.2085  0.2279 -0.1449
  348loPI   C1B 5565   8.337   7.520   8.367 -0.1793  0.0611 -0.2405
  348loPI   C2B 5566   8.104   7.497   7.873  0.0955  0.1640 -0.3894
  348loPI   C3B 5567   8.102   7.668   7.510  0.1787 -0.0579 -0.1856
  348loPI   C4B 5568   8.338   8.053   7.370 -0.0447 -0.1941 -0.3657
  349loPI    C1 5569  14.395   0.630  10.545  0.0597  0.2638 -0.2701
  349loPI    C2 5570  14.067   0.406  10.493  0.1613  0.0771 -0.1213
  349loPI    C3 5571  14.033   0.796  10.577 -0.0310 -0.0093  0.2202
  349loPI   PO4 5572  14.552   0.453  10.209 -0.0380 -0.1563 -0.0962
  349loPI   GL1 5573  14.703   0.327   9.810 -0.0853  0.2141 -0.1417
  349loPI   GL2 5574  14.440   0.680   9.690  0.0944  0.0424 -0.0015
  349loPI   C1A 5575  14.919   0.262   9.503  0.0743 -0.0393  0.4682
  349loPI   C2A 5576  14.962   0.308   9.060 -0.0812  0.0526 -0.1439
  349loPI   C3A 5577  14.994   0.289   8.568 -0.2009  0.0161  0.0975
  349loPI   C4A 5578  14.970   0.069   8.156  0.1256 -0.1821 -0.1031
  349loPI   C5A 5579  14.910  -0.046   7.689 -0.1604  0.0776  0.1723
  349loPI   C6A 5580  14.628   0.052   7.412  0.0826  0.3165 -0.0945
  349loPI   C1B 5581  14.549   0.531   9.230 -0.0195  0.0285  0.1402
  349loPI   C2B 5582  14.520   0.471   8.727 -0.0148  0.0777 -0.0121
  349loPI   C3B 5583  14.566   0.567   8.211  0.0823  0.1863  0.1931
  349loPI   C4B 5584  14.801   0.588   7.848 -0.5297 -0.0660 -0.0306
  350loPI    C1 5585   6.844  17.667  10.140  0.1491  0.2478  0.2299
  350loPI    C2 5586   6.449  17.621  10.093  0.2035 -0.0721  0.0532
  350loPI    C3 5587   6.613  17.582  10.455  0.0846 -0.0229  0.1128
  350loPI   PO4 5588   6.893  17.662   9.871  0.2903  0.2262 -0.1776
  350loPI   GL1 5589   6.828  17.381   9.479 -0.1078  0.0788 -0.0696
  350loPI   GL2 5590   6.513  17.412   9.680 -0.0880  0.1666  0.5043
  350loPI   C1A 5591   6.851  17.267   9.046 -0.0686 -0.0226  0.0896
  350loPI   C2A 5592   6.788  17.134   8.588  0.0750 -0.1254  0.1643
  350loPI   C3A 5593   6.783  17.347   8.294  0.0758 -0.2770 -0.1028
  350loPI   C4A 5594   6.911  17.547   7.951  0.1169  0.1147  0.3218
  350loPI   C5A 5595   6.877  17.522   7.487  0.0041  0.1590  0.1326
  350loPI   C6A 5596   6.922  17.533   7.038  0.2303 -0.0478  0.0363
  350loPI   C1B 5597   6.484  17.663   9.250  0.0895  0.0785  0.0528
  350loPI   C2B 5598   6.392  17.664   8.809  0.0830 -0.0614 -0.2415
  350loPI   C3B 5599   6.430  17.658   8.432 -0.3862  0.2735  0.2018
  350loPI   C4B 5600   6.409  17.543   8.047 -0.1059 -0.0145 -0.3557
  351loPI    C1 5601  11.197   9.033   9.792 -0.4205  0.0064 -0.0086
  351loPI    C2 5602  10.995   8.823  10.066 -0.1559 -0.1012  0.1062
  351loPI    C3 5603  11.272   8.643   9.840 -0.1251  0.0640  0.0113
  351loPI   PO4 5604  11.098   9.189   9.641 -0.0548  0.0001 -0.0623
  351loPI   GL1 5605  11.133   9.315   9.194  0.3267 -0.1400 -0.1153
  351loPI   GL2 5606  10.946   9.606   9.007 -0.2871 -0.1266 -0.0338
  351loPI   C1A 5607  11.328   9.052   8.834 -0.0235  0.3119  0.2732
  351loPI   C2A 5608  11.249   9.176   8.335  0.1306 -0.0820  0.0205
  351loPI   C3A 5609  11.381   8.965   8.004  0.1408 -0.1332  0.0524
  351loPI   C4A 5610  11.428   8.815   7.634  0.1367 -0.2239  0.2370
  351loPI   C5A 5611  11.540   8.587   7.245 -0.1059  0.0072 -0.0273
  351loPI   C6A 5612  11.255   8.478   6.785  0.4052  0.1879  0.2653
  351loPI   C1B 5613  10.892   9.897   8.718  0.1626  0.0787 -0.2107
  351loPI   C2B 5614  10.746  10.006   8.355 -0.1630  0.4209 -0.0348
  351loPI   C3B 5615  10.516  10.096   8.186 -0.2762 -0.1311  0.0119
  351loPI   C4B 5616  10.102  10.049   8.252  0.0245  0.2640  0.1039
  352loPI    C1 5617   2.086  15.519  10.089 -0.0820 -0.2437 -0.2098
  352loPI    C2 5618   2.314  15.203  10.177  0.0768 -0.1158 -0.1574
  352loPI    C3 5619   2.010  15.302  10.417  0.2796  0.0123  0.0513
  352loPI   PO4 5620   2.015  15.444   9.824 -0.0991 -0.5165  0.0358
  352loPI   GL1 5621   1.977  15.543   9.423 -0.0786  0.1640  0.0375
  352loPI   GL2 5622   2.236  15.811   9.484 -0.1003 -0.3830  0.3103
  352loPI   C1A 5623   1.772  15.598   9.093 -0.0637  0.1406  0.2222
  352loPI   C2A 5624   1.524  15.426   8.835  0.3862  0.0815  0.0731
  352loPI   C3A 5625   1.579  15.199   8.577  0.0093 -0.0727 -0.1165
  352loPI   C4A 5626   1.873  15.082   8.240 -0.2903  0.0070  0.0313
  352loPI   C5A 5627   2.039  14.873   7.919  0.0485  0.0501  0.3146
  352loPI   C6A 5628   2.243  14.784   7.594 -0.0267 -0.3842 -0.1589
  352loPI   C1B 5629   2.141  15.890   9.037  0.1115  0.0702 -0.2026
  352loPI   C2B 5630   1.913  16.316   8.865 -0.0401 -0.0524 -0.0971
  352loPI   C3B 5631   1.940  16.508   8.416 -0.0328  0.0186 -0.1733
  352loPI   C4B 5632   1.865  16.389   8.014 -0.0330  0.1566 -0.1122
  353loPI    C1 5633  10.076  16.211  10.327  0.1190  0.0345 -0.0342
  353loPI    C2 5634  10.095  16.252  10.725 -0.1374  0.1731 -0.0339
  353loPI    C3 5635  10.423  16.308  10.502  0.1274 -0.3856  0.1956
  353loPI   PO4 5636   9.969  16.094  10.252 -0.2255 -0.1060  0.0388
  353loPI   GL1 5637   9.933  15.870   9.815  0.0710 -0.0583  0.1963
  353loPI   GL2 5638  10.052  16.166   9.770 -0.1001  0.0407  0.0773
  353loPI   C1A 5639   9.899  15.864   9.357  0.4426 -0.0058  0.0503
  353loPI   C2A 5640   9.712  16.011   9.062 -0.0050  0.1908  0.2414
  353loPI   C3A 5641   9.684  15.939   8.679 -0.3225 -0.0045 -0.3655
  353loPI   C4A 5642   9.909  15.758   8.465 -0.2591 -0.1568  0.2521
  353loPI   C5A 5643  10.101  15.611   8.146  0.2155  0.1924  0.2089
  353loPI   C6A 5644  10.311  15.316   8.045  0.0891 -0.0509 -0.1495
  353loPI   C1B 5645  10.246  16.330   9.316 -0.2842 -0.0734 -0.0002
  353loPI   C2B 5646  10.370  16.601   8.911  0.0509 -0.2170 -0.2561
  353loPI   C3B 5647  10.420  16.725   8.546 -0.1157  0.2547 -0.1335
  353loPI   C4B 5648  10.338  16.704   8.164  0.2102  0.0539 -0.1739
  354loPI    C1 5649  14.535   9.853   9.909  0.0018  0.2824 -0.1653
  354loPI    C2 5650  14.893   9.792  10.076 -0.0607 -0.0146 -0.1348
  354loPI    C3 5651  14.573   9.854  10.307 -0.0641  0.0509 -0.1569
  354loPI   PO4 5652  14.573  10.043   9.766 -0.2709 -0.1866  0.2724
  354loPI   GL1 5653  14.539  10.127   9.406  0.0352 -0.0285  0.0992
  354loPI   GL2 5654  14.908   9.961   9.219  0.1474  0.2258 -0.0957
  354loPI   C1A 5655  14.411  10.072   8.855 -0.2909 -0.0439 -0.0835
  354loPI   C2A 5656  14.496  10.182   8.498  0.1274  0.1536  0.1197
  354loPI   C3A 5657  14.853  10.331   8.379 -0.2183  0.0932 -0.0626
  354loPI   C4A 5658  15.071  10.323   7.997  0.0048 -0.0894 -0.2122
  354loPI   C5A 5659  15.173  10.075   7.590 -0.0347  0.1576 -0.0663
  354loPI   C6A 5660  15.404   9.912   7.426 -0.3128  0.1058  0.2520
  354loPI   C1B 5661  14.934  10.078   8.835 -0.1395 -0.0429 -0.1261
  354loPI   C2B 5662  15.227   9.992   8.529 -0.0039 -0.2936  0.2978
  354loPI   C3B 5663  15.161   9.856   8.067  0.3648 -0.1639 -0.1522
  354loPI   C4B 5664  15.288   9.616   7.777  0.2255 -0.1162  0.0366
  355loPI    C1 5665  17.704   2.115   9.969 -0.0441  0.0890  0.1127
  355loPI    C2 5666  17.957   1.853   9.803 -0.1450  0.1584 -0.1545
  355loPI    C3 5667  17.820   1.791  10.174  0.0985  0.0118 -0.0872
  355loPI   PO4 5668  17.669   2.263   9.749  0.0616 -0.2175  0.1428
  355loPI   GL1 5669  17.895   2.215   9.388  0.2238 -0.0454 -0.0270
  355loPI   GL2 5670  18.075   2.045   9.371  0.2231 -0.1470  0.3931
  355loPI   C1A 5671  17.602   2.030   9.129  0.1393  0.2405  0.1323
  355loPI   C2A 5672  17.499   1.988   8.756  0.0322 -0.1451  0.1761
  355loPI   C3A 5673  17.455   1.904   8.249  0.1489 -0.0716  0.1641
  355loPI   C4A 5674  17.458   1.510   8.060  0.1871 -0.0683 -0.0859
  355loPI   C5A 5675  17.374   1.193   7.829 -0.0179 -0.2855  0.2593
  355loPI   C6A 5676  17.253   0.880   7.507 -0.0385  0.0155  0.1872
  355loPI   C1B 5677  18.088   1.927   8.939  0.0207  0.0007  0.0647
  355loPI   C2B 5678  18.212   1.585   8.676  0.0158 -0.0029  0.0480
  355loPI   C3B 5679  18.386   1.474   8.253  0.1405 -0.0255  0.3315
  355loPI   C4B 5680  18.301   1.045   8.209 -0.3228  0.0460 -0.0309
  356loPI    C1 5681  15.511   0.768  10.307  0.0088  0.0409  0.1088
  356loPI    C2 5682  15.798   0.621  10.543 -0.1906 -0.2586  0.1703
  356loPI    C3 5683  15.462   0.766  10.704  0.0432  0.3756  0.1180
  356loPI   PO4 5684  15.439   0.565  10.139 -0.0504  0.0935 -0.0044
  356loPI   GL1 5685  15.409   0.578   9.774  0.0425 -0.0283  0.0091
  356loPI   GL2 5686  15.608   0.211   9.691  0.3669  0.0065  0.1790
  356loPI   C1A 5687  15.184   0.660   9.342  0.1213  0.1186 -0.1343
  356loPI   C2A 5688  15.454   0.715   8.922 -0.1228  0.2589 -0.1575
  356loPI   C3A 5689  15.480   0.689   8.459  0.0395 -0.3437  0.2681
  356loPI   C4A 5690  15.425   0.643   8.051 -0.2491  0.1974  0.3136
  356loPI   C5A 5691  15.355   0.785   7.633 -0.2615 -0.0425 -0.3041
  356loPI   C6A 5692  14.957   0.873   7.463 -0.3690 -0.4186 -0.0662
  356loPI   C1B 5693  15.849  -0.013   9.395  0.2994  0.0828 -0.0584
  356loPI   C2B 5694  16.146   0.024   9.150  0.0386  0.2833  0.0465
  356loPI   C3B 5695  16.023   0.152   8.661  0.1887  0.0207 -0.0838
  356loPI   C4B 5696  16.097   0.224   8.325 -0.1222 -0.0641  0.2719
  357loPI    C1 5697   4.412   6.850  10.091 -0.2375  0.1709  0.0760
  357loPI    C2 5698   4.701   7.121  10.146 -0.1534  0.0687  0.1408
  357loPI    C3 5699   4.339   7.179  10.306 -0.2189  0.2765 -0.0776
  357loPI   PO4 5700   4.399   6.763   9.769  0.0023  0.2083  0.2615
  357loPI   GL1 5701   4.293   6.662   9.347 -0.0305  0.3191  0.0905
  357loPI   GL2 5702   4.212   7.002   9.336 -0.0021 -0.0268 -0.0007
  357loPI   C1A 5703   4.276   6.419   8.996 -0.0274  0.1332  0.0757
  357loPI   C2A 5704   4.469   6.361   8.525 -0.0492 -0.0767  0.0547
  357loPI   C3A 5705   4.835   6.173   8.300  0.0280 -0.1035 -0.0469
  357loPI   C4A 5706   5.195   6.268   7.958  0.0223  0.0875 -0.0458
  357loPI   C5A 5707   5.156   6.136   7.554  0.2613 -0.0652 -0.0806
  357loPI   C6A 5708   5.052   5.913   7.240  0.0829  0.1654  0.2918
  357loPI   C1B 5709   4.479   6.852   8.958 -0.1090 -0.3341 -0.1325
  357loPI   C2B 5710   4.508   6.888   8.479 -0.3269  0.2389  0.3367
  357loPI   C3B 5711   4.683   7.117   8.140 -0.0824 -0.3308  0.2335
  357loPI   C4B 5712   4.410   7.369   7.929 -0.0582  0.4066  0.1847
  358loPI    C1 5713  14.896  14.370  10.343  0.0296  0.0286  0.1439
  358loPI    C2 5714  14.676  14.176  10.616 -0.1387 -0.0613 -0.0531
  358loPI    C3 5715  15.073  14.205  10.662 -0.1265 -0.3486  0.0403
  358loPI   PO4 5716  14.779  14.310  10.114  0.2578  0.0032  0.3702
  358loPI   GL1 5717  14.710  14.219   9.666 -0.2488  0.3223  0.0056
  358loPI   GL2 5718  14.598  14.325   9.405  0.0564 -0.2300  0.0462
  358loPI   C1A 5719  14.698  13.937   9.144  0.0794  0.2367  0.1870
  358loPI   C2A 5720  14.819  13.986   8.732 -0.2535  0.2260  0.0469
  358loPI   C3A 5721  15.033  13.923   8.381 -0.1100  0.0868  0.2780
  358loPI   C4A 5722  15.161  13.902   8.016  0.1387 -0.0100  0.0740
  358loPI   C5A 5723  15.401  13.684   7.689  0.1655  0.0467  0.4997
  358loPI   C6A 5724  15.856  13.534   7.518  0.1173  0.1050 -0.1247
  358loPI   C1B 5725  14.600  14.491   9.020 -0.0150 -0.1860 -0.2147
  358loPI   C2B 5726  14.943  14.435   8.716 -0.0682 -0.0167 -0.4449
  358loPI   C3B 5727  15.020  14.410   8.315 -0.1719  0.0851 -0.2863
  358loPI   C4B 5728  14.989  14.333   7.845  0.2748 -0.2193 -0.1384
  359loPI    C1 5729   2.902   8.349  10.120 -0.0974  0.1854  0.0562
  359loPI    C2 5730   3.086   8.557  10.407  0.1115 -0.0962  0.1311
  359loPI    C3 5731   3.030   8.163  10.450  0.0953 -0.1317 -0.1906
  359loPI   PO4 5732   3.052   8.422   9.900  0.0154 -0.0709  0.2714
  359loPI   GL1 5733   3.257   8.502   9.598  0.4485 -0.1574  0.1091
  359loPI   GL2 5734   3.075   8.324   9.388  0.0550 -0.1695  0.2142
  359loPI   C1A 5735   3.239   8.777   9.222  0.2074 -0.0705  0.1901
  359loPI   C2A 5736   3.052   8.889   8.834  0.1150  0.2240  0.0313
  359loPI   C3A 5737   2.985   9.122   8.470 -0.2927  0.3051  0.1438
  359loPI   C4A 5738   2.883   9.193   8.121  0.0291  0.1366 -0.1622
  359loPI   C5A 5739   2.831   9.205   7.655 -0.1199 -0.0906  0.0785
  359loPI   C6A 5740   2.867   8.860   7.404  0.2171  0.4302 -0.0347
  359loPI   C1B 5741   3.092   8.333   9.024 -0.1194 -0.0422 -0.1448
  359loPI   C2B 5742   3.122   8.459   8.647 -0.1168 -0.0383 -0.0394
  359loPI   C3B 5743   2.821   8.648   8.367 -0.2924 -0.3911 -0.1921
  359loPI   C4B 5744   2.527   8.826   8.029  0.0091 -0.0806  0.3257
  360loPI    C1 5745   3.828   1.300   9.646  0.1021  0.2389  0.0003
  360loPI    C2 5746   3.654   1.451   9.973 -0.1029  0.2271 -0.1020
  360loPI    C3 5747   3.557   1.084   9.845  0.1478  0.1391 -0.0449
  360loPI   PO4 5748   3.826   1.435   9.435 -0.2322 -0.0155  0.0816
  360loPI   GL1 5749   3.544   1.376   9.048  0.2304  0.1658  0.0118
  360loPI   GL2 5750   3.560   1.728   9.156  0.1613  0.2188 -0.1945
  360loPI   C1A 5751   3.552   1.329   8.589 -0.1162  0.2511  0.0875
  360loPI   C2A 5752   3.693   1.097   8.252 -0.1574 -0.1627  0.1081
  360loPI   C3A 5753   3.515   1.107   7.915 -0.2365 -0.0500 -0.0432
  360loPI   C4A 5754   3.212   0.986   7.683  0.0063  0.0843  0.1011
  360loPI   C5A 5755   2.882   0.783   7.350 -0.1164 -0.2610 -0.3620
  360loPI   C6A 5756   2.789   0.630   6.902  0.0068 -0.0533 -0.0038
  360loPI   C1B 5757   3.715   1.753   8.716 -0.1058  0.3470 -0.0748
  360loPI   C2B 5758   3.850   1.663   8.231 -0.2899 -0.1662 -0.2414
  360loPI   C3B 5759   3.777   1.536   7.815 -0.1213  0.2367 -0.2330
  360loPI   C4B 5760   3.383   1.520   7.605  0.1419  0.0219 -0.2320
  361loPI    C1 5761  16.982   6.684  10.051  0.1389  0.3069 -0.0549
  361loPI    C2 5762  17.171   7.022   9.948  0.2156  0.2677 -0.0430
  361loPI    C3 5763  17.275   6.828  10.283  0.3319  0.1065 -0.1707
  361loPI   PO4 5764  16.951   6.559   9.718  0.0654 -0.1393 -0.3723
  361loPI   GL1 5765  17.204   6.702   9.312 -0.2889 -0.0285  0.0306
  361loPI   GL2 5766  17.330   6.855   8.946 -0.0907  0.1100  0.1216
  361loPI   C1A 5767  16.885   6.669   8.885 -0.0569  0.1589 -0.2124
  361loPI   C2A 5768  16.772   6.576   8.498  0.0289 -0.2089  0.0265
  361loPI   C3A 5769  16.734   6.350   8.133  0.2037 -0.1891 -0.2536
  361loPI   C4A 5770  16.954   6.223   7.815  0.1654  0.0233 -0.1501
  361loPI   C5A 5771  17.290   6.290   7.622 -0.0454 -0.3563  0.2142
  361loPI   C6A 5772  17.654   6.180   7.359  0.1057 -0.0157  0.0069
  361loPI   C1B 5773  17.233   6.848   8.527  0.0162  0.1600 -0.2173
  361loPI   C2B 5774  17.160   6.543   8.174  0.0383  0.3165  0.1150
  361loPI   C3B 5775  16.971   6.719   7.831  0.3402  0.0092 -0.0526
  361loPI   C4B 5776  16.771   6.978   7.421  0.2286 -0.0937 -0.1984
  362loPI    C1 5777  11.509  10.962   9.732 -0.0082  0.1315  0.0443
  362loPI    C2 5778  11.698  11.121  10.047  0.0670  0.0216  0.0556
  362loPI    C3 5779  11.328  10.974  10.088  0.0496  0.0710  0.0763
  362loPI   PO4 5780  11.560  11.197   9.563 -0.0735  0.0267  0.0007
  362loPI   GL1 5781  11.299  11.235   9.131  0.1789 -0.4688 -0.3944
  362loPI   GL2 5782  11.174  10.960   8.902  0.1856  0.3317 -0.0262
  362loPI   C1A 5783  10.937  11.355   8.837 -0.2716 -0.1783 -0.1011
  362loPI   C2A 5784  10.714  11.336   8.458  0.0273  0.0910  0.2533
  362loPI   C3A 5785  10.682  11.082   8.135  0.0158 -0.2426  0.1386
  362loPI   C4A 5786  10.558  10.945   7.789 -0.1143  0.0520  0.0118
  362loPI   C5A 5787  10.438  10.671   7.495  0.0003 -0.2514  0.1557
  362loPI   C6A 5788  10.531  10.640   7.012  0.0094  0.2028 -0.1456
  362loPI   C1B 5789  11.099  11.013   8.435  0.1900 -0.1904  0.1938
  362loPI   C2B 5790  11.222  10.988   8.005  0.1914  0.1386  0.2096
  362loPI   C3B 5791  11.054  10.944   7.617  0.1207  0.2280  0.0026
  362loPI   C4B 5792  10.708  11.099   7.250 -0.1187 -0.3402 -0.3625
  363loPI    C1 5793   6.354   1.922   9.707 -0.0688  0.1195 -0.1163
  363loPI    C2 5794   6.180   2.025  10.052 -0.1091  0.3229 -0.1959
  363loPI    C3 5795   6.578   1.990  10.032 -0.1354 -0.1541 -0.0107
  363loPI   PO4 5796   6.143   2.098   9.489  0.0060  0.2532 -0.1040
  363loPI   GL1 5797   6.019   2.235   9.079  0.2134 -0.1267 -0.0700
  363loPI   GL2 5798   6.280   2.407   8.970 -0.1832  0.0598  0.1829
  363loPI   C1A 5799   5.991   1.968   8.804  0.0818  0.1183  0.1391
  363loPI   C2A 5800   5.884   1.654   8.425 -0.1572 -0.0535  0.1682
  363loPI   C3A 5801   5.844   1.616   8.009  0.1628 -0.2806 -0.5219
  363loPI   C4A 5802   6.088   1.603   7.617 -0.0982  0.0597 -0.2561
  363loPI   C5A 5803   6.324   1.239   7.361 -0.1764  0.1316  0.2742
  363loPI   C6A 5804   6.631   1.144   6.991 -0.0700 -0.1773  0.1748
  363loPI   C1B 5805   6.199   2.509   8.592  0.2492  0.1740  0.0636
  363loPI   C2B 5806   6.149   2.708   8.222  0.2793  0.2696  0.3245
  363loPI   C3B 5807   6.293   2.582   7.798 -0.2165  0.1322  0.4166
  363loPI   C4B 5808   6.290   2.323   7.437  0.2608  0.0520 -0.2681
  364loPI    C1 5809  16.583  15.307  10.082 -0.0059 -0.0815  0.1380
  364loPI    C2 5810  16.479  15.639  10.278 -0.3980 -0.1394  0.0371
  364loPI    C3 5811  16.485  15.287  10.469 -0.0002 -0.0816  0.1393
  364loPI   PO4 5812  16.665  15.401   9.839  0.2052 -0.0463 -0.0955
  364loPI   GL1 5813  16.841  15.440   9.471  0.2636  0.0490  0.0620
  364loPI   GL2 5814  16.827  15.065   9.378  0.2090 -0.4663 -0.0034
  364loPI   C1A 5815  16.626  15.588   9.063 -0.1834  0.0732  0.1996
  364loPI   C2A 5816  16.835  15.634   8.721  0.1171 -0.0993  0.2935
  364loPI   C3A 5817  16.949  15.604   8.290  0.0201 -0.0123  0.1162
  364loPI   C4A 5818  17.004  15.606   7.844 -0.0517 -0.0865 -0.1617
  364loPI   C5A 5819  16.829  15.883   7.494 -0.0385 -0.0455  0.0293
  364loPI   C6A 5820  16.788  15.951   7.019  0.0645 -0.0174  0.0633
  364loPI   C1B 5821  16.937  15.143   9.049  0.1796 -0.0257  0.2494
  364loPI   C2B 5822  17.131  15.196   8.584  0.1273  0.0680  0.0827
  364loPI   C3B 5823  17.204  15.238   8.156  0.1421  0.0757 -0.0407
  364loPI   C4B 5824  16.977  15.008   7.861  0.2898  0.2311  0.3963
  365loPI    C1 5825   7.653   7.884   9.896  0.0933 -0.0459 -0.0773
  365loPI    C2 5826   7.421   7.616  10.083 -0.1091  0.0483 -0.1896
  365loPI    C3 5827   7.583   7.919  10.288 -0.1404  0.0200 -0.1229
  365loPI   PO4 5828   7.486   7.877   9.681  0.5871 -0.1150  0.1146
  365loPI   GL1 5829   7.393   7.806   9.241  0.0216  0.0292 -0.2585
  365loPI   GL2 5830   7.448   7.564   9.110 -0.1975  0.1421  0.1956
  365loPI   C1A 5831   7.129   8.071   8.942 -0.0652  0.1723 -0.1169
  365loPI   C2A 5832   7.010   8.077   8.577  0.1765  0.2929  0.1100
  365loPI   C3A 5833   6.870   8.097   8.102 -0.1045  0.2547 -0.3327
  365loPI   C4A 5834   6.684   8.058   7.689 -0.2155 -0.1776  0.0494
  365loPI   C5A 5835   6.427   8.167   7.264 -0.1290 -0.1334  0.2968
  365loPI   C6A 5836   6.175   8.385   6.952  0.0470  0.0674 -0.0050
  365loPI   C1B 5837   7.345   7.633   8.704  0.1590  0.1167  0.2035
  365loPI   C2B 5838   7.254   7.718   8.294  0.2003 -0.1414 -0.2304
  365loPI   C3B 5839   7.232   7.799   7.875 -0.1779 -0.0023  0.1340
  365loPI   C4B 5840   7.255   7.974   7.430  0.1982  0.0035  0.1373
  366loPI    C1 5841  17.439  16.936  10.361  0.0404 -0.0369 -0.0373
  366loPI    C2 5842  17.532  17.245  10.598  0.4954 -0.1546 -0.0540
  366loPI    C3 5843  17.465  16.885  10.757  0.0268 -0.0678 -0.0404
  366loPI   PO4 5844  17.398  17.081  10.181 -0.2983 -0.0466 -0.1089
  366loPI   GL1 5845  17.488  17.130   9.729 -0.0686 -0.2660  0.1508
  366loPI   GL2 5846  17.753  16.887   9.651 -0.0372 -0.1179 -0.2795
  366loPI   C1A 5847  17.600  17.283   9.337 -0.1551  0.3715  0.2306
  366loPI   C2A 5848  17.625  17.221   8.876  0.1257  0.2165 -0.0449
  366loPI   C3A 5849  17.766  16.990   8.557 -0.1383 -0.0532 -0.1791
  366loPI   C4A 5850  17.940  16.860   8.138 -0.2553 -0.5113 -0.0967
  366loPI   C5A 5851  18.235  16.888   7.752 -0.2272  0.0179  0.1931
  366loPI   C6A 5852  18.697  16.908   7.676  0.1504  0.1321 -0.3940
  366loPI   C1B 5853  17.541  16.744   9.196  0.0991  0.0652 -0.2140
  366loPI   C2B 5854  17.357  16.720   8.768  0.2189  0.1909  0.2945
  366loPI   C3B 5855  17.519  16.554   8.320 -0.0748 -0.1379  0.0141
  366loPI   C4B 5856  17.550  16.451   7.920  0.3646 -0.0502  0.1036
  367loPI    C1 5857  16.823   6.000  10.073  0.0778  0.0817  0.1577
  367loPI    C2 5858  16.466   5.888   9.932  0.1381  0.1066 -0.0174
  367loPI    C3 5859  16.491   6.085  10.279 -0.0020 -0.0633  0.0906
  367loPI   PO4 5860  16.938   6.078   9.781 -0.1411 -0.1552 -0.3274
  367loPI   GL1 5861  17.276   6.215   9.542 -0.0878  0.1471  0.0264
  367loPI   GL2 5862  17.048   6.210   9.313  0.0312 -0.0271  0.0615
  367loPI   C1A 5863  17.458   6.279   9.068 -0.0641  0.0993 -0.1287
  367loPI   C2A 5864  17.737   6.575   8.863  0.0270  0.0002 -0.3860
  367loPI   C3A 5865  18.216   6.706   8.682 -0.2033 -0.0227  0.1475
  367loPI   C4A 5866  18.673   6.497   8.701  0.1938 -0.0355 -0.2513
  367loPI   C5A 5867  18.874   6.365   8.292  0.1111  0.3090  0.0112
  367loPI   C6A 5868  18.950   6.466   7.916  0.1091  0.0893  0.1360
  367loPI   C1B 5869  17.075   5.892   9.033  0.3076  0.0946 -0.0513
  367loPI   C2B 5870  17.438   5.763   8.737 -0.0767 -0.0757  0.1619
  367loPI   C3B 5871  17.530   5.805   8.146 -0.2209 -0.3116  0.0280
  367loPI   C4B 5872  17.593   6.287   8.017 -0.0560 -0.2425 -0.0032
  368loPI    C1 5873   6.319   0.550   9.642  0.2029  0.1373  0.0556
  368loPI    C2 5874   6.505   0.413   9.968 -0.0848  0.0663  0.1935
  368loPI    C3 5875   6.326   0.770   9.976  0.1323  0.1812  0.0285
  368loPI   PO4 5876   6.208   0.357   9.555  0.3506 -0.2001  0.5738
  368loPI   GL1 5877   5.892   0.208   9.334 -0.1540 -0.0898  0.0214
  368loPI   GL2 5878   5.757   0.480   9.296 -0.0559  0.0265 -0.0054
  368loPI   C1A 5879   6.087   0.249   8.897  0.0776  0.1836 -0.1224
  368loPI   C2A 5880   6.226   0.441   8.639  0.0157 -0.4835 -0.0594
  368loPI   C3A 5881   6.658   0.337   8.397 -0.0887  0.1376  0.1133
  368loPI   C4A 5882   6.998   0.349   8.226  0.0636  0.1346  0.0750
  368loPI   C5A 5883   7.299   0.340   8.216 -0.0708 -0.2418  0.3216
  368loPI   C6A 5884   7.508   0.118   8.362 -0.0431 -0.0429 -0.0972
  368loPI   C1B 5885   6.043   0.738   9.028 -0.0934 -0.0261  0.0987
  368loPI   C2B 5886   5.984   1.004   8.666 -0.0374 -0.1416 -0.0668
  368loPI   C3B 5887   5.889   1.211   8.245 -0.2217  0.2145  0.0425
  368loPI   C4B 5888   6.067   1.137   7.755  0.0652 -0.0033  0.1768
  369loPI    C1 5889  12.850   1.932  10.409  0.4117  0.1530 -0.3167
  369loPI    C2 5890  13.057   1.811  10.729 -0.0557  0.0256 -0.0532
  369loPI    C3 5891  13.107   2.182  10.588  0.1066  0.1066  0.2091
  369loPI   PO4 5892  12.861   1.739  10.188 -0.1215  0.0701  0.4069
  369loPI   GL1 5893  13.020   1.682   9.873 -0.1434  0.1843 -0.2142
  369loPI   GL2 5894  13.263   1.824   9.716  0.2302  0.6406  0.0949
  369loPI   C1A 5895  12.828   1.520   9.546  0.2664  0.2374 -0.2126
  369loPI   C2A 5896  12.601   1.466   9.214  0.0331  0.1930 -0.1593
  369loPI   C3A 5897  12.573   1.245   8.809 -0.0777 -0.2042 -0.2003
  369loPI   C4A 5898  12.547   1.146   8.361 -0.0156 -0.2411 -0.1611
  369loPI   C5A 5899  12.580   1.148   7.919 -0.1069 -0.0092  0.2601
  369loPI   C6A 5900  12.782   0.908   7.550 -0.0367 -0.1440 -0.0273
  369loPI   C1B 5901  13.122   1.938   9.293  0.1828  0.1000 -0.1912
  369loPI   C2B 5902  13.145   2.114   8.834 -0.1654 -0.0950  0.0278
  369loPI   C3B 5903  13.239   2.083   8.392  0.1009 -0.2572 -0.3540
  369loPI   C4B 5904  13.168   2.079   7.953 -0.1314 -0.1520  0.2034
  370loPI    C1 5905   0.952   5.432  10.160  0.1481  0.0656 -0.0071
  370loPI    C2 5906   1.082   5.124  10.380  0.1135 -0.0684 -0.1722
  370loPI    C3 5907   1.214   5.494  10.456  0.0076 -0.0944  0.1531
  370loPI   PO4 5908   0.959   5.398   9.930  0.1907 -0.1124  0.2031
  370loPI   GL1 5909   1.083   5.567   9.654  0.2483 -0.1721 -0.2419
  370loPI   GL2 5910   0.950   5.780   9.488  0.0354 -0.1634  0.0214
  370loPI   C1A 5911   1.144   5.298   9.228  0.1955  0.1964  0.0396
  370loPI   C2A 5912   1.301   5.044   8.823  0.1419  0.3270  0.4756
  370loPI   C3A 5913   1.386   4.974   8.399  0.1538 -0.4052 -0.0031
  370loPI   C4A 5914   1.751   5.053   8.025 -0.0908 -0.1057 -0.2546
  370loPI   C5A 5915   1.824   5.239   7.546  0.0735  0.3432 -0.0052
  370loPI   C6A 5916   1.765   5.267   7.153 -0.1018 -0.2296 -0.1593
  370loPI   C1B 5917   1.165   5.837   9.137  0.0467  0.0921  0.1140
  370loPI   C2B 5918   1.177   5.964   8.750  0.5193  0.1769 -0.2326
  370loPI   C3B 5919   1.121   6.092   8.413  0.2162  0.0906  0.2782
  370loPI   C4B 5920   1.447   6.353   8.075  0.0664 -0.1010  0.1255
  371loPI    C1 5921  17.563   1.324  10.173 -0.0355  0.0929  0.2772
  371loPI    C2 5922  17.629   1.144  10.524 -0.0705  0.2357  0.3579
  371loPI    C3 5923  17.933   1.309  10.323 -0.0244  0.0124  0.2419
  371loPI   PO4 5924  17.475   1.128  10.001  0.1718 -0.1689  0.0996
  371loPI   GL1 5925  17.361   1.282   9.612 -0.0001 -0.3724  0.1373
  371loPI   GL2 5926  17.006   1.279   9.641  0.0279 -0.1772  0.1099
  371loPI   C1A 5927  17.501   1.176   9.201 -0.1995 -0.0097 -0.3529
  371loPI   C2A 5928  17.593   0.942   8.796 -0.1123 -0.1100  0.0284
  371loPI   C3A 5929  17.484   0.722   8.442 -0.0220  0.2621  0.0441
  371loPI   C4A 5930  17.185   0.792   8.068 -0.2111  0.1089  0.1620
  371loPI   C5A 5931  16.895   0.763   7.916 -0.2363 -0.1257 -0.0472
  371loPI   C6A 5932  16.772   0.977   7.596  0.1337 -0.0826  0.0770
  371loPI   C1B 5933  17.008   1.189   9.220  0.1512 -0.0762 -0.1487
  371loPI   C2B 5934  16.655   1.054   8.939 -0.0372 -0.0401  0.3123
  371loPI   C3B 5935  16.298   1.140   8.696 -0.1566  0.0789 -0.0703
  371loPI   C4B 5936  15.937   1.189   8.505  0.3241  0.1479  0.1803
  372loPI    C1 5937  10.777  15.653  10.524  0.0955  0.0677 -0.4046
  372loPI    C2 5938  11.168  15.739  10.540  0.1254 -0.1351  0.3206
  372loPI    C3 5939  11.024  15.422  10.738 -0.3792 -0.2030 -0.1304
  372loPI   PO4 5940  10.679  15.618  10.237 -0.0061 -0.1602 -0.2116
  372loPI   GL1 5941  10.750  15.674   9.767  0.2291  0.0392 -0.0284
  372loPI   GL2 5942  10.525  15.877   9.526 -0.0306 -0.3861 -0.2039
  372loPI   C1A 5943  10.906  15.646   9.304  0.0513  0.1104  0.0801
  372loPI   C2A 5944  11.196  15.375   9.072 -0.3496 -0.1339  0.1145
  372loPI   C3A 5945  11.129  15.421   8.541 -0.0296  0.3311 -0.1614
  372loPI   C4A 5946  11.005  15.463   8.158  0.1016 -0.1240  0.1757
  372loPI   C5A 5947  10.981  15.476   7.671 -0.0277  0.0496 -0.1680
  372loPI   C6A 5948  11.244  15.413   7.262 -0.2974 -0.1116  0.1930
  372loPI   C1B 5949  10.405  15.795   9.156 -0.0300 -0.2359  0.1354
  372loPI   C2B 5950  10.368  16.026   8.765 -0.0676  0.0239 -0.0120
  372loPI   C3B 5951  10.301  16.231   8.305  0.2519 -0.0316 -0.0441
  372loPI   C4B 5952  10.157  16.049   7.848 -0.2357 -0.0181  0.0637
  373loPI    C1 5953  17.776  14.601  10.144 -0.1024 -0.0391 -0.3904
  373loPI    C2 5954  17.609  14.791  10.455  0.3510  0.0571 -0.1983
  373loPI    C3 5955  17.577  14.394  10.423 -0.0360  0.0886 -0.2464
  373loPI   PO4 5956  18.065  14.639  10.119 -0.2039  0.0773 -0.2499
  373loPI   GL1 5957  18.276  14.625   9.670  0.0001 -0.1908  0.1272
  373loPI   GL2 5958  18.052  14.860   9.620 -0.1320  0.0874  0.0635
  373loPI   C1A 5959  18.377  14.849   9.260 -0.0796 -0.0237 -0.4592
  373loPI   C2A 5960  18.465  14.920   8.772  0.0460 -0.2861 -0.3114
  373loPI   C3A 5961  18.715  15.051   8.471  0.4248  0.2525  0.2065
  373loPI   C4A 5962  18.940  15.105   8.112  0.1249  0.0167 -0.1925
  373loPI   C5A 5963  19.163  15.480   7.958 -0.2137  0.1572  0.0055
  373loPI   C6A 5964  19.002  15.557   7.453  0.1821 -0.1384 -0.2654
  373loPI   C1B 5965  17.724  14.997   9.301  0.1472 -0.0303  0.0136
  373loPI   C2B 5966  17.641  14.772   8.899 -0.1037 -0.0835 -0.1310
  373loPI   C3B 5967  17.631  14.465   8.597 -0.0444 -0.2053 -0.0802
  373loPI   C4B 5968  17.493  14.199   8.247 -0.2224  0.0681  0.2476
  374loPI    C1 5969   7.946   4.529  10.421 -0.0347  0.0263 -0.1819
  374loPI    C2 5970   7.638   4.507  10.675 -0.0622  0.2795 -0.1906
  374loPI    C3 5971   8.010   4.435  10.804 -0.0951  0.2382 -0.1181
  374loPI   PO4 5972   7.774   4.380  10.204 -0.3201  0.1497 -0.1701
  374loPI   GL1 5973   7.944   4.440   9.756 -0.0330  0.2261 -0.0950
  374loPI   GL2 5974   8.047   4.714   9.596 -0.1123 -0.2196 -0.0350
  374loPI   C1A 5975   7.716   4.230   9.379  0.2788 -0.1650 -0.0337
  374loPI   C2A 5976   7.807   3.869   9.130 -0.0247 -0.1524 -0.1200
  374loPI   C3A 5977   7.985   3.733   8.839  0.2519  0.0501 -0.0023
  374loPI   C4A 5978   8.053   3.566   8.357  0.1620 -0.0126  0.1149
  374loPI   C5A 5979   8.027   3.711   8.000  0.0459 -0.0054  0.0129
  374loPI   C6A 5980   7.944   4.123   7.787 -0.0698  0.2654  0.0098
  374loPI   C1B 5981   7.823   4.645   9.221 -0.1030  0.0799 -0.0162
  374loPI   C2B 5982   7.815   4.818   8.817  0.0597  0.1508  0.0667
  374loPI   C3B 5983   7.637   4.954   8.398 -0.1807  0.2536  0.0316
  374loPI   C4B 5984   7.809   5.131   8.056  0.1963 -0.0234  0.2445
  375loPI    C1 5985   0.758  17.450  10.180  0.1731  0.2502 -0.1217
  375loPI    C2 5986   0.849  17.118  10.384 -0.3163  0.0754 -0.1750
  375loPI    C3 5987   0.895  17.477  10.554  0.3458 -0.0037 -0.1645
  375loPI   PO4 5988   0.894  17.443   9.923 -0.0193  0.0623  0.2851
  375loPI   GL1 5989   1.242  17.349   9.669 -0.0659 -0.0925 -0.0682
  375loPI   GL2 5990   1.055  17.137   9.553 -0.3226 -0.1648 -0.0282
  375loPI   C1A 5991   1.260  17.609   9.304  0.3636  0.1647  0.0450
  375loPI   C2A 5992   1.282  17.571   8.858 -0.0904  0.1725  0.1792
  375loPI   C3A 5993   1.303  17.410   8.499  0.0082  0.3020  0.1535
  375loPI   C4A 5994   1.247  17.324   8.066  0.2474 -0.0095  0.0688
  375loPI   C5A 5995   1.553  17.274   7.807 -0.2282  0.1558 -0.0879
  375loPI   C6A 5996   1.744  16.926   7.597  0.0432  0.0424 -0.0886
  375loPI   C1B 5997   1.078  17.001   9.154 -0.1392  0.1153  0.1071
  375loPI   C2B 5998   1.055  16.875   8.759  0.4500 -0.0278  0.1179
  375loPI   C3B 5999   1.035  16.971   8.387  0.1050  0.0166  0.1846
  375loPI   C4B 6000   0.725  17.108   8.060  0.0749 -0.2358 -0.0084
  376loPI    C1 6001  15.991  12.743  10.096 -0.0688  0.0400 -0.0668
  376loPI    C2 6002  15.641  12.613  10.239 -0.0806 -0.0155 -0.1456
  376loPI    C3 6003  15.847  12.891  10.439 -0.0961 -0.0938 -0.0196
  376loPI   PO4 6004  15.913  12.792   9.821 -0.1716 -0.1673  0.0524
  376loPI   GL1 6005  15.780  12.955   9.414 -0.0376 -0.3085  0.0269
  376loPI   GL2 6006  15.586  13.083   9.175  0.0571 -0.1511  0.2536
  376loPI   C1A 6007  15.898  12.707   9.050 -0.0202  0.1873  0.2254
  376loPI   C2A 6008  15.983  12.641   8.602  0.0445 -0.0303  0.1861
  376loPI   C3A 6009  16.056  12.767   8.143  0.0360 -0.1935 -0.1376
  376loPI   C4A 6010  15.852  12.651   7.682  0.0627  0.0900  0.0462
  376loPI   C5A 6011  15.685  12.668   7.287  0.0732  0.2433  0.0943
  376loPI   C6A 6012  15.295  12.802   7.183 -0.2088  0.0146  0.1379
  376loPI   C1B 6013  15.534  12.940   8.746 -0.1586  0.0426 -0.0471
  376loPI   C2B 6014  15.555  13.046   8.322  0.0687 -0.0298 -0.0811
  376loPI   C3B 6015  15.480  13.445   8.259 -0.0963  0.1558  0.2038
  376loPI   C4B 6016  15.851  13.623   7.965 -0.1731  0.1212 -0.0198
  377loPI    C1 6017  13.373  18.599  10.167 -0.1973  0.0995  0.1426
  377loPI    C2 6018  13.454  18.416  10.513 -0.0254 -0.1528 -0.0277
  377loPI    C3 6019  13.546  18.802  10.466 -0.2177 -0.0672  0.2692
  377loPI   PO4 6020  13.569  18.435   9.977 -0.1026  0.0454 -0.0669
  377loPI   GL1 6021  13.493  18.100   9.703  0.1341 -0.2464  0.1429
  377loPI   GL2 6022  13.789  18.152   9.638  0.3463 -0.1925 -0.0152
  377loPI   C1A 6023  13.518  18.043   9.250  0.2676 -0.0135 -0.2647
  377loPI   C2A 6024  13.577  18.054   8.930  0.2319 -0.2643 -0.1758
  377loPI   C3A 6025  13.559  18.097   8.523 -0.1113  0.4371 -0.2136
  377loPI   C4A 6026  13.709  18.171   8.146  0.4196  0.2999 -0.1717
  377loPI   C5A 6027  13.858  18.301   7.709 -0.0253 -0.5748  0.0236
  377loPI   C6A 6028  13.980  18.669   7.468  0.1111 -0.1741 -0.2723
  377loPI   C1B 6029  13.973  17.892   9.413 -0.2340  0.1258  0.2927
  377loPI   C2B 6030  14.047  17.983   9.002  0.2817  0.0081 -0.0265
  377loPI   C3B 6031  14.102  17.956   8.667  0.1960  0.0899 -0.0336
  377loPI   C4B 6032  14.222  18.060   8.267 -0.1390  0.1149 -0.0120
  378loPI    C1 6033  13.095  19.049  10.312  0.1056 -0.1328  0.1211
  378loPI    C2 6034  13.277  19.134  10.658  0.1213 -0.0083  0.0831
  378loPI    C3 6035  13.054  18.803  10.624  0.1622 -0.0478  0.1963
  378loPI   PO4 6036  13.271  19.059  10.165  0.1970 -0.3009  0.3323
  378loPI   GL1 6037  13.477  18.978   9.665  0.2862  0.0651  0.0426
  378loPI   GL2 6038  13.464  18.623   9.498  0.1183 -0.1494  0.1332
  378loPI   C1A 6039  13.477  19.368   9.457  0.0461  0.0609  0.2469
  378loPI   C2A 6040  13.598  19.545   9.172  0.0303 -0.1135  0.1796
  378loPI   C3A 6041  13.595  19.411   8.733  0.0227 -0.1813 -0.0849
  378loPI   C4A 6042  13.549  19.641   8.315  0.1250  0.0104 -0.3457
  378loPI   C5A 6043  13.380  19.992   8.089  0.2387  0.0755  0.0762
  378loPI   C6A 6044  13.031  20.178   8.067  0.0174  0.1310  0.0273
  378loPI   C1B 6045  13.362  18.723   9.132 -0.0480 -0.1133 -0.1058
  378loPI   C2B 6046  13.296  18.726   8.680 -0.1286  0.1498  0.2765
  378loPI   C3B 6047  13.392  18.736   8.201 -0.0391 -0.0504 -0.0916
  378loPI   C4B 6048  13.341  19.006   7.758  0.2953  0.0177  0.0223
  379loPI    C1 6049  12.676   5.038   9.569 -0.0192 -0.2605 -0.2917
  379loPI    C2 6050  13.040   4.962   9.715 -0.0032  0.2091 -0.0691
  379loPI    C3 6051  12.999   5.091   9.339  0.0469  0.0372 -0.1348
  379loPI   PO4 6052  12.527   4.853   9.691 -0.0437  0.0211 -0.2166
  379loPI   GL1 6053  12.435   4.517   9.394 -0.2136  0.2760  0.2359
  379loPI   GL2 6054  12.550   4.140   9.350 -0.3286 -0.0990  0.0957
  379loPI   C1A 6055  12.617   4.774   9.001  0.2644 -0.0677 -0.0877
  379loPI   C2A 6056  12.772   4.801   8.566  0.3834 -0.0572  0.1560
  379loPI   C3A 6057  12.946   4.612   8.264  0.3049 -0.1014  0.1460
  379loPI   C4A 6058  12.989   4.434   7.810  0.1563 -0.1063 -0.1299
  379loPI   C5A 6059  13.317   4.032   7.711  0.1829  0.2674  0.0969
  379loPI   C6A 6060  13.387   3.869   7.245  0.0471 -0.1034  0.1738
  379loPI   C1B 6061  12.634   4.296   8.915  0.2439  0.2707 -0.1466
  379loPI   C2B 6062  12.495   4.418   8.532 -0.1827 -0.1927 -0.0671
  379loPI   C3B 6063  12.404   4.627   8.275  0.4843  0.0018 -0.0627
  379loPI   C4B 6064  12.607   4.692   7.864  0.2410 -0.3111 -0.2367
  380loPI    C1 6065   0.886   7.490   9.871 -0.2125  0.1065 -0.0672
  380loPI    C2 6066   0.931   7.254  10.191  0.0490  0.1950 -0.0365
  380loPI    C3 6067   0.590   7.456  10.138 -0.0912 -0.0158  0.0533
  380loPI   PO4 6068   1.141   7.568   9.850  0.0288  0.1911 -0.4015
  380loPI   GL1 6069   1.402   7.678   9.440 -0.1280  0.0867 -0.0673
  380loPI   GL2 6070   1.274   8.024   9.351  0.2237 -0.1094  0.2056
  380loPI   C1A 6071   1.335   7.461   9.052  0.0837 -0.1164  0.0569
  380loPI   C2A 6072   1.467   7.303   8.706 -0.1477 -0.3679  0.1361
  380loPI   C3A 6073   1.491   7.516   8.311  0.2578 -0.0413  0.1055
  380loPI   C4A 6074   1.419   7.492   7.897 -0.3336  0.1458  0.2481
  380loPI   C5A 6075   1.252   7.197   7.557  0.1152  0.0740 -0.3253
  380loPI   C6A 6076   1.183   6.806   7.264 -0.1691 -0.0574  0.1609
  380loPI   C1B 6077   1.371   8.107   8.966  0.0603  0.3221  0.0423
  380loPI   C2B 6078   1.567   7.803   8.786 -0.1754  0.0620 -0.1575
  380loPI   C3B 6079   1.882   7.896   8.346  0.0375  0.0179 -0.1938
  380loPI   C4B 6080   1.868   8.252   8.158  0.1574 -0.2184  0.1442
  381loPI    C1 6081  11.132   6.142  10.057  0.2105 -0.2600  0.1107
  381loPI    C2 6082  11.441   5.973  10.247  0.2229 -0.1242  0.2132
  381loPI    C3 6083  11.456   6.359  10.145  0.1474 -0.1546  0.0846
  381loPI   PO4 6084  11.083   5.964   9.822 -0.4566 -0.0398  0.1549
  381loPI   GL1 6085  11.106   6.085   9.337 -0.3299 -0.0480  0.2740
  381loPI   GL2 6086  11.329   6.256   9.170 -0.3559 -0.1733 -0.0044
  381loPI   C1A 6087  11.209   5.793   9.037  0.0634  0.0628  0.1805
  381loPI   C2A 6088  11.074   5.752   8.621  0.1805 -0.0903 -0.0316
  381loPI   C3A 6089  11.011   5.790   8.180 -0.0133 -0.0782 -0.1068
  381loPI   C4A 6090  11.000   5.761   7.727  0.1052 -0.2600  0.0752
  381loPI   C5A 6091  11.087   5.789   7.342 -0.0057 -0.1774 -0.2730
  381loPI   C6A 6092  11.450   5.647   7.089 -0.2234 -0.0038  0.2061
  381loPI   C1B 6093  11.031   6.197   8.799 -0.1068 -0.0164  0.0786
  381loPI   C2B 6094  10.910   6.255   8.310 -0.1396 -0.3130  0.0581
  381loPI   C3B 6095  10.778   6.169   7.843 -0.0566 -0.5837 -0.1274
  381loPI   C4B 6096  10.663   6.065   7.537 -0.2745  0.0907 -0.3796
  382loPI    C1 6097  16.138   9.387   9.864  0.1978 -0.0092  0.1976
  382loPI    C2 6098  16.130   9.775   9.961 -0.1184  0.0278  0.0352
  382loPI    C3 6099  15.825   9.537  10.062 -0.0996 -0.0964 -0.1930
  382loPI   PO4 6100  16.189   9.385   9.626  0.2221 -0.0608  0.2748
  382loPI   GL1 6101  16.334   9.595   9.195 -0.0043  0.1878  0.1819
  382loPI   GL2 6102  16.014   9.604   9.170 -0.2620  0.2093 -0.2203
  382loPI   C1A 6103  16.459   9.322   8.969 -0.0615 -0.1735  0.0720
  382loPI   C2A 6104  16.553   9.189   8.491  0.4692 -0.3188 -0.0641
  382loPI   C3A 6105  16.558   9.142   8.115  0.0106  0.1105 -0.2674
  382loPI   C4A 6106  16.509   9.005   7.692  0.2174 -0.2692 -0.2722
  382loPI   C5A 6107  16.705   9.074   7.314  0.0066 -0.1451 -0.1082
  382loPI   C6A 6108  17.009   9.079   7.121  0.1873  0.0481 -0.0756
  382loPI   C1B 6109  16.114   9.691   8.747  0.1797 -0.0874 -0.1973
  382loPI   C2B 6110  16.234   9.539   8.353 -0.3459  0.0153  0.0870
  382loPI   C3B 6111  16.204   9.428   7.952  0.4158 -0.1860 -0.3943
  382loPI   C4B 6112  16.104   9.288   7.575  0.1546 -0.3203 -0.0431
  383loPI    C1 6113  11.431   3.040  10.030 -0.1794 -0.0336 -0.0356
  383loPI    C2 6114  11.735   3.276  10.141 -0.1814  0.0348 -0.1738
  383loPI    C3 6115  11.513   3.091  10.419  0.1595 -0.2386 -0.0770
  383loPI   PO4 6116  11.487   2.893   9.873 -0.1836 -0.0245  0.1004
  383loPI   GL1 6117  11.400   2.856   9.519  0.0571  0.2560  0.4043
  383loPI   GL2 6118  11.242   3.145   9.355 -0.1863  0.4519 -0.1394
  383loPI   C1A 6119  11.100   2.692   9.171  0.0728 -0.0361  0.1101
  383loPI   C2A 6120  10.994   2.783   8.796 -0.3461 -0.2441 -0.2118
  383loPI   C3A 6121  10.981   2.690   8.375  0.0955  0.2145  0.1175
  383loPI   C4A 6122  11.121   2.718   8.018 -0.0766 -0.1884 -0.0011
  383loPI   C5A 6123  11.388   2.651   7.753  0.0203  0.3266  0.0423
  383loPI   C6A 6124  11.594   2.399   7.663  0.2918  0.0092 -0.0781
  383loPI   C1B 6125  11.344   3.086   8.976 -0.1635  0.1026 -0.1885
  383loPI   C2B 6126  11.317   3.105   8.618 -0.1916 -0.3064  0.1634
  383loPI   C3B 6127  11.538   3.098   8.315  0.2174 -0.4321  0.2738
  383loPI   C4B 6128  11.845   3.260   8.066 -0.0909  0.0799 -0.1017
  384loPI    C1 6129   2.780   3.023  10.063 -0.1202  0.1138 -0.0609
  384loPI    C2 6130   3.079   3.018  10.329 -0.1725  0.0498 -0.0030
  384loPI    C3 6131   2.724   3.172  10.430 -0.1001  0.3104 -0.1363
  384loPI   PO4 6132   2.928   3.098   9.831  0.1115  0.0058  0.0671
  384loPI   GL1 6133   2.747   3.033   9.411  0.0162  0.1887 -0.0707
  384loPI   GL2 6134   2.523   3.161   9.136  0.1653  0.0293  0.0899
  384loPI   C1A 6135   2.937   2.717   9.200 -0.3858 -0.1333 -0.0113
  384loPI   C2A 6136   3.154   2.561   8.868 -0.2128  0.3376 -0.1030
  384loPI   C3A 6137   3.146   2.467   8.413 -0.0965 -0.0488 -0.3247
  384loPI   C4A 6138   3.369   2.492   7.920  0.3570  0.4563 -0.1000
  384loPI   C5A 6139   3.759   2.640   7.847  0.0191  0.0179 -0.0782
  384loPI   C6A 6140   4.003   2.849   7.622 -0.3369 -0.2061  0.0379
  384loPI   C1B 6141   2.322   3.141   8.727  0.0156  0.0150 -0.2166
  384loPI   C2B 6142   2.094   3.137   8.379 -0.0876 -0.2739  0.0482
  384loPI   C3B 6143   2.164   3.168   7.891 -0.2305  0.1077  0.2200
  384loPI   C4B 6144   2.122   3.166   7.419 -0.0495  0.1232 -0.1654
  385loPI    C1 6145  14.361  15.539   9.850  0.0921  0.1004 -0.2214
  385loPI    C2 6146  14.741  15.610   9.951  0.0720 -0.3452  0.2080
  385loPI    C3 6147  14.477  15.501  10.231 -0.3818 -0.0284 -0.0828
  385loPI   PO4 6148  14.382  15.335   9.685  0.0095 -0.0461 -0.0594
  385loPI   GL1 6149  14.423  15.029   9.279  0.0427 -0.2151  0.2086
  385loPI   GL2 6150  14.268  14.841   9.120  0.2789 -0.1920 -0.2154
  385loPI   C1A 6151  14.741  14.980   8.968  0.1215  0.2113  0.2463
  385loPI   C2A 6152  14.858  15.027   8.631 -0.2181 -0.0475 -0.1358
  385loPI   C3A 6153  14.950  15.237   8.277  0.0279 -0.0243 -0.3181
  385loPI   C4A 6154  15.093  15.166   7.879 -0.0366  0.2415 -0.2174
  385loPI   C5A 6155  15.269  15.370   7.584  0.1447  0.0282  0.1002
  385loPI   C6A 6156  15.153  15.666   7.311  0.0476 -0.2722  0.1943
  385loPI   C1B 6157  14.347  14.700   8.696  0.2962 -0.1857  0.2615
  385loPI   C2B 6158  14.598  14.630   8.493 -0.1358 -0.0703 -0.1619
  385loPI   C3B 6159  14.794  14.810   8.061 -0.1562 -0.0267  0.0082
  385loPI   C4B 6160  14.801  14.865   7.573 -0.1151  0.2115  0.1990
  386loPI    C1 6161   3.644   6.448  10.183 -0.1103 -0.1336  0.0593
  386loPI    C2 6162   3.415   6.445  10.511 -0.1533 -0.1257  0.0294
  386loPI    C3 6163   3.811   6.491  10.544 -0.1892  0.1764  0.0617
  386loPI   PO4 6164   3.472   6.293   9.961 -0.0360  0.0452 -0.0312
  386loPI   GL1 6165   3.441   6.084   9.564  0.1288 -0.1638  0.4364
  386loPI   GL2 6166   3.574   6.324   9.466  0.1427 -0.0196 -0.1432
  386loPI   C1A 6167   3.313   6.003   9.187  0.0507 -0.0956 -0.1360
  386loPI   C2A 6168   3.153   5.871   8.817 -0.0836  0.3315  0.1597
  386loPI   C3A 6169   3.060   5.849   8.431  0.1309  0.0356  0.1439
  386loPI   C4A 6170   3.076   5.989   8.046  0.2822  0.0722  0.1209
  386loPI   C5A 6171   2.847   6.011   7.712 -0.1564 -0.1537 -0.1117
  386loPI   C6A 6172   2.385   5.988   7.557 -0.1112 -0.1451  0.1098
  386loPI   C1B 6173   3.754   6.188   9.000 -0.2040 -0.0567 -0.1998
  386loPI   C2B 6174   3.910   6.201   8.535  0.0975  0.0104  0.0891
  386loPI   C3B 6175   4.131   6.248   8.151 -0.3777  0.1360 -0.1790
  386loPI   C4B 6176   4.524   6.153   7.918  0.1276 -0.0508 -0.2016
  387loPI    C1 6177   8.609  15.254  10.548 -0.0354 -0.0039 -0.1056
  387loPI    C2 6178   8.344  15.009  10.721 -0.0359 -0.0091 -0.1134
  387loPI    C3 6179   8.394  15.380  10.861  0.0180 -0.0382 -0.0548
  387loPI   PO4 6180   8.698  15.136  10.313 -0.1693 -0.2517  0.1677
  387loPI   GL1 6181   8.643  14.902   9.868  0.0026  0.0361 -0.0796
  387loPI   GL2 6182   8.411  15.062   9.770  0.0589  0.2960 -0.0466
  387loPI   C1A 6183   8.676  14.913   9.373  0.0866  0.3394 -0.1303
  387loPI   C2A 6184   8.835  15.097   9.025 -0.3975  0.1977  0.4245
  387loPI   C3A 6185   8.988  15.151   8.574  0.0770 -0.2060  0.2042
  387loPI   C4A 6186   8.945  14.856   8.169 -0.2825  0.3875  0.2463
  387loPI   C5A 6187   8.922  14.931   7.827  0.1078 -0.0940 -0.3650
  387loPI   C6A 6188   8.985  15.304   7.578  0.4146  0.0854 -0.0158
  387loPI   C1B 6189   8.848  15.342   9.677 -0.3742  0.3357 -0.2910
  387loPI   C2B 6190   9.257  15.259   9.524 -0.2793  0.0272 -0.0530
  387loPI   C3B 6191   9.276  14.880   9.136  0.2636 -0.0170  0.1201
  387loPI   C4B 6192   9.170  14.736   8.763  0.0252 -0.1379  0.0497
  388loPI    C1 6193  15.276   7.722   9.572 -0.2237  0.1970 -0.1681
  388loPI    C2 6194  15.000   7.652   9.853 -0.0510 -0.1159 -0.0715
  388loPI    C3 6195  15.307   7.897   9.930 -0.1601  0.0278 -0.0897
  388loPI   PO4 6196  15.156   7.705   9.363 -0.1110  0.4496 -0.0686
  388loPI   GL1 6197  15.221   7.570   9.074 -0.0156 -0.2477  0.0670
  388loPI   GL2 6198  15.467   7.838   9.009  0.0454 -0.0686  0.3027
  388loPI   C1A 6199  14.845   7.766   8.787 -0.0814 -0.1085  0.0651
  388loPI   C2A 6200  14.842   7.932   8.381 -0.0488  0.1055 -0.0871
  388loPI   C3A 6201  14.745   7.966   7.941 -0.1688 -0.4752 -0.1891
  388loPI   C4A 6202  14.695   8.141   7.641  0.2700 -0.1614 -0.3567
  388loPI   C5A 6203  14.861   8.239   7.271  0.0170 -0.3625 -0.1890
  388loPI   C6A 6204  15.162   8.292   6.989  0.2884  0.2202  0.5161
  388loPI   C1B 6205  15.641   7.537   8.752  0.1188  0.0311 -0.2489
  388loPI   C2B 6206  15.468   7.129   8.427 -0.0473 -0.3404 -0.2692
  388loPI   C3B 6207  15.205   7.147   8.154  0.2081 -0.0164 -0.0383
  388loPI   C4B 6208  14.741   6.995   8.128  0.0660 -0.1722  0.3463
  389loPI    C1 6209  16.319   4.492   9.859  0.0480  0.1566  0.0440
  389loPI    C2 6210  16.347   4.890   9.849  0.0278  0.1567 -0.0166
  389loPI    C3 6211  15.991   4.716   9.905  0.0323  0.1469 -0.0182
  389loPI   PO4 6212  16.383   4.361   9.612  0.2058  0.0031  0.1107
  389loPI   GL1 6213  16.431   4.387   9.152  0.3901 -0.1537  0.2490
  389loPI   GL2 6214  16.556   4.660   8.928  0.2604 -0.2417 -0.0400
  389loPI   C1A 6215  16.186   4.131   9.025  0.0524 -0.2388  0.0745
  389loPI   C2A 6216  16.069   4.027   8.653  0.1302 -0.0048  0.0165
  389loPI   C3A 6217  16.059   3.975   8.189 -0.0632  0.0927  0.4818
  389loPI   C4A 6218  16.147   3.893   7.744 -0.2059  0.0438  0.1108
  389loPI   C5A 6219  16.196   4.046   7.267 -0.0620 -0.2870 -0.2587
  389loPI   C6A 6220  15.901   3.911   6.916  0.1672 -0.2030  0.1178
  389loPI   C1B 6221  16.496   5.116   8.907 -0.0747  0.1811 -0.0457
  389loPI   C2B 6222  16.600   5.467   8.602 -0.0387 -0.1985 -0.1210
  389loPI   C3B 6223  17.024   5.728   8.487  0.1561 -0.0649 -0.0425
  389loPI   C4B 6224  17.041   5.958   8.225 -0.0170 -0.0146  0.2593
  390loPI    C1 6225  11.620   1.567  10.157  0.0715  0.0684 -0.2742
  390loPI    C2 6226  11.928   1.808  10.075 -0.0105  0.2353 -0.1003
  390loPI    C3 6227  11.892   1.647  10.439  0.0751 -0.0898 -0.2322
  390loPI   PO4 6228  11.422   1.510   9.876  0.0135  0.0896 -0.1173
  390loPI   GL1 6229  11.424   1.536   9.497 -0.2171 -0.2036 -0.1120
  390loPI   GL2 6230  11.170   1.511   9.238  0.1406 -0.2176 -0.2575
  390loPI   C1A 6231  11.688   1.522   9.167  0.0405  0.1588  0.1425
  390loPI   C2A 6232  11.759   1.591   8.803  0.0245  0.1646  0.0579
  390loPI   C3A 6233  11.983   1.768   8.456  0.1002  0.1198  0.0489
  390loPI   C4A 6234  12.326   1.978   8.295  0.1101  0.0643  0.0189
  390loPI   C5A 6235  12.702   2.002   8.040  0.0207  0.0677 -0.0354
  390loPI   C6A 6236  12.794   1.993   7.627  0.1144 -0.1524  0.1312
  390loPI   C1B 6237  11.011   1.458   8.886  0.0075 -0.0533  0.1808
  390loPI   C2B 6238  10.904   1.239   8.514  0.3445 -0.0259  0.2097
  390loPI   C3B 6239  11.105   1.176   8.114 -0.0126  0.0697  0.3418
  390loPI   C4B 6240  10.948   0.844   7.862 -0.2133  0.2880  0.0630
  391loPI    C1 6241   7.973   1.948   9.970  0.1894 -0.1933 -0.0368
  391loPI    C2 6242   8.110   1.596  10.102 -0.1559 -0.2250  0.2550
  391loPI    C3 6243   7.986   1.873  10.363 -0.1010  0.0272  0.0185
  391loPI   PO4 6244   7.945   1.899   9.646 -0.0071  0.1046 -0.0515
  391loPI   GL1 6245   7.804   1.743   9.231 -0.3216  0.2838  0.1314
  391loPI   GL2 6246   7.624   1.987   9.121 -0.0687  0.4654 -0.0472
  391loPI   C1A 6247   7.746   1.528   8.840  0.1773  0.1971 -0.1198
  391loPI   C2A 6248   7.970   1.451   8.369  0.0926  0.1328  0.1817
  391loPI   C3A 6249   8.216   1.355   8.061  0.2017 -0.2023  0.4882
  391loPI   C4A 6250   8.488   1.104   7.779 -0.2231 -0.0101  0.3238
  391loPI   C5A 6251   8.495   0.769   7.484 -0.4098 -0.2196 -0.2963
  391loPI   C6A 6252   8.590   0.395   7.614 -0.0216  0.0372 -0.2525
  391loPI   C1B 6253   7.741   1.944   8.664 -0.0350 -0.1761 -0.1222
  391loPI   C2B 6254   7.628   1.935   8.185 -0.1331  0.1578 -0.4373
  391loPI   C3B 6255   7.358   1.930   7.867  0.0475  0.0214  0.1637
  391loPI   C4B 6256   7.202   2.328   7.633 -0.1141 -0.1985 -0.0116
  392loPI    C1 6257  14.862   1.668  10.657 -0.0033  0.1062 -0.0323
  392loPI    C2 6258  14.667   1.919  10.414  0.0052  0.1049 -0.0404
  392loPI    C3 6259  14.870   2.062  10.728  0.1154  0.1198 -0.1180
  392loPI   PO4 6260  14.920   1.446  10.430  0.0024 -0.0951  0.2203
  392loPI   GL1 6261  14.746   1.596  10.034 -0.0685 -0.2204  0.1647
  392loPI   GL2 6262  14.744   1.221   9.980 -0.3653 -0.0797  0.1547
  392loPI   C1A 6263  14.695   1.763   9.707 -0.1444  0.0717 -0.2637
  392loPI   C2A 6264  14.701   1.635   9.315  0.1524 -0.3326  0.0814
  392loPI   C3A 6265  14.532   1.432   8.953  0.2205  0.2562  0.2443
  392loPI   C4A 6266  14.579   1.460   8.536  0.0545  0.0144  0.1333
  392loPI   C5A 6267  14.491   1.433   8.175  0.0258 -0.2383 -0.1862
  392loPI   C6A 6268  14.830   1.504   7.824 -0.0224  0.1964 -0.0115
  392loPI   C1B 6269  14.711   1.150   9.638 -0.1121 -0.1468  0.2348
  392loPI   C2B 6270  14.842   0.998   9.166 -0.1842  0.0911 -0.0431
  392loPI   C3B 6271  14.915   0.747   8.777 -0.1199  0.0611 -0.2445
  392loPI   C4B 6272  15.007   0.795   8.332 -0.0292  0.0894  0.0255
  393loPI    C1 6273  13.372  13.960  10.143 -0.0407 -0.1394 -0.1008
  393loPI    C2 6274  13.235  13.698  10.413  0.1263 -0.1584 -0.0334
  393loPI    C3 6275  13.547  13.932  10.501 -0.0388  0.0841 -0.0829
  393loPI   PO4 6276  13.334  13.869   9.883  0.0003 -0.1825  0.0887
  393loPI   GL1 6277  13.149  14.122   9.544 -0.1671  0.0681 -0.0575
  393loPI   GL2 6278  13.245  14.393   9.336  0.2132  0.2209 -0.0880
  393loPI   C1A 6279  12.983  13.985   9.149  0.0370 -0.2449  0.2480
  393loPI   C2A 6280  12.762  13.900   8.828  0.1394 -0.0729  0.2794
  393loPI   C3A 6281  12.809  13.837   8.418  0.1361  0.0357  0.2759
  393loPI   C4A 6282  12.528  13.895   8.056 -0.0185  0.3247 -0.0459
  393loPI   C5A 6283  12.270  13.774   7.755 -0.0346 -0.0049  0.0611
  393loPI   C6A 6284  11.899  13.860   7.817 -0.1105  0.2109  0.0649
  393loPI   C1B 6285  13.413  14.445   8.968 -0.0719 -0.2785  0.0978
  393loPI   C2B 6286  13.469  14.555   8.571 -0.1904 -0.2926  0.3665
  393loPI   C3B 6287  13.401  14.649   8.139 -0.4857  0.1106 -0.0504
  393loPI   C4B 6288  13.312  14.900   7.779 -0.3592  0.0634  0.0241
  394loPI    C1 6289   9.169  13.992   9.629  0.1974 -0.1489 -0.0493
  394loPI    C2 6290   9.002  13.684   9.434 -0.0769 -0.0813  0.0737
  394loPI    C3 6291   8.793  13.883   9.711  0.1640  0.0955  0.1326
  394loPI   PO4 6292   9.420  13.982   9.521  0.0933 -0.0952  0.0996
  394loPI   GL1 6293   9.706  14.110   9.175 -0.2105  0.0732  0.0066
  394loPI   GL2 6294   9.652  13.700   9.218 -0.3401 -0.0188 -0.2302
  394loPI   C1A 6295   9.806  14.082   8.754  0.0678  0.2597 -0.1120
  394loPI   C2A 6296   9.749  14.064   8.291 -0.1220 -0.0942  0.0890
  394loPI   C3A 6297   9.637  14.252   7.819 -0.3014 -0.0920 -0.2751
  394loPI   C4A 6298   9.526  14.251   7.356 -0.0242  0.3262 -0.0795
  394loPI   C5A 6299   9.366  13.849   7.104 -0.1691 -0.2384 -0.1063
  394loPI   C6A 6300   8.961  13.758   7.080 -0.0837  0.0463 -0.1066
  394loPI   C1B 6301   9.828  13.545   8.809 -0.0456 -0.1566 -0.2791
  394loPI   C2B 6302   9.804  13.515   8.349  0.0518  0.1983 -0.0095
  394loPI   C3B 6303   9.859  13.798   7.845  0.2323 -0.0707 -0.0090
  394loPI   C4B 6304   9.773  13.824   7.415 -0.3118 -0.0245  0.0887
  395loPI    C1 6305  11.277  12.534   9.428  0.0417  0.1820  0.0031
  395loPI    C2 6306  11.064  12.515   9.766 -0.1693  0.0572 -0.1349
  395loPI    C3 6307  11.010  12.241   9.479  0.1074  0.0820 -0.2136
  395loPI   PO4 6308  11.529  12.510   9.428 -0.1972 -0.5335  0.3260
  395loPI   GL1 6309  11.674  12.554   9.118 -0.2855 -0.4460  0.2773
  395loPI   GL2 6310  11.754  12.861   8.921  0.0590 -0.2160  0.1383
  395loPI   C1A 6311  11.580  12.367   8.785 -0.0184  0.1760 -0.0965
  395loPI   C2A 6312  11.232  12.272   8.535  0.0520  0.0606 -0.1525
  395loPI   C3A 6313  10.890  12.071   8.118 -0.0012  0.1568  0.0084
  395loPI   C4A 6314  10.581  12.221   7.763 -0.1018 -0.0367  0.2093
  395loPI   C5A 6315  10.538  12.546   7.464  0.1967 -0.2487  0.0192
  395loPI   C6A 6316  10.745  13.024   7.417  0.4523 -0.1756 -0.0353
  395loPI   C1B 6317  11.859  13.161   8.755 -0.1373 -0.1052 -0.0195
  395loPI   C2B 6318  11.840  13.612   8.641  0.0073  0.0771 -0.2172
  395loPI   C3B 6319  11.651  13.897   8.370  0.2305  0.0438 -0.2251
  395loPI   C4B 6320  11.635  14.185   8.167  0.0096  0.0397  0.0016
  396loPI    C1 6321  11.117   9.727   9.475  0.2829  0.0154 -0.0619
  396loPI    C2 6322  11.199   9.975   9.778  0.0289  0.1786 -0.1242
  396loPI    C3 6323  10.985   9.643   9.843  0.0246  0.1834 -0.1141
  396loPI   PO4 6324  11.229   9.847   9.307 -0.3276  0.0691  0.2722
  396loPI   GL1 6325  11.494   9.965   9.019 -0.5545 -0.0339  0.0671
  396loPI   GL2 6326  11.567  10.103   8.803 -0.0803 -0.2992  0.0251
  396loPI   C1A 6327  11.354   9.710   8.653 -0.3272  0.1387 -0.0869
  396loPI   C2A 6328  11.440   9.675   8.289 -0.0327 -0.1175  0.1868
  396loPI   C3A 6329  11.424  10.044   8.124 -0.5763 -0.0234  0.1976
  396loPI   C4A 6330  11.128  10.195   7.718  0.2535 -0.2128  0.2762
  396loPI   C5A 6331  10.638  10.153   7.687 -0.0492  0.1492  0.3200
  396loPI   C6A 6332  10.387  10.227   7.262  0.1212  0.0241 -0.3536
  396loPI   C1B 6333  11.822  10.202   8.404  0.2557 -0.0397  0.3027
  396loPI   C2B 6334  11.765  10.433   8.156 -0.0643  0.1352  0.2197
  396loPI   C3B 6335  12.077  10.692   7.994 -0.0808 -0.3855  0.2683
  396loPI   C4B 6336  12.317  11.110   8.042 -0.0623 -0.0368 -0.1868
  397loPI    C1 6337  10.935   1.376   9.859  0.0836  0.2201 -0.1001
  397loPI    C2 6338  10.625   1.627   9.894  0.0586  0.1676  0.0646
  397loPI    C3 6339  10.689   1.348  10.174  0.1136  0.0198 -0.0934
  397loPI   PO4 6340  10.928   1.320   9.682 -0.0974  0.1894  0.1869
  397loPI   GL1 6341  10.867   0.917   9.478  0.0454  0.1204  0.0364
  397loPI   GL2 6342  11.087   1.079   9.275  0.0585  0.0661 -0.0714
  397loPI   C1A 6343  10.670   0.659   9.129 -0.0279 -0.0451 -0.2578
  397loPI   C2A 6344  10.712   0.405   8.780 -0.1150  0.1365  0.1855
  397loPI   C3A 6345  10.762   0.249   8.414  0.2966 -0.1844 -0.0688
  397loPI   C4A 6346  10.520  -0.016   8.135  0.0344  0.3215  0.1727
  397loPI   C5A 6347  10.538  -0.124   7.716 -0.0947 -0.4843  0.1941
  397loPI   C6A 6348  10.566  -0.426   7.354 -0.2898 -0.1809 -0.0905
  397loPI   C1B 6349  11.064   0.927   8.862  0.1606 -0.1978 -0.1866
  397loPI   C2B 6350  11.035   0.744   8.489  0.1020  0.1869 -0.1117
  397loPI   C3B 6351  11.397   0.711   8.131 -0.0618 -0.0088 -0.0584
  397loPI   C4B 6352  11.424   0.407   7.765  0.3697  0.0126  0.0324
  398loPI    C1 6353  10.423   2.121   9.826  0.0524 -0.1569  0.0229
  398loPI    C2 6354  10.793   2.083   9.972  0.0509  0.0298  0.0777
  398loPI    C3 6355  10.477   2.027  10.212  0.0451  0.0308  0.0703
  398loPI   PO4 6356  10.512   1.969   9.545 -0.1522  0.2160 -0.0879
  398loPI   GL1 6357  10.663   1.731   9.189 -0.2662 -0.0233 -0.1050
  398loPI   GL2 6358  10.529   1.454   9.360 -0.2264 -0.1977 -0.0120
  398loPI   C1A 6359  10.649   1.859   8.881  0.2795 -0.1978  0.0190
  398loPI   C2A 6360  10.716   1.766   8.464 -0.0803 -0.1819 -0.4997
  398loPI   C3A 6361  10.731   1.840   7.898 -0.1967  0.0048 -0.1390
  398loPI   C4A 6362  10.745   2.177   7.590 -0.0485 -0.3843  0.2101
  398loPI   C5A 6363  10.845   2.596   7.527 -0.4013  0.1751  0.2366
  398loPI   C6A 6364  10.572   2.850   7.206  0.0692  0.0495 -0.2179
  398loPI   C1B 6365  10.645   1.134   9.084  0.0373 -0.3357 -0.2014
  398loPI   C2B 6366  10.559   0.876   8.714  0.0815  0.0080 -0.0373
  398loPI   C3B 6367  10.458   0.847   8.249  0.0956 -0.2792  0.0575
  398loPI   C4B 6368  10.477   0.976   7.919  0.0480  0.0344 -0.4696
  399loPI    C1 6369   3.441  13.561  10.314 -0.1365 -0.1213 -0.0142
  399loPI    C2 6370   3.587  13.928  10.373 -0.0089 -0.1385 -0.2116
  399loPI    C3 6371   3.281  13.796  10.595  0.1505 -0.0319  0.0779
  399loPI   PO4 6372   3.576  13.586   9.994 -0.2646 -0.0911 -0.0056
  399loPI   GL1 6373   3.366  13.502   9.571  0.1218  0.0084  0.0372
  399loPI   GL2 6374   3.508  13.253   9.493  0.1256 -0.3203 -0.0346
  399loPI   C1A 6375   3.516  13.709   9.223  0.1085  0.0089  0.0999
  399loPI   C2A 6376   3.612  13.934   8.862  0.3558 -0.1040  0.0011
  399loPI   C3A 6377   3.719  14.010   8.425 -0.2257 -0.0778  0.1924
  399loPI   C4A 6378   3.878  14.086   7.987  0.0008 -0.1488  0.0149
  399loPI   C5A 6379   3.885  14.357   7.699  0.1329  0.0141 -0.0643
  399loPI   C6A 6380   3.761  14.779   7.789 -0.0090 -0.1722 -0.1073
  399loPI   C1B 6381   3.404  13.198   9.136 -0.1056 -0.0024 -0.1586
  399loPI   C2B 6382   3.454  13.119   8.645 -0.0524  0.0787 -0.1777
  399loPI   C3B 6383   3.657  13.055   8.265  0.1328  0.3149 -0.0769
  399loPI   C4B 6384   3.623  12.986   7.817 -0.3816 -0.0548  0.0713
  400loPI    C1 6385   0.506   6.332   9.900  0.0651  0.0311 -0.1365
  400loPI    C2 6386   0.239   6.042   9.835  0.0905 -0.0015 -0.0953
  400loPI    C3 6387   0.367   6.117  10.207 -0.0420  0.1741 -0.0841
  400loPI   PO4 6388   0.312   6.542   9.827 -0.2285 -0.1025  0.0483
  400loPI   GL1 6389   0.326   6.528   9.426  0.2083  0.3680  0.1326
  400loPI   GL2 6390   0.628   6.644   9.425  0.1155 -0.0710 -0.2994
  400loPI   C1A 6391   0.316   6.405   9.041  0.1342  0.1169 -0.2619
  400loPI   C2A 6392   0.422   6.297   8.669  0.0158 -0.2092 -0.0343
  400loPI   C3A 6393   0.528   6.210   8.363 -0.1277  0.0176 -0.0242
  400loPI   C4A 6394   0.500   6.427   7.962  0.0478  0.2260 -0.0217
  400loPI   C5A 6395   0.290   6.502   7.557 -0.0901  0.0336 -0.0655
  400loPI   C6A 6396   0.291   6.725   7.249  0.1042  0.0765  0.1205
  400loPI   C1B 6397   0.636   6.813   9.077 -0.0006 -0.1242 -0.2880
  400loPI   C2B 6398   0.533   6.780   8.706  0.0679 -0.3386  0.3352
  400loPI   C3B 6399   0.604   6.944   8.317  0.2142  0.0328  0.0989
  400loPI   C4B 6400   0.517   7.137   7.874 -0.3036  0.1185 -0.1824
  401loPI    C1 6401   6.064   9.239   9.539  0.1458  0.0654  0.0548
  401loPI    C2 6402   5.994   8.970   9.827 -0.2327 -0.0730 -0.1601
  401loPI    C3 6403   6.268   9.256   9.883 -0.0047 -0.3487  0.1699
  401loPI   PO4 6404   6.114   9.119   9.356 -0.0485 -0.1330  0.0109
  401loPI   GL1 6405   6.045   9.135   8.985 -0.0765 -0.1592  0.0124
  401loPI   GL2 6406   5.682   9.302   8.969 -0.3471  0.1404 -0.3629
  401loPI   C1A 6407   6.227   8.831   8.588 -0.3389 -0.0842 -0.1843
  401loPI   C2A 6408   6.037   8.763   8.225  0.0226 -0.3039 -0.1324
  401loPI   C3A 6409   5.991   8.689   7.719 -0.0243  0.1305 -0.0002
  401loPI   C4A 6410   5.828   8.532   7.420  0.0981 -0.0614  0.0735
  401loPI   C5A 6411   5.366   8.459   7.395  0.1230  0.1940  0.1506
  401loPI   C6A 6412   5.039   8.026   7.428 -0.3779 -0.4683  0.0590
  401loPI   C1B 6413   5.663   9.127   8.546 -0.2553  0.2631  0.1205
  401loPI   C2B 6414   5.522   8.844   8.253  0.1010  0.2968 -0.3410
  401loPI   C3B 6415   5.481   8.825   7.877  0.2507  0.2494  0.1137
  401loPI   C4B 6416   5.186   8.936   7.527  0.2231 -0.1511 -0.2858
  402loPI    C1 6417  15.006  18.772  10.369  0.0740  0.3685 -0.2817
  402loPI    C2 6418  15.010  19.136  10.534  0.2953  0.1307  0.2617
  402loPI    C3 6419  14.742  18.865  10.655  0.1240  0.1106 -0.1482
  402loPI   PO4 6420  15.047  18.848  10.106  0.0805  0.3791 -0.0453
  402loPI   GL1 6421  15.255  19.054   9.762  0.2093 -0.0454  0.0041
  402loPI   GL2 6422  14.870  19.033   9.701  0.0300 -0.2333 -0.3672
  402loPI   C1A 6423  15.345  19.275   9.301  0.1210  0.0245 -0.0713
  402loPI   C2A 6424  15.148  19.030   8.989 -0.0654  0.0135  0.3988
  402loPI   C3A 6425  15.184  19.033   8.539  0.1060 -0.2321  0.0503
  402loPI   C4A 6426  15.329  18.931   8.027 -0.1635 -0.3742  0.0858
  402loPI   C5A 6427  15.614  18.971   7.719 -0.0389 -0.0796 -0.1797
  402loPI   C6A 6428  15.598  18.670   7.456  0.2610  0.2780  0.2149
  402loPI   C1B 6429  14.662  19.147   9.217 -0.0493  0.1582 -0.0640
  402loPI   C2B 6430  14.602  19.234   8.874 -0.1576 -0.2233 -0.2910
  402loPI   C3B 6431  14.582  19.295   8.434 -0.0174  0.3185 -0.0697
  402loPI   C4B 6432  14.491  19.359   7.876 -0.1014 -0.0456 -0.0341
  403loPI    C1 6433   9.655   4.727   9.873  0.1595  0.0878  0.3507
  403loPI    C2 6434   9.442   4.623  10.195 -0.1988  0.0627  0.1112
  403loPI    C3 6435   9.279   4.856   9.915  0.1490  0.1789  0.0005
  403loPI   PO4 6436   9.940   4.597   9.975  0.0080 -0.0835  0.1593
  403loPI   GL1 6437   9.950   4.426   9.551  0.1536  0.0654 -0.2426
  403loPI   GL2 6438  10.128   4.696   9.482 -0.1590  0.5293 -0.3137
  403loPI   C1A 6439   9.745   4.418   9.113  0.0212  0.1763 -0.3224
  403loPI   C2A 6440   9.715   4.263   8.730 -0.3576  0.0543 -0.1897
  403loPI   C3A 6441   9.750   4.301   8.257  0.0895  0.0938 -0.2840
  403loPI   C4A 6442   9.620   4.350   7.860 -0.0697 -0.1004  0.1775
  403loPI   C5A 6443   9.510   4.213   7.445 -0.1520 -0.1266  0.2088
  403loPI   C6A 6444   9.128   4.369   7.317  0.1664 -0.0764 -0.0341
  403loPI   C1B 6445  10.142   4.687   9.113  0.0180  0.0211 -0.3074
  403loPI   C2B 6446  10.130   4.630   8.610 -0.2003 -0.0518  0.0337
  403loPI   C3B 6447  10.196   4.622   8.239  0.0723  0.0173 -0.1923
  403loPI   C4B 6448  10.239   4.278   7.921  0.3711 -0.0111 -0.3777
  404loPI    C1 6449  11.899   5.289   9.896  0.1692  0.0563  0.0693
  404loPI    C2 6450  11.845   5.529   9.581 -0.0298  0.1566  0.1781
  404loPI    C3 6451  11.776   5.666   9.951 -0.0016 -0.0238  0.2511
  404loPI   PO4 6452  12.142   5.212   9.837 -0.1447  0.2052 -0.1797
  404loPI   GL1 6453  12.178   5.187   9.357 -0.0350 -0.0995 -0.2665
  404loPI   GL2 6454  11.847   5.084   9.419 -0.3031 -0.3452 -0.1949
  404loPI   C1A 6455  12.233   5.323   8.851  0.0335  0.4077  0.0053
  404loPI   C2A 6456  11.917   5.334   8.515 -0.0852  0.3595 -0.3690
  404loPI   C3A 6457  11.967   5.348   8.168 -0.1706  0.3069 -0.0147
  404loPI   C4A 6458  11.887   5.247   7.765 -0.0545  0.0812  0.0887
  404loPI   C5A 6459  11.919   5.552   7.366  0.3718 -0.1151 -0.2459
  404loPI   C6A 6460  11.895   5.578   6.873  0.0899  0.0054  0.0869
  404loPI   C1B 6461  11.814   5.438   9.052  0.1222  0.1706 -0.1923
  404loPI   C2B 6462  11.499   5.525   8.703 -0.0172 -0.0813 -0.1461
  404loPI   C3B 6463  11.489   5.583   8.346 -0.2271  0.0253  0.0307
  404loPI   C4B 6464  11.479   5.606   7.987 -0.0918 -0.1564  0.2328
  405loPI    C1 6465   2.244   1.711  10.133  0.0120  0.0027  0.1659
  405loPI    C2 6466   1.968   1.921   9.933  0.0954  0.1025  0.1547
  405loPI    C3 6467   1.901   1.813  10.312 -0.0129  0.0155  0.1114
  405loPI   PO4 6468   2.509   1.729   9.925 -0.0943 -0.0970  0.2465
  405loPI   GL1 6469   2.423   1.923   9.617 -0.2184  0.1937 -0.1698
  405loPI   GL2 6470   2.209   2.233   9.620 -0.0246  0.2536  0.1690
  405loPI   C1A 6471   2.449   1.948   9.280  0.3403  0.1066  0.0254
  405loPI   C2A 6472   2.463   1.878   8.866  0.1525 -0.1039 -0.0417
  405loPI   C3A 6473   2.546   1.577   8.539 -0.0789  0.1814  0.0975
  405loPI   C4A 6474   2.744   1.677   8.244  0.0573  0.5038 -0.0207
  405loPI   C5A 6475   2.519   1.911   7.938 -0.2731  0.4033 -0.1348
  405loPI   C6A 6476   2.553   2.100   7.533  0.0953 -0.4998  0.3154
  405loPI   C1B 6477   1.941   2.065   9.476 -0.1404  0.0143  0.3391
  405loPI   C2B 6478   1.601   2.022   9.194 -0.1939  0.2270  0.0868
  405loPI   C3B 6479   1.593   2.173   8.822  0.1047 -0.1347  0.0148
  405loPI   C4B 6480   1.642   2.118   8.360 -0.2252 -0.1170  0.4679
  406loPI    C1 6481  17.099   3.682   9.767 -0.2995 -0.0553 -0.2248
  406loPI    C2 6482  16.991   3.308   9.859  0.0299 -0.1490 -0.2079
  406loPI    C3 6483  17.193   3.529  10.124 -0.2275  0.0696 -0.1893
  406loPI   PO4 6484  17.209   3.661   9.527  0.1706 -0.1646  0.1262
  406loPI   GL1 6485  17.434   3.565   9.335  0.0450 -0.0840  0.2183
  406loPI   GL2 6486  17.650   3.366   9.134 -0.3507  0.0906  0.1076
  406loPI   C1A 6487  17.382   3.696   8.884 -0.0796 -0.2479  0.2833
  406loPI   C2A 6488  17.461   3.574   8.507  0.0729  0.3243 -0.0643
  406loPI   C3A 6489  17.478   3.595   8.113  0.3950  0.0358 -0.0099
  406loPI   C4A 6490  17.371   3.708   7.648  0.3945  0.0782  0.1515
  406loPI   C5A 6491  17.060   3.927   7.373  0.2121  0.2597  0.3243
  406loPI   C6A 6492  16.694   4.203   7.396 -0.0183  0.2739 -0.1084
  406loPI   C1B 6493  17.683   3.176   8.758 -0.1644  0.0122  0.1403
  406loPI   C2B 6494  17.734   3.196   8.274  0.1353  0.1464 -0.2856
  406loPI   C3B 6495  17.888   3.315   7.937 -0.2069 -0.2924 -0.1680
  406loPI   C4B 6496  17.853   3.614   7.680 -0.1467 -0.1777  0.4045
  407loPI    C1 6497   4.952   3.344  10.012  0.2856 -0.0259  0.0210
  407loPI    C2 6498   4.731   3.635  10.174  0.2467  0.0969 -0.2473
  407loPI    C3 6499   4.879   3.345  10.406  0.1162  0.2173 -0.0085
  407loPI   PO4 6500   4.764   3.320   9.756  0.0720 -0.0401  0.1742
  407loPI   GL1 6501   4.472   3.590   9.464 -0.0891  0.1431  0.1011
  407loPI   GL2 6502   4.735   3.857   9.372 -0.2287 -0.0930 -0.2296
  407loPI   C1A 6503   4.723   3.349   9.082  0.0431 -0.1063  0.1204
  407loPI   C2A 6504   4.507   3.255   8.742  0.0850  0.2461 -0.0667
  407loPI   C3A 6505   4.471   3.013   8.354 -0.1073  0.1735 -0.0359
  407loPI   C4A 6506   4.480   2.992   7.939  0.3309  0.0612  0.1488
  407loPI   C5A 6507   4.472   2.672   7.610  0.0736  0.2550  0.1690
  407loPI   C6A 6508   4.286   2.356   7.293 -0.0469  0.0191  0.2162
  407loPI   C1B 6509   4.605   3.949   9.029  0.1060 -0.3661  0.0277
  407loPI   C2B 6510   4.574   3.989   8.583 -0.0927 -0.0210 -0.0938
  407loPI   C3B 6511   4.641   3.982   8.142  0.0242 -0.3754  0.1103
  407loPI   C4B 6512   4.563   4.145   7.702  0.1842 -0.1011 -0.1519
  408loPI    C1 6513   3.285  19.096  10.288  0.1644 -0.1569  0.2093
  408loPI    C2 6514   3.328  18.921  10.645  0.1481  0.3973  0.4933
  408loPI    C3 6515   2.967  19.044  10.525  0.0697 -0.1978  0.0742
  408loPI   PO4 6516   3.482  19.112  10.185  0.1784 -0.1414  0.3332
  408loPI   GL1 6517   3.559  19.121   9.716 -0.0438  0.2106 -0.0120
  408loPI   GL2 6518   3.712  19.174   9.504 -0.0742  0.0924 -0.3162
  408loPI   C1A 6519   3.295  18.818   9.402  0.2418 -0.0453  0.0192
  408loPI   C2A 6520   3.308  18.680   9.007  0.3791  0.0100 -0.1546
  408loPI   C3A 6521   3.169  18.596   8.526  0.0794 -0.0586 -0.0464
  408loPI   C4A 6522   2.774  18.643   8.158 -0.2031 -0.1677  0.2743
  408loPI   C5A 6523   2.608  18.605   7.726 -0.1325 -0.0060 -0.0313
  408loPI   C6A 6524   2.281  18.419   7.537 -0.3059  0.2504 -0.0983
  408loPI   C1B 6525   3.591  19.128   9.048  0.1604  0.2212 -0.1071
  408loPI   C2B 6526   3.387  19.023   8.605  0.1500  0.1740  0.0401
  408loPI   C3B 6527   3.293  18.960   8.196  0.1537 -0.0962 -0.3433
  408loPI   C4B 6528   3.155  18.733   7.872 -0.1127  0.3180 -0.2196
  409loPI    C1 6529  16.437   6.956   9.773  0.1893 -0.0002  0.0611
  409loPI    C2 6530  16.370   7.351   9.787 -0.2920 -0.0743  0.0344
  409loPI    C3 6531  16.694   7.196   9.964  0.0315  0.3557 -0.1625
  409loPI   PO4 6532  16.305   6.865   9.524 -0.0646 -0.0497 -0.0773
  409loPI   GL1 6533  16.225   6.976   9.109  0.1016 -0.1474 -0.3019
  409loPI   GL2 6534  16.526   7.123   9.062  0.3132  0.0437 -0.0443
  409loPI   C1A 6535  16.290   6.608   8.748  0.1464 -0.1061  0.1382
  409loPI   C2A 6536  16.260   6.448   8.372  0.0600 -0.3384 -0.1441
  409loPI   C3A 6537  16.263   6.312   7.893 -0.3431  0.0266 -0.0861
  409loPI   C4A 6538  16.501   6.276   7.603  0.2662  0.0871 -0.1037
  409loPI   C5A 6539  16.786   6.441   7.379  0.0499 -0.1053 -0.0500
  409loPI   C6A 6540  17.161   6.644   7.324  0.3874 -0.4248 -0.0023
  409loPI   C1B 6541  16.422   7.119   8.645 -0.3575  0.0127  0.1453
  409loPI   C2B 6542  16.478   6.894   8.265 -0.0325  0.1337 -0.1770
  409loPI   C3B 6543  16.437   6.885   7.817 -0.2694 -0.0333 -0.1341
  409loPI   C4B 6544  16.318   7.163   7.475  0.1348 -0.0390  0.0393
  410loPI    C1 6545   4.222   8.932   9.987  0.1198  0.0604  0.0838
  410loPI    C2 6546   4.371   8.620  10.188 -0.0186 -0.0776 -0.0256
  410loPI    C3 6547   4.427   8.991  10.326  0.0139 -0.1605  0.1886
  410loPI   PO4 6548   4.166   8.868   9.749  0.0319 -0.1149  0.1204
  410loPI   GL1 6549   4.264   8.945   9.319 -0.0850  0.0801 -0.1954
  410loPI   GL2 6550   4.239   9.244   9.448  0.1521  0.0626 -0.0983
  410loPI   C1A 6551   4.287   9.060   8.862  0.1644  0.3976  0.0543
  410loPI   C2A 6552   4.052   8.843   8.487 -0.1456 -0.0680 -0.0714
  410loPI   C3A 6553   3.710   8.648   8.217 -0.1258  0.1583 -0.0781
  410loPI   C4A 6554   3.313   8.484   8.164  0.4142  0.1000 -0.2363
  410loPI   C5A 6555   2.951   8.636   7.901 -0.3912 -0.2908 -0.1182
  410loPI   C6A 6556   2.595   8.459   7.505  0.2995  0.1365  0.1363
  410loPI   C1B 6557   4.005   9.402   9.116  0.4447 -0.0226  0.1278
  410loPI   C2B 6558   3.933   9.391   8.642 -0.2558 -0.2485 -0.3590
  410loPI   C3B 6559   4.194   9.425   8.323  0.1283  0.2840 -0.1083
  410loPI   C4B 6560   4.159   9.349   7.949  0.0416 -0.0684  0.0068
  411loPI    C1 6561  19.135   7.402   9.759  0.1595  0.0364 -0.0037
  411loPI    C2 6562  18.934   7.641  10.008 -0.0556 -0.0798 -0.0631
  411loPI    C3 6563  18.964   7.250  10.087 -0.0505 -0.1023 -0.1750
  411loPI   PO4 6564  18.990   7.365   9.511  0.1893  0.1054  0.0129
  411loPI   GL1 6565  18.840   7.234   9.153 -0.3948  0.2310  0.1238
  411loPI   GL2 6566  18.641   7.550   9.174  0.0871 -0.1038 -0.3063
  411loPI   C1A 6567  18.961   7.487   8.784  0.1506  0.2263  0.0867
  411loPI   C2A 6568  19.055   7.651   8.582 -0.0841 -0.0054  0.2320
  411loPI   C3A 6569  19.368   7.966   8.346  0.2680  0.0042  0.2758
  411loPI   C4A 6570  19.830   8.068   8.193 -0.0100  0.2654 -0.1093
  411loPI   C5A 6571  20.105   8.395   8.063  0.0846  0.3422 -0.0701
  411loPI   C6A 6572  20.141   8.735   8.358 -0.0702  0.2084  0.1032
  411loPI   C1B 6573  18.394   7.386   8.951 -0.1930  0.3067  0.2304
  411loPI   C2B 6574  18.281   7.226   8.524  0.0190  0.2166 -0.1806
  411loPI   C3B 6575  18.107   7.041   8.154  0.2333 -0.0173 -0.1521
  411loPI   C4B 6576  17.851   7.083   7.729 -0.3947  0.1016  0.3262
  412loPI    C1 6577  18.336  12.714  10.149 -0.0001  0.1397  0.0778
  412loPI    C2 6578  18.513  12.741  10.507  0.0765  0.0453  0.0474
  412loPI    C3 6579  18.123  12.658  10.483  0.0481  0.1583  0.1118
  412loPI   PO4 6580  18.371  12.938  10.042  0.0078  0.0327 -0.0353
  412loPI   GL1 6581  18.177  13.027   9.633 -0.0148  0.0439  0.0847
  412loPI   GL2 6582  18.167  12.707   9.587  0.1474 -0.1048 -0.1647
  412loPI   C1A 6583  18.516  13.119   9.278  0.0118 -0.1224 -0.2059
  412loPI   C2A 6584  18.877  13.187   8.922  0.1965 -0.1563 -0.0913
  412loPI   C3A 6585  18.958  13.549   8.848 -0.2336  0.1185 -0.2223
  412loPI   C4A 6586  18.836  13.665   8.398  0.1057  0.2468 -0.6226
  412loPI   C5A 6587  18.764  13.803   8.017 -0.0434  0.0774  0.0991
  412loPI   C6A 6588  18.838  13.830   7.452 -0.0033 -0.3175 -0.0168
  412loPI   C1B 6589  18.316  12.671   9.229  0.1570  0.0222  0.0336
  412loPI   C2B 6590  18.482  12.663   8.838  0.2229 -0.2141 -0.3883
  412loPI   C3B 6591  18.576  12.902   8.580  0.0055 -0.2490 -0.1478
  412loPI   C4B 6592  18.869  13.055   8.425 -0.0715  0.0136 -0.0835
  413loPI    C1 6593   6.029  17.837  10.099  0.1568  0.0274  0.1885
  413loPI    C2 6594   5.719  17.737  10.332 -0.0125  0.1015 -0.0014
  413loPI    C3 6595   6.088  17.753  10.486 -0.1013  0.0087  0.2260
  413loPI   PO4 6596   6.081  17.932   9.837 -0.3664 -0.2127  0.2505
  413loPI   GL1 6597   6.242  18.152   9.456  0.1048  0.0560 -0.1509
  413loPI   GL2 6598   6.655  18.307   9.417 -0.0974 -0.0362  0.1065
  413loPI   C1A 6599   6.110  18.020   9.095 -0.2316  0.2572 -0.0798
  413loPI   C2A 6600   6.317  18.370   8.836  0.0362 -0.0311  0.0143
  413loPI   C3A 6601   6.178  18.671   8.657 -0.0666 -0.1079  0.1470
  413loPI   C4A 6602   5.975  18.582   8.297  0.0362 -0.0370  0.1323
  413loPI   C5A 6603   5.792  18.416   7.848 -0.2242 -0.0741  0.1199
  413loPI   C6A 6604   5.406  18.366   7.848 -0.0672  0.1265  0.1188
  413loPI   C1B 6605   6.631  18.080   9.065  0.1308 -0.1288  0.1749
  413loPI   C2B 6606   6.647  18.118   8.557 -0.1865 -0.3592  0.1080
  413loPI   C3B 6607   6.899  17.927   8.259  0.0500  0.2039  0.0645
  413loPI   C4B 6608   7.166  18.001   7.920  0.2751  0.2703 -0.2860
  414loPI    C1 6609  17.157  11.994  10.004 -0.2497  0.1662 -0.0306
  414loPI    C2 6610  17.382  12.083   9.685 -0.0348 -0.1208  0.0374
  414loPI    C3 6611  17.466  12.245  10.041 -0.0390 -0.0979  0.0280
  414loPI   PO4 6612  16.976  11.828   9.870  0.0968  0.1407 -0.0592
  414loPI   GL1 6613  16.859  11.911   9.426  0.0076  0.0447  0.0374
  414loPI   GL2 6614  16.519  11.648   9.402 -0.1435 -0.1113  0.3253
  414loPI   C1A 6615  16.913  11.830   9.075  0.0129  0.0931 -0.4098
  414loPI   C2A 6616  16.986  11.523   8.639  0.1165 -0.0552  0.2716
  414loPI   C3A 6617  17.031  11.510   8.207 -0.1692  0.1609 -0.1920
  414loPI   C4A 6618  16.702  11.576   7.901  0.2262  0.0239  0.1948
  414loPI   C5A 6619  16.306  11.542   7.587  0.0013 -0.1678  0.0259
  414loPI   C6A 6620  16.049  11.805   7.232  0.0009 -0.0338  0.1802
  414loPI   C1B 6621  16.439  11.862   9.081  0.0683 -0.0286 -0.2124
  414loPI   C2B 6622  16.634  11.918   8.728  0.4658 -0.0258  0.0006
  414loPI   C3B 6623  16.738  11.967   8.474  0.0648 -0.0695  0.1541
  414loPI   C4B 6624  17.014  11.996   8.182  0.2077  0.1665 -0.1198
  415loPI    C1 6625   8.970  14.651  10.142  0.3011  0.1063 -0.0891
  415loPI    C2 6626   9.146  14.305  10.236 -0.0842 -0.0684  0.0100
  415loPI    C3 6627   9.333  14.651  10.308  0.3517 -0.2544 -0.1925
  415loPI   PO4 6628   8.921  14.434   9.813  0.4203  0.2046  0.4821
  415loPI   GL1 6629   8.954  14.431   9.369  0.2945  0.0672  0.0218
  415loPI   GL2 6630   9.349  14.461   9.317  0.1926  0.0261 -0.2294
  415loPI   C1A 6631   8.764  14.567   8.998  0.1323  0.2935 -0.0501
  415loPI   C2A 6632   8.565  14.871   8.672 -0.1663 -0.1994  0.3205
  415loPI   C3A 6633   8.508  15.138   8.315 -0.1860 -0.3322 -0.1975
  415loPI   C4A 6634   8.353  15.472   8.136 -0.0229  0.0526 -0.0424
  415loPI   C5A 6635   8.356  15.692   7.758  0.0235  0.2590  0.5378
  415loPI   C6A 6636   8.030  15.840   7.482 -0.2906 -0.0678 -0.1854
  415loPI   C1B 6637   9.671  14.588   9.019  0.0558  0.0053 -0.0623
  415loPI   C2B 6638   9.734  14.623   8.616  0.0169 -0.1379  0.2395
  415loPI   C3B 6639   9.787  14.585   8.234 -0.4683  0.0939 -0.2351
  415loPI   C4B 6640   9.889  14.952   8.013 -0.1523 -0.0130  0.1787
  416loPI    C1 6641  13.465  16.768  10.018 -0.2726  0.0079 -0.0784
  416loPI    C2 6642  13.630  16.525  10.289  0.1722  0.3264 -0.0511
  416loPI    C3 6643  13.353  16.791  10.401 -0.0329  0.1002 -0.0118
  416loPI   PO4 6644  13.709  16.845   9.900  0.0939 -0.0981 -0.0815
  416loPI   GL1 6645  13.905  16.831   9.566  0.1689  0.0075 -0.2228
  416loPI   GL2 6646  13.742  17.055   9.425  0.0145 -0.1123 -0.0901
  416loPI   C1A 6647  14.162  16.835   9.206  0.1188 -0.5269 -0.0900
  416loPI   C2A 6648  14.215  16.801   8.789 -0.2239 -0.1179 -0.2887
  416loPI   C3A 6649  14.267  16.815   8.414 -0.1750  0.0432  0.1231
  416loPI   C4A 6650  14.214  16.838   8.009 -0.2981  0.1746  0.1304
  416loPI   C5A 6651  14.058  16.695   7.570  0.0643  0.0571  0.1289
  416loPI   C6A 6652  14.269  16.478   7.122 -0.1660 -0.0775 -0.0567
  416loPI   C1B 6653  13.828  17.134   8.932  0.1422 -0.3353  0.1263
  416loPI   C2B 6654  13.842  17.086   8.494  0.0237 -0.1459  0.1388
  416loPI   C3B 6655  13.720  17.226   8.145  0.0396 -0.0139 -0.1263
  416loPI   C4B 6656  13.955  17.194   7.755  0.1957  0.0248  0.0633
  417loPI    C1 6657   3.960  17.140  10.243 -0.0074  0.1933  0.5587
  417loPI    C2 6658   4.206  16.840  10.142 -0.0351  0.3730 -0.0895
  417loPI    C3 6659   4.323  17.114  10.409  0.2525  0.1589  0.0087
  417loPI   PO4 6660   3.907  17.250   9.955 -0.2336  0.0793 -0.0960
  417loPI   GL1 6661   4.032  17.473   9.575  0.1075 -0.5621  0.2147
  417loPI   GL2 6662   4.317  17.545   9.722  0.1519  0.0755  0.0013
  417loPI   C1A 6663   3.716  17.562   9.281 -0.2072 -0.1827 -0.1134
  417loPI   C2A 6664   3.599  17.701   8.861  0.2293  0.1169 -0.1902
  417loPI   C3A 6665   3.815  17.653   8.439 -0.1775 -0.1699  0.1026
  417loPI   C4A 6666   3.986  17.426   8.083 -0.0592  0.1724 -0.1958
  417loPI   C5A 6667   4.384  17.230   7.997  0.1945  0.1766  0.0011
  417loPI   C6A 6668   4.769  17.061   7.847 -0.1562  0.3464 -0.0367
  417loPI   C1B 6669   4.484  17.714   9.347 -0.0211  0.0442 -0.1116
  417loPI   C2B 6670   4.504  17.745   8.889 -0.2738  0.3656  0.2627
  417loPI   C3B 6671   4.806  17.492   8.642  0.0599  0.4178  0.1827
  417loPI   C4B 6672   4.803  17.047   8.366  0.3069 -0.0960  0.0367
  418loPI    C1 6673   8.676   7.289   9.767 -0.1387 -0.0347 -0.0202
  418loPI    C2 6674   8.793   7.509  10.079 -0.0914 -0.0280 -0.0425
  418loPI    C3 6675   8.424   7.355  10.070 -0.0343 -0.1761  0.0990
  418loPI   PO4 6676   8.704   7.382   9.598  0.1526 -0.1846 -0.0769
  418loPI   GL1 6677   8.916   7.694   9.278  0.1383 -0.0917 -0.0916
  418loPI   GL2 6678   8.859   7.413   9.110 -0.2254  0.0171 -0.1218
  418loPI   C1A 6679   9.114   7.901   8.874 -0.0665 -0.2367  0.0700
  418loPI   C2A 6680   9.142   7.982   8.344 -0.3264  0.0857  0.0841
  418loPI   C3A 6681   9.247   7.822   7.932 -0.0637  0.0191  0.0697
  418loPI   C4A 6682   9.193   7.673   7.449 -0.1583  0.3900  0.4048
  418loPI   C5A 6683   9.266   7.416   7.028  0.3525  0.4535  0.3227
  418loPI   C6A 6684   9.221   7.452   6.556 -0.3297  0.1016  0.2959
  418loPI   C1B 6685   8.912   7.572   8.577  0.1833 -0.0920 -0.3665
  418loPI   C2B 6686   8.853   7.659   8.125 -0.2113  0.3471  0.1284
  418loPI   C3B 6687   9.008   7.399   7.800  0.4511  0.2501  0.1844
  418loPI   C4B 6688   9.265   7.152   7.535  0.1312  0.1753  0.0944
  419loPI    C1 6689  18.040  17.689  10.119  0.0008 -0.0191  0.0106
  419loPI    C2 6690  17.730  17.437  10.103 -0.1159  0.1194  0.0611
  419loPI    C3 6691  17.739  17.725  10.380  0.1698 -0.0275  0.2094
  419loPI   PO4 6692  18.106  17.813   9.888  0.0740  0.1445  0.0207
  419loPI   GL1 6693  18.072  17.955   9.479 -0.0056 -0.0759  0.0895
  419loPI   GL2 6694  17.887  17.775   9.345  0.0531  0.0309 -0.0141
  419loPI   C1A 6695  18.452  18.116   9.317 -0.1889 -0.2933 -0.1310
  419loPI   C2A 6696  18.446  18.389   9.054 -0.3116 -0.0612  0.0746
  419loPI   C3A 6697  18.643  18.555   8.766 -0.0200 -0.1311  0.0161
  419loPI   C4A 6698  18.501  18.562   8.298  0.0284 -0.4070 -0.0327
  419loPI   C5A 6699  18.445  18.699   7.990  0.2771  0.0006 -0.0605
  419loPI   C6A 6700  18.371  19.063   7.732 -0.0909 -0.5609  0.0555
  419loPI   C1B 6701  17.677  17.824   8.895 -0.2020 -0.2735 -0.1983
  419loPI   C2B 6702  17.774  17.897   8.436 -0.1189 -0.1407  0.0313
  419loPI   C3B 6703  17.637  18.225   8.241 -0.0065  0.0620  0.3815
  419loPI   C4B 6704  17.804  18.589   8.237  0.0785  0.1971  0.1663
  420loPI    C1 6705   8.715   6.756   9.794 -0.1066 -0.0720 -0.0234
  420loPI    C2 6706   8.673   6.939  10.148 -0.1074  0.1946 -0.1587
  420loPI    C3 6707   8.754   6.548  10.133  0.0268  0.2086  0.1376
  420loPI   PO4 6708   8.462   6.860   9.662  0.0166  0.2030 -0.1816
  420loPI   GL1 6709   8.361   6.881   9.269  0.3196  0.0900 -0.1222
  420loPI   GL2 6710   8.504   7.119   9.248  0.1297  0.0260  0.0855
  420loPI   C1A 6711   8.256   6.712   8.773  0.3013 -0.1666  0.0069
  420loPI   C2A 6712   8.116   6.630   8.350  0.1828 -0.2535  0.3227
  420loPI   C3A 6713   8.135   6.502   7.945  0.4367 -0.0855 -0.0986
  420loPI   C4A 6714   7.976   6.727   7.540  0.0676  0.0968 -0.0436
  420loPI   C5A 6715   7.739   7.128   7.323  0.0594 -0.2016 -0.0578
  420loPI   C6A 6716   7.644   7.579   7.189 -0.2376  0.0975  0.0533
  420loPI   C1B 6717   8.634   7.107   8.851 -0.0601 -0.0208 -0.2902
  420loPI   C2B 6718   8.422   7.005   8.414 -0.1158 -0.0165  0.2073
  420loPI   C3B 6719   8.530   6.771   8.007  0.0123  0.0880  0.2509
  420loPI   C4B 6720   8.744   6.936   7.671 -0.1936 -0.0109  0.1114
  421loPI    C1 6721  15.049  16.004  10.023  0.1736  0.3849 -0.0354
  421loPI    C2 6722  15.389  15.840  10.158  0.0229  0.0900 -0.0058
  421loPI    C3 6723  15.246  16.174  10.327  0.1903  0.1010  0.1158
  421loPI   PO4 6724  15.089  16.051   9.755  0.2493  0.2619 -0.1548
  421loPI   GL1 6725  14.897  15.840   9.444 -0.3210  0.0886 -0.1452
  421loPI   GL2 6726  14.702  15.578   9.379  0.1451  0.0855 -0.1780
  421loPI   C1A 6727  15.214  15.928   9.098 -0.0605  0.2418  0.1470
  421loPI   C2A 6728  15.080  15.894   8.630 -0.1747  0.3368 -0.0237
  421loPI   C3A 6729  15.208  15.708   8.323  0.4473  0.0776  0.2749
  421loPI   C4A 6730  14.999  15.669   8.013  0.0719  0.0065  0.4290
  421loPI   C5A 6731  14.729  15.582   7.580 -0.4344 -0.3410  0.0404
  421loPI   C6A 6732  14.398  15.756   7.486  0.1449 -0.2388  0.2110
  421loPI   C1B 6733  14.688  15.430   9.065  0.1772  0.0441  0.1696
  421loPI   C2B 6734  14.699  15.524   8.650 -0.0144  0.0960 -0.2848
  421loPI   C3B 6735  14.562  15.659   8.299 -0.1889  0.0233  0.1383
  421loPI   C4B 6736  14.507  15.935   7.932 -0.0536 -0.0672 -0.2773
  422loPI    C1 6737   0.308   3.953   9.845  0.1117 -0.2935  0.1639
  422loPI    C2 6738   0.278   3.919  10.243  0.0024  0.0529  0.1884
  422loPI    C3 6739   0.553   3.707  10.044 -0.0808 -0.2811  0.4217
  422loPI   PO4 6740   0.105   3.848   9.627 -0.1666  0.1047 -0.1946
  422loPI   GL1 6741   0.264   3.929   9.277  0.0241 -0.2367 -0.0781
  422loPI   GL2 6742   0.116   3.566   9.259 -0.2207 -0.0152  0.1816
  422loPI   C1A 6743   0.153   4.259   9.085 -0.1933  0.1224 -0.1119
  422loPI   C2A 6744  -0.156   4.526   8.779 -0.2654  0.0788 -0.3043
  422loPI   C3A 6745  -0.302   4.398   8.354 -0.3210  0.0484 -0.1749
  422loPI   C4A 6746  -0.307   4.350   7.985 -0.4633 -0.0593  0.0529
  422loPI   C5A 6747  -0.158   4.244   7.696  0.0513 -0.2750 -0.2435
  422loPI   C6A 6748   0.010   4.099   7.286 -0.3662 -0.0804 -0.0844
  422loPI   C1B 6749   0.266   3.535   8.887  0.2522  0.0882  0.2413
  422loPI   C2B 6750   0.335   3.783   8.477 -0.0436 -0.0488  0.2163
  422loPI   C3B 6751   0.565   3.785   8.048  0.1202  0.0783 -0.1866
  422loPI   C4B 6752   0.493   4.047   7.717  0.4341  0.0397  0.0638
  423loPI    C1 6753   3.902   3.070  10.151  0.1848  0.2046  0.1041
  423loPI    C2 6754   4.149   2.757  10.112  0.0332  0.0527  0.3298
  423loPI    C3 6755   3.760   2.697  10.180 -0.0769  0.2897 -0.0569
  423loPI   PO4 6756   3.864   3.273   9.833  0.1985  0.3909 -0.0593
  423loPI   GL1 6757   3.721   3.552   9.436 -0.1938  0.1458 -0.1206
  423loPI   GL2 6758   3.955   3.658   9.544  0.4044 -0.2769 -0.0505
  423loPI   C1A 6759   3.525   3.455   9.087 -0.0483 -0.1478  0.0022
  423loPI   C2A 6760   3.708   3.542   8.659  0.0163  0.0405  0.1498
  423loPI   C3A 6761   3.686   3.435   8.275 -0.1431 -0.1246 -0.0205
  423loPI   C4A 6762   3.368   3.540   8.000  0.1190  0.0453 -0.1867
  423loPI   C5A 6763   3.260   3.926   7.819  0.0478  0.0001 -0.3964
  423loPI   C6A 6764   3.099   4.256   7.879  0.1524  0.1979 -0.0844
  423loPI   C1B 6765   4.121   3.634   9.075 -0.0559 -0.0768 -0.3160
  423loPI   C2B 6766   4.183   3.637   8.660 -0.0777  0.0280  0.0876
  423loPI   C3B 6767   4.162   3.956   8.312 -0.0752  0.1678 -0.2349
  423loPI   C4B 6768   4.027   4.205   8.029  0.4021  0.2902 -0.0495
  424loPI    C1 6769  15.986   8.563   9.523 -0.1037 -0.0537 -0.0854
  424loPI    C2 6770  16.152   8.365   9.828 -0.3016 -0.1282 -0.0246
  424loPI    C3 6771  16.383   8.522   9.542 -0.1154 -0.0693  0.1558
  424loPI   PO4 6772  15.823   8.464   9.387  0.2148 -0.0052  0.0128
  424loPI   GL1 6773  15.715   8.286   9.074  0.1591  0.1029  0.0188
  424loPI   GL2 6774  15.789   8.513   8.889  0.0858 -0.1329  0.1509
  424loPI   C1A 6775  15.547   8.101   8.613  0.2281 -0.2918  0.1925
  424loPI   C2A 6776  15.311   8.076   8.233 -0.2117 -0.3108 -0.0739
  424loPI   C3A 6777  15.175   7.942   7.702 -0.0775  0.0844  0.0091
  424loPI   C4A 6778  15.217   7.904   7.286 -0.0569  0.3965  0.1050
  424loPI   C5A 6779  15.198   7.809   6.904  0.3283 -0.1629 -0.1093
  424loPI   C6A 6780  15.169   7.460   6.704  0.1087  0.0217  0.4253
  424loPI   C1B 6781  15.623   8.546   8.429 -0.3417  0.0157 -0.0766
  424loPI   C2B 6782  15.690   8.370   8.011 -0.4737 -0.2274  0.1359
  424loPI   C3B 6783  15.694   8.152   7.632  0.0421 -0.1866 -0.3375
  424loPI   C4B 6784  15.642   8.174   7.114  0.1237 -0.0412 -0.1128
  425loPI    C1 6785   1.689  13.792  10.315 -0.2845 -0.1397  0.1018
  425loPI    C2 6786   1.595  13.970  10.661  0.1688  0.1820  0.0684
  425loPI    C3 6787   1.863  13.673  10.654  0.0156  0.0430  0.0154
  425loPI   PO4 6788   1.580  14.027  10.169 -0.2956 -0.1955  0.2600
  425loPI   GL1 6789   1.314  14.074   9.821 -0.2360 -0.1441  0.1395
  425loPI   GL2 6790   1.670  13.930   9.634  0.1135  0.2451 -0.0125
  425loPI   C1A 6791   1.330  14.277   9.444  0.1310 -0.0170 -0.2055
  425loPI   C2A 6792   1.292  14.437   9.010 -0.0575 -0.1577 -0.0940
  425loPI   C3A 6793   1.319  14.318   8.608 -0.3059 -0.0768 -0.0291
  425loPI   C4A 6794   1.396  13.997   8.392 -0.0592  0.0691 -0.1901
  425loPI   C5A 6795   1.540  13.640   8.257  0.0949 -0.1446 -0.3052
  425loPI   C6A 6796   1.513  13.425   7.986  0.2429 -0.0582 -0.0768
  425loPI   C1B 6797   1.661  13.995   9.149 -0.1760 -0.0443  0.0033
  425loPI   C2B 6798   1.769  14.013   8.734  0.0301 -0.1535  0.2175
  425loPI   C3B 6799   1.901  13.951   8.320 -0.1382 -0.2681  0.0227
  425loPI   C4B 6800   1.578  14.049   7.957 -0.2365 -0.3513  0.2940
  426loPI    C1 6801   1.067  16.400  10.113  0.0762  0.3506  0.1068
  426loPI    C2 6802   1.337  16.105  10.127 -0.3491 -0.0756 -0.2852
  426loPI    C3 6803   1.458  16.485  10.099  0.2147 -0.1775  0.4536
  426loPI   PO4 6804   0.862  16.278   9.984  0.2184  0.0138 -0.0167
  426loPI   GL1 6805   0.772  16.182   9.514 -0.2253 -0.0959 -0.0304
  426loPI   GL2 6806   0.556  16.453   9.606 -0.0657 -0.0500 -0.1451
  426loPI   C1A 6807   0.815  16.499   9.110  0.0215 -0.0481  0.3430
  426loPI   C2A 6808   0.674  16.561   8.751 -0.1128 -0.0354 -0.1285
  426loPI   C3A 6809   0.676  16.622   8.311 -0.1060  0.0917  0.2234
  426loPI   C4A 6810   0.577  16.290   8.084 -0.4187 -0.1978  0.0364
  426loPI   C5A 6811   0.447  16.055   7.734  0.0213  0.0744  0.1999
  426loPI   C6A 6812   0.435  15.640   7.867  0.0811  0.2053  0.0765
  426loPI   C1B 6813   0.314  16.558   9.208  0.0844  0.0911  0.0189
  426loPI   C2B 6814   0.138  16.477   8.814  0.0897 -0.2910  0.2316
  426loPI   C3B 6815   0.187  16.268   8.405  0.0593 -0.2225 -0.0063
  426loPI   C4B 6816   0.232  15.849   8.280 -0.1582  0.0020  0.0214
  427loPI    C1 6817  17.697   4.910   9.977  0.0787  0.4768  0.0625
  427loPI    C2 6818  17.958   4.726  10.217 -0.1576 -0.0085 -0.0398
  427loPI    C3 6819  17.820   5.089  10.312  0.0141 -0.0468  0.3768
  427loPI   PO4 6820  17.814   4.841   9.679 -0.1063 -0.1893  0.0918
  427loPI   GL1 6821  18.093   4.782   9.447  0.2468 -0.4413 -0.0966
  427loPI   GL2 6822  18.329   4.654   9.300 -0.2063 -0.0618  0.0054
  427loPI   C1A 6823  17.911   4.754   9.017  0.1766 -0.0882 -0.0553
  427loPI   C2A 6824  18.020   4.824   8.625  0.2102 -0.3124 -0.1054
  427loPI   C3A 6825  18.078   4.953   8.198 -0.0007  0.0531 -0.0911
  427loPI   C4A 6826  18.160   5.040   7.821  0.1047 -0.1407  0.1015
  427loPI   C5A 6827  18.243   5.275   7.431 -0.0698  0.5360 -0.2532
  427loPI   C6A 6828  18.112   5.715   7.361 -0.1049 -0.1369  0.0064
  427loPI   C1B 6829  18.466   4.745   8.926  0.1559  0.1756  0.0262
  427loPI   C2B 6830  18.516   4.730   8.499 -0.1141  0.2270 -0.0091
  427loPI   C3B 6831  18.507   4.692   8.045  0.2062 -0.2945 -0.0946
  427loPI   C4B 6832  18.668   4.599   7.627  0.0860  0.2015 -0.0245
  428loPI    C1 6833   6.968   6.733  10.003  0.0402 -0.2066 -0.3033
  428loPI    C2 6834   7.299   6.778   9.784  0.1598 -0.3075 -0.1457
  428loPI    C3 6835   7.266   6.965  10.136 -0.0738 -0.0645 -0.2924
  428loPI   PO4 6836   6.849   6.547   9.820 -0.1890  0.0401  0.4934
  428loPI   GL1 6837   6.550   6.440   9.525  0.1112  0.1811  0.1170
  428loPI   GL2 6838   6.821   6.201   9.324  0.1269  0.0521 -0.1252
  428loPI   C1A 6839   6.164   6.538   9.335  0.2303  0.2583 -0.3977
  428loPI   C2A 6840   5.850   6.598   8.981 -0.4622 -0.0204  0.3326
  428loPI   C3A 6841   5.764   6.675   8.576 -0.0102 -0.3415  0.1136
  428loPI   C4A 6842   5.596   6.914   8.284  0.0920  0.1928 -0.0659
  428loPI   C5A 6843   5.345   6.798   7.949  0.0309 -0.0318 -0.0329
  428loPI   C6A 6844   5.086   6.659   7.666  0.0619  0.0141  0.1137
  428loPI   C1B 6845   7.070   6.236   8.930  0.3362 -0.0967 -0.0846
  428loPI   C2B 6846   7.306   6.257   8.546 -0.5228  0.3819  0.0904
  428loPI   C3B 6847   7.460   6.345   8.173  0.1751 -0.0139 -0.2989
  428loPI   C4B 6848   7.687   6.275   7.791 -0.0735 -0.2257 -0.1815
  429loPI    C1 6849  18.270  18.609  10.548 -0.1482  0.1046  0.1238
  429loPI    C2 6850  18.076  18.925  10.397 -0.0776  0.0466 -0.0915
  429loPI    C3 6851  17.873  18.640  10.590 -0.1877  0.0587 -0.1883
  429loPI   PO4 6852  18.410  18.551  10.213 -0.0453  0.2586  0.2352
  429loPI   GL1 6853  18.261  18.397   9.819 -0.1690 -0.1895  0.2860
  429loPI   GL2 6854  18.065  18.499   9.576 -0.0217 -0.0900  0.0800
  429loPI   C1A 6855  18.587  18.635   9.541 -0.0115 -0.2022  0.0196
  429loPI   C2A 6856  18.639  18.903   9.184  0.2844  0.1694  0.1115
  429loPI   C3A 6857  18.524  19.093   8.735  0.2249 -0.1829 -0.1023
  429loPI   C4A 6858  18.563  19.077   8.345 -0.2575 -0.0112 -0.2426
  429loPI   C5A 6859  18.826  19.052   7.969 -0.4314 -0.0838 -0.0926
  429loPI   C6A 6860  18.849  19.018   7.492 -0.1543 -0.1004 -0.2712
  429loPI   C1B 6861  17.901  18.347   9.085  0.2928 -0.1968 -0.0507
  429loPI   C2B 6862  17.664  18.331   8.725 -0.0784  0.0849  0.0889
  429loPI   C3B 6863  17.336  18.052   8.592 -0.4351 -0.2021 -0.1265
  429loPI   C4B 6864  17.179  17.967   8.094  0.1209 -0.1661 -0.0348
  430loPI    C1 6865   9.972  18.147   9.926 -0.0787  0.1160 -0.0161
  430loPI    C2 6866  10.057  18.052  10.305  0.3078 -0.1823 -0.1699
  430loPI    C3 6867  10.332  18.000  10.020 -0.0032 -0.0299 -0.5056
  430loPI   PO4 6868   9.660  17.956   9.893  0.4607  0.3500 -0.0887
  430loPI   GL1 6869   9.701  17.735   9.471  0.1634  0.0192 -0.2474
  430loPI   GL2 6870   9.968  17.901   9.421 -0.1157  0.1905  0.0514
  430loPI   C1A 6871   9.290  17.966   9.244  0.1125  0.0558 -0.0320
  430loPI   C2A 6872   9.225  17.964   8.816  0.1332  0.2361 -0.1742
  430loPI   C3A 6873   9.202  18.082   8.409 -0.2270 -0.2838 -0.2926
  430loPI   C4A 6874   9.118  17.763   7.978  0.2197 -0.2063 -0.0448
  430loPI   C5A 6875   8.818  17.415   7.624 -0.0402 -0.1357 -0.1698
  430loPI   C6A 6876   8.406  17.450   7.586 -0.0525 -0.0460 -0.1559
  430loPI   C1B 6877   9.733  17.650   8.997 -0.1437  0.4392 -0.3390
  430loPI   C2B 6878   9.772  17.420   8.642 -0.0660 -0.0443  0.0500
  430loPI   C3B 6879   9.884  17.518   8.258  0.1058  0.1475  0.2021
  430loPI   C4B 6880   9.924  17.675   7.814  0.1078  0.1001  0.0990
  431loPI    C1 6881  16.894   9.953  10.360 -0.0373  0.0432  0.1599
  431loPI    C2 6882  16.527  10.032  10.220  0.0403  0.0211 -0.0591
  431loPI    C3 6883  16.702  10.285  10.476 -0.0307  0.1563 -0.1431
  431loPI   PO4 6884  16.993   9.814  10.029  0.4477 -0.0327  0.1651
  431loPI   GL1 6885  16.912  10.120   9.690 -0.3453  0.1755 -0.1491
  431loPI   GL2 6886  17.275  10.242   9.570  0.2724  0.2946 -0.1105
  431loPI   C1A 6887  16.649  10.275   9.328 -0.0359  0.1976  0.2792
  431loPI   C2A 6888  16.386  10.259   8.973  0.2224 -0.1827 -0.0449
  431loPI   C3A 6889  16.276  10.426   8.603  0.1153  0.2498  0.1709
  431loPI   C4A 6890  16.379  10.485   8.206  0.0666  0.0226  0.4343
  431loPI   C5A 6891  16.310  10.592   7.807 -0.1813 -0.0518  0.0508
  431loPI   C6A 6892  16.048  10.685   7.401  0.1040  0.2277 -0.1915
  431loPI   C1B 6893  17.235  10.320   9.254  0.3114 -0.0470 -0.1672
  431loPI   C2B 6894  17.492  10.347   8.838 -0.0592 -0.0802  0.0924
  431loPI   C3B 6895  17.730  10.561   8.641  0.0884  0.1639 -0.2230
  431loPI   C4B 6896  17.932  10.573   8.200  0.2197 -0.2416 -0.0706
  432loPI    C1 6897   7.823  16.949   9.976 -0.0579  0.1108  0.0578
  432loPI    C2 6898   8.157  16.781  10.120 -0.2879 -0.1270  0.3273
  432loPI    C3 6899   8.008  17.110  10.292  0.2271  0.4472 -0.2721
  432loPI   PO4 6900   7.833  16.992   9.730  0.0759 -0.1034 -0.0239
  432loPI   GL1 6901   7.763  16.624   9.468 -0.0471 -0.1979  0.1336
  432loPI   GL2 6902   7.785  16.868   9.242 -0.2199 -0.1279 -0.1807
  432loPI   C1A 6903   7.529  16.498   9.169  0.1847  0.3808  0.2239
  432loPI   C2A 6904   7.542  16.537   8.731  0.0149 -0.0193 -0.1719
  432loPI   C3A 6905   7.548  16.651   8.229 -0.1008 -0.0011 -0.1060
  432loPI   C4A 6906   7.722  16.859   7.970 -0.0590 -0.0585  0.1214
  432loPI   C5A 6907   7.854  17.263   7.933 -0.0635  0.2301  0.0173
  432loPI   C6A 6908   7.834  17.612   8.230  0.0278  0.1380 -0.0104
  432loPI   C1B 6909   7.914  16.932   8.827 -0.1516  0.1278  0.1524
  432loPI   C2B 6910   7.875  16.936   8.457 -0.3047 -0.3145 -0.3120
  432loPI   C3B 6911   8.200  16.903   8.090 -0.0562 -0.0588  0.0244
  432loPI   C4B 6912   8.175  17.004   7.627 -0.0267  0.0892 -0.0095
  433loPI    C1 6913  18.446   7.721   9.815 -0.1366  0.1655  0.1665
  433loPI    C2 6914  18.250   7.685   9.468  0.2652 -0.0422 -0.0450
  433loPI    C3 6915  18.054   7.642   9.814 -0.1078  0.0055 -0.2458
  433loPI   PO4 6916  18.589   7.910   9.745  0.3110 -0.1105 -0.0034
  433loPI   GL1 6917  18.692   8.040   9.341 -0.0051 -0.0419 -0.0599
  433loPI   GL2 6918  18.420   8.304   9.418 -0.0159 -0.2643 -0.0734
  433loPI   C1A 6919  18.810   7.976   8.953 -0.1806 -0.3109 -0.1467
  433loPI   C2A 6920  18.719   8.036   8.509 -0.2653  0.0030 -0.0613
  433loPI   C3A 6921  18.717   8.246   8.202  0.1191 -0.0381 -0.2965
  433loPI   C4A 6922  18.926   8.228   7.880  0.0508  0.2437 -0.2479
  433loPI   C5A 6923  19.244   8.418   7.639  0.1109 -0.0220 -0.2207
  433loPI   C6A 6924  19.425   8.548   7.240  0.0138 -0.5352 -0.2017
  433loPI   C1B 6925  18.145   8.465   8.976 -0.1962  0.0194  0.1466
  433loPI   C2B 6926  17.986   8.268   8.616 -0.2762 -0.1389 -0.3038
  433loPI   C3B 6927  18.173   8.089   8.314  0.2520  0.2066 -0.3122
  433loPI   C4B 6928  18.415   7.776   8.092  0.0684  0.2466 -0.4149
  434loPI    C1 6929   4.133  14.185  10.388  0.0102  0.0443 -0.1073
  434loPI    C2 6930   4.412  14.468  10.340 -0.0069  0.0739 -0.0324
  434loPI    C3 6931   4.520  14.085  10.374  0.0502  0.1186  0.3333
  434loPI   PO4 6932   3.910  14.235  10.166  0.0539 -0.1666 -0.1289
  434loPI   GL1 6933   3.646  14.078   9.843  0.3428  0.0480 -0.0604
  434loPI   GL2 6934   3.678  14.463   9.760  0.2904 -0.1498 -0.0807
  434loPI   C1A 6935   3.492  14.178   9.399  0.3458  0.2130  0.0623
  434loPI   C2A 6936   3.697  14.426   9.012  0.0136  0.0042  0.1552
  434loPI   C3A 6937   3.810  14.457   8.643 -0.1040 -0.1813 -0.1742
  434loPI   C4A 6938   3.602  14.490   8.144 -0.1370  0.1959 -0.2510
  434loPI   C5A 6939   3.387  14.248   7.787  0.0712 -0.1231  0.0744
  434loPI   C6A 6940   3.092  14.273   7.481  0.2184  0.1358 -0.0504
  434loPI   C1B 6941   3.979  14.415   9.413 -0.1388 -0.0389  0.0796
  434loPI   C2B 6942   4.287  14.364   9.067 -0.1922 -0.2287 -0.1281
  434loPI   C3B 6943   4.313  14.436   8.616 -0.1061 -0.2120 -0.1432
  434loPI   C4B 6944   4.132  14.511   8.251  0.4337 -0.1707 -0.2632
  435loPI    C1 6945   3.042   6.479   9.827 -0.0777  0.0247  0.1449
  435loPI    C2 6946   2.875   6.841   9.805 -0.1820 -0.0273  0.0691
  435loPI    C3 6947   3.070   6.730  10.137 -0.0693  0.1320  0.0576
  435loPI   PO4 6948   3.086   6.445   9.558 -0.1621 -0.0865  0.4577
  435loPI   GL1 6949   2.764   6.603   9.293  0.1969 -0.0581 -0.0787
  435loPI   GL2 6950   2.667   6.317   9.213 -0.0959  0.0127 -0.0632
  435loPI   C1A 6951   2.897   6.749   8.889  0.1067  0.0493  0.3064
  435loPI   C2A 6952   3.054   7.022   8.583 -0.0868 -0.0713 -0.2969
  435loPI   C3A 6953   3.028   7.242   8.181 -0.1782  0.1980  0.1157
  435loPI   C4A 6954   3.284   7.113   7.749  0.1336  0.0738  0.0164
  435loPI   C5A 6955   3.461   6.740   7.527  0.1496  0.0208 -0.2896
  435loPI   C6A 6956   3.285   6.304   7.548 -0.1209 -0.1114 -0.0847
  435loPI   C1B 6957   2.786   6.271   8.887 -0.3192 -0.1826 -0.2341
  435loPI   C2B 6958   2.676   6.216   8.489  0.1654 -0.0264  0.1305
  435loPI   C3B 6959   2.482   5.917   8.041 -0.1192  0.0085  0.0354
  435loPI   C4B 6960   2.206   5.523   7.761 -0.2077 -0.0067 -0.0343
  436loPI    C1 6961  11.533   3.478   9.792 -0.0080  0.0802 -0.0943
  436loPI    C2 6962  11.140   3.453   9.722 -0.0100 -0.0641 -0.0366
  436loPI    C3 6963  11.315   3.811   9.755 -0.0805  0.0047 -0.3708
  436loPI   PO4 6964  11.665   3.292   9.633  0.1006  0.1762  0.1185
  436loPI   GL1 6965  11.846   3.077   9.256  0.1620 -0.1237 -0.1064
  436loPI   GL2 6966  11.934   3.409   9.158  0.0463 -0.1785  0.0360
  436loPI   C1A 6967  11.808   3.037   8.792 -0.2104 -0.0916 -0.2989
  436loPI   C2A 6968  11.925   2.863   8.474  0.3598  0.1514 -0.1503
  436loPI   C3A 6969  11.963   2.807   8.023  0.0717  0.2114 -0.0026
  436loPI   C4A 6970  11.764   2.984   7.698  0.5485  0.2335  0.2687
  436loPI   C5A 6971  11.651   3.318   7.439  0.1617 -0.0695  0.0492
  436loPI   C6A 6972  11.471   3.532   7.185  0.0043 -0.0971  0.1469
  436loPI   C1B 6973  11.799   3.570   8.858 -0.2224  0.1592  0.1026
  436loPI   C2B 6974  11.855   3.525   8.517  0.1019 -0.1225 -0.0675
  436loPI   C3B 6975  12.041   3.837   8.095 -0.0261  0.2365 -0.3416
  436loPI   C4B 6976  12.370   3.599   8.076 -0.0006  0.0079  0.0955
  437loPI    C1 6977   9.443   1.295  10.294  0.0047  0.0243  0.0598
  437loPI    C2 6978   9.400   0.920  10.425 -0.2535  0.1129  0.2369
  437loPI    C3 6979   9.747   1.112  10.477 -0.0045 -0.2133 -0.1564
  437loPI   PO4 6980   9.376   1.280   9.974 -0.0354  0.0746 -0.0637
  437loPI   GL1 6981   9.614   1.106   9.577  0.0868 -0.2122  0.1266
  437loPI   GL2 6982   9.928   1.067   9.474 -0.0597 -0.1564 -0.2262
  437loPI   C1A 6983   9.659   1.350   9.181  0.1019  0.1418  0.0469
  437loPI   C2A 6984   9.720   1.312   8.801  0.5814 -0.1293  0.0710
  437loPI   C3A 6985   9.870   1.255   8.459 -0.1019 -0.0075 -0.2710
  437loPI   C4A 6986  10.103   1.189   8.095  0.0875  0.1017  0.3862
  437loPI   C5A 6987  10.144   1.200   7.557 -0.2676 -0.0949  0.1447
  437loPI   C6A 6988  10.425   1.051   7.197 -0.4191 -0.0993 -0.1907
  437loPI   C1B 6989  10.164   1.090   9.068 -0.0670 -0.1834  0.0581
  437loPI   C2B 6990  10.010   0.860   8.714 -0.1594 -0.2074  0.1267
  437loPI   C3B 6991   9.947   0.752   8.305  0.1427  0.4388 -0.2241
  437loPI   C4B 6992  10.018   0.750   7.815  0.2993  0.3442  0.0783
  438loPI    C1 6993  13.703   7.078   9.712 -0.0060 -0.1908 -0.1985
  438loPI    C2 6994  13.810   6.742   9.901  0.0050 -0.1799 -0.1853
  438loPI    C3 6995  13.573   7.007  10.084  0.0713 -0.1373 -0.1612
  438loPI   PO4 6996  13.603   6.963   9.463 -0.0785 -0.3287  0.0240
  438loPI   GL1 6997  13.425   6.983   9.051  0.0407  0.1044  0.0203
  438loPI   GL2 6998  13.665   6.666   9.016  0.1210  0.0630  0.1186
  438loPI   C1A 6999  13.133   6.755   8.808 -0.2572 -0.1692  0.2961
  438loPI   C2A 7000  13.018   6.786   8.530 -0.3030 -0.2288 -0.3858
  438loPI   C3A 7001  12.734   6.829   8.193  0.1076 -0.2558 -0.0305
  438loPI   C4A 7002  12.444   6.785   7.858 -0.1830 -0.3073 -0.1556
  438loPI   C5A 7003  12.157   6.673   7.561 -0.0121  0.1878 -0.0606
  438loPI   C6A 7004  12.207   6.433   7.277 -0.2674  0.1761 -0.0594
  438loPI   C1B 7005  13.669   6.811   8.622 -0.2907  0.2033 -0.0083
  438loPI   C2B 7006  13.487   6.553   8.317 -0.0228 -0.2425  0.0729
  438loPI   C3B 7007  13.441   6.422   7.973 -0.2977 -0.3051  0.1848
  438loPI   C4B 7008  13.490   6.270   7.539  0.0500  0.1156 -0.0916
  439loPI    C1 7009  16.795   0.931  10.245  0.1811 -0.0641 -0.0033
  439loPI    C2 7010  16.650   1.209  10.494 -0.0257 -0.0240 -0.1664
  439loPI    C3 7011  16.904   0.932  10.630 -0.6054 -0.3801  0.2392
  439loPI   PO4 7012  16.902   1.007  10.036 -0.1226 -0.2478  0.0958
  439loPI   GL1 7013  16.912   0.718   9.675 -0.0076 -0.0782 -0.0024
  439loPI   GL2 7014  17.207   0.790   9.687  0.0645  0.0256 -0.0097
  439loPI   C1A 7015  16.755   0.586   9.253  0.0851  0.0077 -0.1661
  439loPI   C2A 7016  16.931   0.557   8.908 -0.0064 -0.2181 -0.0791
  439loPI   C3A 7017  16.891   0.369   8.436 -0.2843  0.0242 -0.0106
  439loPI   C4A 7018  17.137   0.245   8.087  0.3747 -0.2080 -0.0303
  439loPI   C5A 7019  17.014   0.354   7.666  0.3410 -0.1607  0.1468
  439loPI   C6A 7020  16.622   0.458   7.566 -0.1530 -0.1178 -0.0613
  439loPI   C1B 7021  17.292   0.720   9.289 -0.0304 -0.1029  0.0522
  439loPI   C2B 7022  17.406   0.371   9.075 -0.0453 -0.2438 -0.0204
  439loPI   C3B 7023  17.439   0.227   8.637 -0.0151  0.2139  0.3244
  439loPI   C4B 7024  17.659   0.254   8.218  0.0370  0.1118 -0.0403
  440loPI    C1 7025   1.344  17.450  10.341  0.1457 -0.1106  0.0100
  440loPI    C2 7026   1.490  17.821  10.374  0.1163 -0.0880 -0.1104
  440loPI    C3 7027   1.363  17.627  10.699 -0.0022  0.0619 -0.0659
  440loPI   PO4 7028   1.514  17.306  10.132  0.0215  0.0646 -0.0376
  440loPI   GL1 7029   1.620  16.996   9.777 -0.0865  0.2006  0.0930
  440loPI   GL2 7030   1.614  16.739   9.634 -0.0719  0.1237  0.0328
  440loPI   C1A 7031   1.558  17.159   9.350  0.2240  0.2435 -0.0888
  440loPI   C2A 7032   1.592  17.009   8.894  0.0365  0.2202  0.4363
  440loPI   C3A 7033   1.766  17.073   8.463 -0.0481 -0.0842  0.0259
  440loPI   C4A 7034   1.945  16.905   8.090  0.2263 -0.2674  0.1790
  440loPI   C5A 7035   2.286  16.604   7.772  0.2732 -0.2828 -0.3532
  440loPI   C6A 7036   2.216  16.195   7.715  0.2993  0.0063 -0.2300
  440loPI   C1B 7037   1.363  16.565   9.251 -0.0137 -0.0452  0.0707
  440loPI   C2B 7038   1.389  16.551   8.831  0.0564 -0.0954 -0.0244
  440loPI   C3B 7039   1.418  16.626   8.423 -0.0629  0.1848 -0.0873
  440loPI   C4B 7040   1.473  16.880   8.094 -0.0201  0.0041 -0.1599
  441loPI    C1 7041  12.988  18.288  10.057 -0.0895 -0.3287 -0.3332
  441loPI    C2 7042  12.750  18.004  10.207  0.0052 -0.1990  0.0765
  441loPI    C3 7043  13.005  18.197  10.447 -0.0876  0.2636 -0.1858
  441loPI   PO4 7044  12.958  18.216   9.769 -0.0916  0.1348  0.0783
  441loPI   GL1 7045  13.060  18.405   9.431  0.2799 -0.0905 -0.1809
  441loPI   GL2 7046  12.823  18.598   9.355  0.1595 -0.2168  0.3099
  441loPI   C1A 7047  13.159  18.316   8.988 -0.1613 -0.0886  0.1670
  441loPI   C2A 7048  13.070  18.254   8.587  0.0226 -0.2579 -0.1411
  441loPI   C3A 7049  13.083  18.264   8.184 -0.1341 -0.0646 -0.0652
  441loPI   C4A 7050  13.239  18.020   7.808  0.1133  0.0196 -0.2032
  441loPI   C5A 7051  13.662  17.862   7.553  0.0507 -0.1020 -0.1346
  441loPI   C6A 7052  13.706  17.455   7.436 -0.3337 -0.1675  0.1799
  441loPI   C1B 7053  12.867  18.680   8.898 -0.0887 -0.2234 -0.0318
  441loPI   C2B 7054  12.846  18.821   8.460  0.3095  0.0999 -0.0296
  441loPI   C3B 7055  12.926  18.824   8.019 -0.2791 -0.0419 -0.2644
  441loPI   C4B 7056  12.959  18.480   7.715 -0.0461 -0.0572  0.0425
  442loPI    C1 7057  18.329   0.947  10.129  0.2694  0.2961 -0.1610
  442loPI    C2 7058  18.173   0.956  10.498 -0.0852  0.1020 -0.3012
  442loPI    C3 7059  18.560   0.869  10.446 -0.0579  0.0213  0.0180
  442loPI   PO4 7060  18.202   0.984  10.017 -0.1410 -0.1054 -0.0651
  442loPI   GL1 7061  18.287   1.079   9.486 -0.0195  0.0387 -0.3094
  442loPI   GL2 7062  18.545   0.811   9.579 -0.1252  0.0222  0.2030
  442loPI   C1A 7063  18.009   1.051   9.148  0.2237  0.0194  0.0968
  442loPI   C2A 7064  17.853   0.620   9.107  0.4011  0.3540  0.4550
  442loPI   C3A 7065  17.855   0.480   8.693 -0.0279 -0.0445  0.0955
  442loPI   C4A 7066  18.018   0.632   8.360 -0.2106 -0.2061 -0.1040
  442loPI   C5A 7067  17.842   0.667   7.953 -0.0056 -0.1790 -0.0666
  442loPI   C6A 7068  18.084   0.309   7.785 -0.0527 -0.0114 -0.1383
  442loPI   C1B 7069  18.484   0.695   9.115 -0.1146  0.0238  0.0137
  442loPI   C2B 7070  18.281   0.892   8.769 -0.2099  0.1035 -0.2865
  442loPI   C3B 7071  18.012   1.138   8.619 -0.0290  0.1980 -0.1087
  442loPI   C4B 7072  17.746   1.110   8.261  0.1747  0.1970  0.1671
  443loPI    C1 7073   8.923  12.347   9.846 -0.1740  0.1162  0.0329
  443loPI    C2 7074   8.934  12.451  10.232 -0.0896 -0.1213  0.0962
  443loPI    C3 7075   9.037  12.081  10.122 -0.1157 -0.0556 -0.1547
  443loPI   PO4 7076   8.873  12.541   9.771  0.3387 -0.2614  0.4470
  443loPI   GL1 7077   8.834  12.761   9.296 -0.1376  0.1387 -0.0117
  443loPI   GL2 7078   8.582  12.590   9.285  0.3747  0.5306  0.1511
  443loPI   C1A 7079   8.896  13.159   9.196 -0.0516 -0.0083  0.2894
  443loPI   C2A 7080   9.198  13.481   8.991 -0.2892 -0.0178  0.1024
  443loPI   C3A 7081   9.379  13.748   8.627 -0.3297  0.1600 -0.3521
  443loPI   C4A 7082   9.318  13.949   8.065  0.0511 -0.2896 -0.1428
  443loPI   C5A 7083   9.176  13.982   7.679 -0.0923  0.1176 -0.1757
  443loPI   C6A 7084   8.822  14.017   7.461 -0.0765  0.0488 -0.1490
  443loPI   C1B 7085   8.687  12.378   8.965 -0.0259 -0.3645  0.3699
  443loPI   C2B 7086   8.820  12.426   8.525 -0.1030 -0.2451  0.2221
  443loPI   C3B 7087   9.048  12.865   8.543  0.1124 -0.0733  0.1289
  443loPI   C4B 7088   8.932  13.272   8.612  0.0279  0.0858 -0.0057
  444loPI    C1 7089  19.028   9.420  10.266  0.2977 -0.3101 -0.0408
  444loPI    C2 7090  18.752   9.282  10.519  0.2026 -0.0102  0.0236
  444loPI    C3 7091  19.123   9.352  10.648  0.1535  0.1455  0.0828
  444loPI   PO4 7092  18.937   9.284   9.984  0.4569 -0.1021  0.2882
  444loPI   GL1 7093  18.903   9.343   9.515 -0.1617 -0.1315  0.2684
  444loPI   GL2 7094  19.167   9.470   9.558 -0.2991 -0.0637 -0.1713
  444loPI   C1A 7095  18.883   9.404   8.984 -0.2436 -0.0090  0.2704
  444loPI   C2A 7096  18.869   9.413   8.593  0.0464 -0.0939 -0.0360
  444loPI   C3A 7097  18.947   9.124   8.123 -0.2741 -0.1489 -0.1031
  444loPI   C4A 7098  18.945   8.989   7.741  0.2949  0.1734  0.1926
  444loPI   C5A 7099  18.536   9.011   7.623  0.0849  0.0489 -0.1003
  444loPI   C6A 7100  18.347   9.283   7.288 -0.4248 -0.0492 -0.0779
  444loPI   C1B 7101  19.041   9.009   9.214 -0.2549 -0.4871 -0.0884
  444loPI   C2B 7102  18.991   8.935   8.760 -0.0363  0.1437 -0.0540
  444loPI   C3B 7103  19.356   8.954   8.403 -0.0543  0.0118 -0.1355
  444loPI   C4B 7104  19.379   8.522   8.143  0.0601 -0.3168 -0.2133
  445loPI    C1 7105  18.725  10.867  10.313  0.1504 -0.1352 -0.0612
  445loPI    C2 7106  18.467  10.569  10.245 -0.0323  0.0302 -0.1019
  445loPI    C3 7107  18.458  10.765  10.593  0.1447 -0.0668 -0.0414
  445loPI   PO4 7108  18.947  10.772  10.128  0.0055 -0.0507  0.0419
  445loPI   GL1 7109  18.999  11.005   9.742 -0.3649  0.1350 -0.2259
  445loPI   GL2 7110  19.049  10.710   9.614  0.0639  0.0234 -0.3799
  445loPI   C1A 7111  18.907  11.090   9.317 -0.2886 -0.0275  0.4007
  445loPI   C2A 7112  18.677  10.872   9.024 -0.1428 -0.1172  0.0471
  445loPI   C3A 7113  18.821  10.780   8.679  0.1647  0.1932 -0.0877
  445loPI   C4A 7114  18.843  10.538   8.384  0.0323 -0.1138 -0.0557
  445loPI   C5A 7115  18.797  10.095   8.064 -0.0548  0.0153 -0.0991
  445loPI   C6A 7116  18.675  10.126   7.628  0.4340 -0.4082 -0.0286
  445loPI   C1B 7117  19.134  10.661   9.154 -0.2585  0.1255 -0.1381
  445loPI   C2B 7118  19.166  10.429   8.744 -0.0088 -0.2286 -0.4082
  445loPI   C3B 7119  19.336  10.541   8.354  0.1979 -0.2315  0.2834
  445loPI   C4B 7120  19.122  10.402   7.997 -0.2066  0.2612  0.0806
  446loPI    C1 7121   4.038   4.165  10.045 -0.0835  0.3736  0.1969
  446loPI    C2 7122   3.685   4.248  10.213 -0.2883 -0.2043  0.0780
  446loPI    C3 7123   3.950   4.020  10.407 -0.0416  0.0912  0.0966
  446loPI   PO4 7124   4.073   4.374   9.850  0.1249 -0.1589 -0.1792
  446loPI   GL1 7125   3.975   4.400   9.402 -0.0972  0.2039 -0.1416
  446loPI   GL2 7126   4.255   4.065   9.433  0.1685  0.2599 -0.2252
  446loPI   C1A 7127   3.776   4.835   9.339  0.0377  0.1983  0.0153
  446loPI   C2A 7128   3.542   4.991   9.064  0.0238  0.1630 -0.0218
  446loPI   C3A 7129   3.534   5.079   8.743  0.1384 -0.1850  0.0261
  446loPI   C4A 7130   3.511   5.076   8.274  0.2295 -0.0958  0.1827
  446loPI   C5A 7131   3.380   4.794   7.987 -0.1773 -0.1418 -0.3606
  446loPI   C6A 7132   3.359   4.780   7.515 -0.1695  0.0324 -0.0803
  446loPI   C1B 7133   4.131   4.165   9.033  0.1919 -0.2581  0.3358
  446loPI   C2B 7134   4.252   4.369   8.660 -0.1198 -0.0133  0.3229
  446loPI   C3B 7135   4.452   4.506   8.232 -0.2403  0.3812 -0.0877
  446loPI   C4B 7136   4.780   4.537   7.977 -0.1672  0.1746  0.0708
  447loPI    C1 7137   2.568  18.378  10.347 -0.0781  0.0520 -0.0638
  447loPI    C2 7138   2.414  18.022  10.444  0.0707  0.0402  0.1337
  447loPI    C3 7139   2.273  18.355  10.616 -0.0706  0.0790 -0.0532
  447loPI   PO4 7140   2.578  18.401  10.000  0.0434  0.1759  0.0852
  447loPI   GL1 7141   2.573  18.063   9.673 -0.2645 -0.0419  0.1072
  447loPI   GL2 7142   2.401  18.186   9.381 -0.0506  0.0407  0.0084
  447loPI   C1A 7143   2.868  18.115   9.341 -0.2196 -0.1209  0.2016
  447loPI   C2A 7144   2.975  18.289   8.940 -0.0044 -0.1669 -0.4910
  447loPI   C3A 7145   2.873  18.149   8.511  0.0755  0.0658  0.1472
  447loPI   C4A 7146   2.740  18.153   8.083 -0.0909 -0.0670 -0.2434
  447loPI   C5A 7147   2.250  18.353   8.015  0.0622  0.3282 -0.1762
  447loPI   C6A 7148   1.905  18.682   7.860 -0.2609 -0.2113 -0.0141
  447loPI   C1B 7149   2.506  18.427   9.008  0.1139 -0.1507  0.0359
  447loPI   C2B 7150   2.687  18.762   8.683 -0.0989  0.2330 -0.3443
  447loPI   C3B 7151   2.813  19.008   8.516  0.2050 -0.0849  0.2230
  447loPI   C4B 7152   2.862  19.117   7.979 -0.0715 -0.1968  0.1733
  448loPI    C1 7153   5.992  16.563   9.954  0.1771 -0.0121  0.1836
  448loPI    C2 7154   5.768  16.233   9.929  0.2559 -0.0544  0.0196
  448loPI    C3 7155   5.757  16.457  10.260 -0.2521  0.1057 -0.0955
  448loPI   PO4 7156   5.956  16.698   9.723  0.0042 -0.0907  0.0849
  448loPI   GL1 7157   5.684  16.415   9.500  0.3187 -0.0105  0.2594
  448loPI   GL2 7158   5.505  16.002   9.471  0.5059  0.0552  0.2189
  448loPI   C1A 7159   5.369  16.470   9.380  0.0063  0.2531  0.2316
  448loPI   C2A 7160   5.309  16.570   8.955 -0.1264 -0.1840 -0.0289
  448loPI   C3A 7161   5.318  16.632   8.517 -0.2507 -0.1576 -0.0820
  448loPI   C4A 7162   5.479  16.737   8.040  0.0380  0.1273  0.2441
  448loPI   C5A 7163   5.221  16.840   7.617 -0.0362 -0.0418 -0.2126
  448loPI   C6A 7164   4.871  17.004   7.383  0.1608  0.0206  0.0053
  448loPI   C1B 7165   5.264  16.032   9.068 -0.1012  0.0699 -0.2308
  448loPI   C2B 7166   5.138  16.187   8.726  0.1323  0.2150  0.0603
  448loPI   C3B 7167   4.842  16.228   8.409  0.1060 -0.0688  0.2533
  448loPI   C4B 7168   4.627  16.267   8.033 -0.1858 -0.0828  0.4073
  449loPI    C1 7169  18.974  11.989  10.054  0.0034  0.0225  0.1831
  449loPI    C2 7170  18.709  11.908  10.343  0.2087 -0.0269  0.3607
  449loPI    C3 7171  19.051  11.701  10.321  0.2602  0.0759  0.1699
  449loPI   PO4 7172  18.845  11.973   9.818  0.0576  0.1840  0.1062
  449loPI   GL1 7173  18.680  11.872   9.507  0.0202  0.2652  0.1902
  449loPI   GL2 7174  19.021  11.619   9.368 -0.0330  0.0391  0.1231
  449loPI   C1A 7175  18.413  11.828   9.219  0.1986  0.3828  0.1175
  449loPI   C2A 7176  18.334  11.714   8.795 -0.0698 -0.3037  0.0492
  449loPI   C3A 7177  18.394  11.881   8.387  0.0428 -0.1123 -0.2120
  449loPI   C4A 7178  18.695  11.882   8.020 -0.0133 -0.2943 -0.0039
  449loPI   C5A 7179  18.891  12.288   7.876 -0.2478 -0.0592 -0.0429
  449loPI   C6A 7180  19.286  12.389   7.858 -0.3241 -0.1059  0.3026
  449loPI   C1B 7181  18.890  11.791   8.990  0.0655  0.1694 -0.0866
  449loPI   C2B 7182  18.829  11.773   8.549 -0.0947 -0.0487  0.0744
  449loPI   C3B 7183  18.855  11.442   8.202 -0.2784 -0.0328  0.1968
  449loPI   C4B 7184  18.862  11.155   7.782 -0.1014 -0.0492 -0.0351
  450loPI    C1 7185   0.380   0.396  10.061 -0.1007 -0.0666  0.3983
  450loPI    C2 7186   0.750   0.540  10.009 -0.0989 -0.1945  0.0288
  450loPI    C3 7187   0.504   0.712  10.274 -0.0007  0.3117 -0.1961
  450loPI   PO4 7188   0.330   0.361   9.795 -0.2925  0.2405  0.2164
  450loPI   GL1 7189   0.370   0.174   9.407 -0.0574  0.1586  0.1014
  450loPI   GL2 7190   0.656  -0.087   9.297 -0.0493 -0.2317 -0.0965
  450loPI   C1A 7191   0.087   0.248   9.085  0.1106  0.0896 -0.1756
  450loPI   C2A 7192  -0.120  -0.084   8.846  0.0214 -0.0964 -0.0338
  450loPI   C3A 7193  -0.140  -0.381   8.573  0.2573  0.2356 -0.0194
  450loPI   C4A 7194   0.006  -0.438   8.132  0.0336 -0.2556 -0.1458
  450loPI   C5A 7195   0.041  -0.344   7.820 -0.2480 -0.1071  0.0554
  450loPI   C6A 7196   0.116  -0.296   7.387  0.1560 -0.0506 -0.2808
  450loPI   C1B 7197   0.443   0.002   8.852 -0.1843 -0.1459  0.1849
  450loPI   C2B 7198   0.396   0.236   8.585  0.0148  0.2037 -0.1121
  450loPI   C3B 7199   0.470   0.396   8.270  0.0619  0.0920  0.1690
  450loPI   C4B 7200   0.791   0.495   7.960  0.0628 -0.1813  0.0710
  451loPI    C1 7201   1.159  11.377  10.502  0.0295  0.0240  0.1613
  451loPI    C2 7202   1.390  11.051  10.515 -0.0394 -0.0291  0.0693
  451loPI    C3 7203   1.056  11.068  10.735 -0.0997 -0.0704 -0.0185
  451loPI   PO4 7204   1.227  11.490  10.231  0.2371 -0.1666 -0.0515
  451loPI   GL1 7205   1.245  11.512   9.848 -0.1188  0.0981  0.0116
  451loPI   GL2 7206   0.876  11.600   9.877  0.1537  0.3144  0.0140
  451loPI   C1A 7207   1.267  11.645   9.438  0.2609  0.2570  0.1601
  451loPI   C2A 7208   1.276  11.647   8.996 -0.0211  0.3110 -0.0254
  451loPI   C3A 7209   1.193  11.803   8.561  0.0077 -0.0140  0.2445
  451loPI   C4A 7210   0.939  11.934   8.153 -0.2903  0.1555  0.2281
  451loPI   C5A 7211   0.775  12.357   7.990 -0.1503 -0.1772 -0.0708
  451loPI   C6A 7212   0.894  12.749   8.244  0.1315 -0.0103 -0.2225
  451loPI   C1B 7213   0.827  11.480   9.436  0.2046  0.0204 -0.1526
  451loPI   C2B 7214   0.799  11.464   9.022 -0.3017 -0.2485 -0.3678
  451loPI   C3B 7215   0.477  11.309   8.705  0.1563 -0.2576 -0.0959
  451loPI   C4B 7216   0.442  11.194   8.354 -0.1032 -0.3553  0.0585
  452loPI    C1 7217   5.538   6.181   9.734  0.0916 -0.0688 -0.0204
  452loPI    C2 7218   5.711   6.433   9.477 -0.0159  0.1547  0.1239
  452loPI    C3 7219   5.385   6.546   9.680 -0.1181 -0.1331  0.1239
  452loPI   PO4 7220   5.476   5.963   9.573 -0.2024 -0.1815  0.2348
  452loPI   GL1 7221   5.365   6.151   9.161  0.0301 -0.1497  0.1272
  452loPI   GL2 7222   5.259   6.488   9.204 -0.3611  0.4364 -0.1777
  452loPI   C1A 7223   5.712   6.157   8.899 -0.0790 -0.3436 -0.0985
  452loPI   C2A 7224   6.035   6.296   8.517 -0.2981  0.1055  0.0601
  452loPI   C3A 7225   6.446   6.335   8.256 -0.1162 -0.1698  0.0484
  452loPI   C4A 7226   6.549   6.467   7.956  0.0908 -0.0126  0.1966
  452loPI   C5A 7227   6.442   6.656   7.569 -0.3585  0.1092 -0.1005
  452loPI   C6A 7228   6.342   6.410   7.152 -0.2067  0.0274  0.0080
  452loPI   C1B 7229   5.380   6.522   8.836 -0.1319  0.2396  0.0780
  452loPI   C2B 7230   5.432   6.294   8.416  0.0439  0.0244 -0.2323
  452loPI   C3B 7231   5.688   6.182   8.061  0.0421  0.0430 -0.3426
  452loPI   C4B 7232   5.660   6.402   7.702 -0.3039 -0.3763 -0.0816
  453loPI    C1 7233  12.559   3.104  10.183  0.0368  0.2003 -0.0241
  453loPI    C2 7234  12.211   3.134  10.379  0.0682  0.0013  0.0653
  453loPI    C3 7235  12.472   2.848  10.479  0.1156 -0.0586 -0.2215
  453loPI   PO4 7236  12.565   3.077   9.905 -0.1486 -0.0028  0.3154
  453loPI   GL1 7237  12.456   3.083   9.473  0.1066 -0.0529 -0.1202
  453loPI   GL2 7238  12.309   2.797   9.437  0.0104  0.0654  0.0224
  453loPI   C1A 7239  12.243   3.083   8.978 -0.0217 -0.1005  0.1735
  453loPI   C2A 7240  12.356   3.183   8.606 -0.3251  0.1368  0.2645
  453loPI   C3A 7241  12.330   3.106   8.230  0.0262 -0.2813  0.1607
  453loPI   C4A 7242  12.382   2.968   7.746 -0.1166 -0.1110 -0.0249
  453loPI   C5A 7243  12.119   2.695   7.562 -0.0916  0.1850  0.4072
  453loPI   C6A 7244  11.829   2.498   7.179 -0.2313  0.2891 -0.1408
  453loPI   C1B 7245  12.227   2.525   9.037 -0.2735  0.1293 -0.1068
  453loPI   C2B 7246  12.135   2.319   8.680  0.1157  0.0451 -0.1092
  453loPI   C3B 7247  11.964   2.319   8.344  0.2902 -0.4084 -0.0649
  453loPI   C4B 7248  11.988   2.113   7.948 -0.0303  0.1952 -0.1148
  454loPI    C1 7249  12.232   4.036   9.711 -0.0602 -0.1271 -0.1112
  454loPI    C2 7250  12.478   4.303   9.877 -0.2806 -0.1222  0.2163
  454loPI    C3 7251  12.609   3.934   9.797 -0.0578 -0.0046  0.0280
  454loPI   PO4 7252  12.067   4.224   9.526 -0.2175 -0.0734 -0.0810
  454loPI   GL1 7253  11.936   4.495   9.189 -0.1577 -0.2277 -0.0974
  454loPI   GL2 7254  12.075   4.696   9.106  0.3136 -0.2052  0.3047
  454loPI   C1A 7255  11.716   4.523   8.780 -0.2921 -0.1723  0.4012
  454loPI   C2A 7256  11.734   4.649   8.300  0.2285  0.3423 -0.0699
  454loPI   C3A 7257  12.037   4.807   8.021  0.3144  0.1803 -0.0490
  454loPI   C4A 7258  12.289   4.839   7.512  0.2056  0.2004 -0.0360
  454loPI   C5A 7259  12.622   4.801   7.182  0.0759  0.0722 -0.1375
  454loPI   C6A 7260  12.566   5.049   6.854  0.0222  0.1391 -0.1584
  454loPI   C1B 7261  12.109   4.826   8.708 -0.2391  0.3100  0.0210
  454loPI   C2B 7262  12.339   5.156   8.404  0.0330  0.1733  0.1759
  454loPI   C3B 7263  12.412   5.179   8.001  0.0910  0.0372  0.1676
  454loPI   C4B 7264  12.687   5.109   7.595  0.0257 -0.0058 -0.1510
  455loPI    C1 7265   7.692  11.328   9.691  0.0312 -0.0406  0.0539
  455loPI    C2 7266   7.533  11.026   9.899  0.4065 -0.1387  0.2081
  455loPI    C3 7267   7.837  11.235  10.052  0.0449  0.4325  0.1767
  455loPI   PO4 7268   7.858  11.225   9.437  0.2425  0.0546  0.0216
  455loPI   GL1 7269   8.155  11.236   9.162  0.0764  0.1088  0.0718
  455loPI   GL2 7270   8.224  10.941   8.959  0.0306  0.2311 -0.0456
  455loPI   C1A 7271   7.967  11.222   8.715 -0.3298 -0.2510  0.2494
  455loPI   C2A 7272   7.981  11.053   8.306  0.2369 -0.0641 -0.0102
  455loPI   C3A 7273   8.036  10.820   7.952 -0.1520 -0.1826  0.2520
  455loPI   C4A 7274   8.174  10.712   7.547 -0.3223  0.0819 -0.1317
  455loPI   C5A 7275   8.226  10.622   7.078 -0.2255 -0.0275 -0.1252
  455loPI   C6A 7276   8.090  10.151   6.967  0.1029 -0.3093  0.1584
  455loPI   C1B 7277   8.446  10.958   8.562 -0.1088 -0.3012 -0.1251
  455loPI   C2B 7278   8.487  10.935   8.163 -0.0186  0.1680  0.0251
  455loPI   C3B 7279   8.647  10.920   7.684 -0.1469  0.1186 -0.2017
  455loPI   C4B 7280   8.546  11.088   7.228 -0.0404 -0.0879  0.0569
  456loPI    C1 7281   6.987  15.231  10.074  0.0945  0.1012  0.2201
  456loPI    C2 7282   6.621  15.316  10.209  0.0077 -0.1856  0.1718
  456loPI    C3 7283   6.909  15.211  10.466  0.0468  0.0017  0.2058
  456loPI   PO4 7284   6.872  15.301   9.755  0.2012  0.0436 -0.0299
  456loPI   GL1 7285   6.980  15.129   9.476 -0.0042  0.4097 -0.0027
  456loPI   GL2 7286   6.919  15.435   9.226 -0.0184 -0.2480 -0.1603
  456loPI   C1A 7287   7.432  15.137   9.289 -0.1398 -0.3992  0.1502
  456loPI   C2A 7288   7.727  15.019   8.923  0.0488 -0.1758  0.1215
  456loPI   C3A 7289   7.987  14.820   8.570  0.1710  0.1986  0.1563
  456loPI   C4A 7290   8.176  14.715   8.169 -0.1476 -0.0550 -0.2018
  456loPI   C5A 7291   8.228  14.849   7.872 -0.1545 -0.3360  0.0904
  456loPI   C6A 7292   8.506  15.141   7.654 -0.3159 -0.3020  0.1691
  456loPI   C1B 7293   6.853  15.166   8.881  0.1479  0.1145 -0.0134
  456loPI   C2B 7294   6.930  14.979   8.492 -0.0848  0.0711 -0.1312
  456loPI   C3B 7295   7.157  15.022   8.085  0.2172  0.4377 -0.1730
  456loPI   C4B 7296   7.319  15.239   7.706  0.1581 -0.1964  0.1189
  457loPI    C1 7297   1.053   2.315   9.945 -0.0739  0.0430 -0.1579
  457loPI    C2 7298   1.249   2.548  10.204 -0.0452 -0.1333 -0.0186
  457loPI    C3 7299   0.884   2.411  10.294 -0.1348 -0.0012 -0.1750
  457loPI   PO4 7300   0.978   2.451   9.771  0.0480 -0.0254  0.1408
  457loPI   GL1 7301   0.952   2.684   9.437 -0.3832 -0.1032 -0.2257
  457loPI   GL2 7302   1.162   2.905   9.342  0.1022 -0.3618  0.0468
  457loPI   C1A 7303   0.882   2.553   8.993  0.3025 -0.1661  0.0626
  457loPI   C2A 7304   0.674   2.544   8.593  0.0876 -0.1033 -0.1992
  457loPI   C3A 7305   0.891   2.470   8.233 -0.1034  0.0163  0.1355
  457loPI   C4A 7306   1.125   2.515   7.939 -0.0307  0.0701  0.0712
  457loPI   C5A 7307   1.250   2.796   7.645 -0.2027  0.4714 -0.0555
  457loPI   C6A 7308   1.480   3.056   7.307  0.1067  0.0888 -0.0947
  457loPI   C1B 7309   1.052   3.005   8.883  0.0566 -0.0747  0.0620
  457loPI   C2B 7310   1.113   3.099   8.506  0.1511 -0.2473  0.2729
  457loPI   C3B 7311   1.103   2.980   8.103  0.3183 -0.1988 -0.1179
  457loPI   C4B 7312   0.741   2.819   7.845  0.0371 -0.0990  0.5087
  458loPI    C1 7313   3.968   2.260  10.086  0.1979 -0.0071 -0.1319
  458loPI    C2 7314   4.204   1.958  10.200  0.2506  0.0191 -0.1711
  458loPI    C3 7315   3.807   1.913  10.201  0.2462  0.0479  0.1076
  458loPI   PO4 7316   3.975   2.319   9.887 -0.0428 -0.1836 -0.0868
  458loPI   GL1 7317   3.723   2.269   9.476  0.0375 -0.1954 -0.1980
  458loPI   GL2 7318   3.446   2.369   9.594  0.2115 -0.0797  0.1940
  458loPI   C1A 7319   3.809   2.134   9.010 -0.0810  0.1695 -0.2999
  458loPI   C2A 7320   4.039   2.174   8.671 -0.2612 -0.1811 -0.0714
  458loPI   C3A 7321   4.051   2.138   8.193 -0.0557  0.1008  0.0490
  458loPI   C4A 7322   3.996   2.186   7.745 -0.1928  0.0900 -0.3554
  458loPI   C5A 7323   3.740   2.370   7.448 -0.0958 -0.0577  0.1112
  458loPI   C6A 7324   3.466   2.725   7.452 -0.2779 -0.0382 -0.0562
  458loPI   C1B 7325   3.517   2.704   9.190  0.1590 -0.0328 -0.1966
  458loPI   C2B 7326   3.543   3.029   8.836  0.3196  0.3129 -0.0559
  458loPI   C3B 7327   3.247   3.294   8.524 -0.2472 -0.3833 -0.0005
  458loPI   C4B 7328   3.179   3.677   8.452 -0.1797  0.0200  0.0743
  459loPI    C1 7329  16.457  12.389  10.179 -0.0075  0.0566 -0.0906
  459loPI    C2 7330  16.703  12.079  10.242 -0.2235 -0.0655  0.1721
  459loPI    C3 7331  16.696  12.384  10.500 -0.0094  0.1647 -0.0875
  459loPI   PO4 7332  16.562  12.507   9.886 -0.0373 -0.0300 -0.1912
  459loPI   GL1 7333  16.537  12.427   9.464  0.0496  0.0379  0.1020
  459loPI   GL2 7334  16.373  12.738   9.420  0.3059 -0.2366  0.1367
  459loPI   C1A 7335  16.652  12.337   9.142 -0.0488 -0.1501  0.0072
  459loPI   C2A 7336  16.816  12.330   8.796 -0.0014  0.1617  0.2335
  459loPI   C3A 7337  17.242  12.125   8.644 -0.2002 -0.4811 -0.1937
  459loPI   C4A 7338  17.422  11.682   8.599  0.0806 -0.3297  0.4005
  459loPI   C5A 7339  17.390  11.241   8.464  0.1268 -0.0172  0.3408
  459loPI   C6A 7340  17.552  11.000   8.281 -0.0813 -0.0074  0.2031
  459loPI   C1B 7341  16.400  12.734   8.961 -0.0835  0.0594  0.2828
  459loPI   C2B 7342  16.556  12.737   8.633 -0.0834 -0.1732  0.1933
  459loPI   C3B 7343  16.582  12.815   8.211  0.5289 -0.4863 -0.0912
  459loPI   C4B 7344  16.450  13.144   8.070  0.1947  0.1900 -0.1426
  460loPI    C1 7345  13.804  13.124   9.915 -0.2389  0.2070  0.5543
  460loPI    C2 7346  13.551  12.847  10.052 -0.1067 -0.1472  0.1055
  460loPI    C3 7347  13.945  12.782  10.065 -0.0801 -0.0432 -0.1291
  460loPI   PO4 7348  13.672  13.184   9.667 -0.2248  0.0631 -0.1969
  460loPI   GL1 7349  13.601  13.282   9.195  0.0155  0.4574 -0.2186
  460loPI   GL2 7350  13.725  12.925   9.131 -0.0777 -0.3183 -0.0279
  460loPI   C1A 7351  13.721  13.449   8.787  0.1454  0.2073 -0.2180
  460loPI   C2A 7352  13.533  13.586   8.398 -0.1465 -0.0865  0.1375
  460loPI   C3A 7353  13.278  13.730   8.107 -0.0218 -0.1883  0.1388
  460loPI   C4A 7354  12.926  13.822   7.812 -0.0558 -0.0153 -0.0182
  460loPI   C5A 7355  12.782  14.080   7.472  0.1285 -0.0120  0.3434
  460loPI   C6A 7356  12.397  14.081   7.322  0.0107  0.1866  0.0377
  460loPI   C1B 7357  13.961  12.669   8.850  0.0660 -0.1136 -0.2268
  460loPI   C2B 7358  14.233  12.707   8.587 -0.3290  0.2012  0.1637
  460loPI   C3B 7359  14.367  12.646   8.162 -0.0877 -0.0619 -0.2405
  460loPI   C4B 7360  14.478  12.417   7.773 -0.3736 -0.1370 -0.1290
  461loPI    C1 7361   2.800  14.867  10.490 -0.1413  0.0903 -0.0126
  461loPI    C2 7362   2.800  15.260  10.565 -0.1438  0.0766  0.0590
  461loPI    C3 7363   2.768  14.999  10.866  0.0344  0.0180  0.0285
  461loPI   PO4 7364   2.622  14.817  10.240 -0.1124 -0.0993 -0.0795
  461loPI   GL1 7365   2.801  14.820   9.761  0.2679  0.2628 -0.1422
  461loPI   GL2 7366   2.774  14.474   9.502 -0.1520  0.1100  0.4798
  461loPI   C1A 7367   2.910  14.986   9.288  0.0416 -0.1238 -0.2361
  461loPI   C2A 7368   2.879  14.844   8.920 -0.1132  0.1326 -0.0655
  461loPI   C3A 7369   3.030  15.003   8.609  0.2103 -0.1207 -0.1978
  461loPI   C4A 7370   2.968  14.989   8.192 -0.0790  0.0439  0.2629
  461loPI   C5A 7371   2.831  15.290   7.774 -0.2182  0.1975  0.0671
  461loPI   C6A 7372   2.509  15.225   7.576 -0.0630 -0.0019  0.0958
  461loPI   C1B 7373   2.752  14.326   9.037 -0.0364  0.0091  0.1175
  461loPI   C2B 7374   2.764  14.356   8.751 -0.4833  0.2029 -0.0963
  461loPI   C3B 7375   2.658  14.609   8.334 -0.0243 -0.0282  0.3668
  461loPI   C4B 7376   2.544  14.873   7.939  0.0182  0.2101 -0.0391
  462loPI    C1 7377  13.231  14.948  10.003 -0.0533  0.1469 -0.0236
  462loPI    C2 7378  12.927  14.860  10.248 -0.1101  0.2284 -0.0643
  462loPI    C3 7379  13.290  14.706  10.315 -0.1516  0.1615  0.0065
  462loPI   PO4 7380  13.120  15.191   9.907  0.0150  0.2614  0.0541
  462loPI   GL1 7381  12.910  15.200   9.592  0.2622 -0.2105  0.1896
  462loPI   GL2 7382  12.848  14.972   9.382  0.2249 -0.1645 -0.0379
  462loPI   C1A 7383  12.676  15.502   9.208  0.0039 -0.0234  0.3176
  462loPI   C2A 7384  12.754  15.681   8.766 -0.1067 -0.2552  0.2883
  462loPI   C3A 7385  12.468  15.933   8.464 -0.0533 -0.0955  0.3477
  462loPI   C4A 7386  12.637  15.953   8.008 -0.3619 -0.1402 -0.1391
  462loPI   C5A 7387  12.951  15.755   7.949 -0.0947  0.2238 -0.0918
  462loPI   C6A 7388  13.288  15.815   7.692  0.0060 -0.2585  0.1280
  462loPI   C1B 7389  12.918  14.887   8.852  0.1024 -0.2372 -0.0242
  462loPI   C2B 7390  12.969  14.764   8.559  0.4523 -0.1321 -0.1615
  462loPI   C3B 7391  12.894  14.737   8.110  0.1876 -0.0705 -0.1391
  462loPI   C4B 7392  12.751  14.857   7.701 -0.3093 -0.0500 -0.0407
  463loPI    C1 7393   1.593   6.435   9.812 -0.0512 -0.0486 -0.0881
  463loPI    C2 7394   1.423   6.372  10.169  0.0197 -0.1908 -0.0789
  463loPI    C3 7395   1.816   6.313  10.121  0.1053  0.3157 -0.0519
  463loPI   PO4 7396   1.455   6.652   9.746 -0.0688 -0.2330 -0.0739
  463loPI   GL1 7397   1.423   6.885   9.428  0.1851 -0.0587  0.1100
  463loPI   GL2 7398   1.126   6.761   9.379 -0.0339  0.1498 -0.2019
  463loPI   C1A 7399   1.603   6.914   9.017  0.0679  0.0748  0.1839
  463loPI   C2A 7400   1.933   7.006   8.773  0.2976 -0.3918 -0.2912
  463loPI   C3A 7401   2.340   7.204   8.626 -0.0403 -0.1679  0.1410
  463loPI   C4A 7402   2.518   7.274   8.184 -0.1390 -0.2223  0.4266
  463loPI   C5A 7403   2.355   7.436   7.733  0.2555 -0.0966  0.3057
  463loPI   C6A 7404   2.390   7.601   7.275 -0.0898 -0.1243 -0.0776
  463loPI   C1B 7405   1.140   6.769   8.956 -0.0766  0.0341  0.1124
  463loPI   C2B 7406   1.025   6.906   8.659 -0.1567  0.1789  0.2790
  463loPI   C3B 7407   1.063   7.294   8.453  0.1351 -0.6014 -0.2287
  463loPI   C4B 7408   0.969   7.294   7.981  0.3964 -0.0619  0.0482
  464loPI    C1 7409   9.415   8.680   9.356  0.1028  0.0217  0.0759
  464loPI    C2 7410   9.199   8.874   9.631 -0.0568  0.1940 -0.1658
  464loPI    C3 7411   9.024   8.740   9.298  0.0648 -0.3148 -0.0343
  464loPI   PO4 7412   9.609   8.604   9.466  0.0213  0.1670  0.1598
  464loPI   GL1 7413   9.940   8.799   9.214 -0.2110  0.0250  0.2594
  464loPI   GL2 7414   9.729   8.862   9.003  0.2182  0.1903 -0.1639
  464loPI   C1A 7415  10.151   8.848   8.801  0.0908 -0.1192  0.1799
  464loPI   C2A 7416  10.200   8.814   8.331  0.2130  0.0781 -0.0427
  464loPI   C3A 7417  10.423   8.648   8.040  0.0717  0.2959 -0.0309
  464loPI   C4A 7418  10.592   8.894   7.746  0.1482  0.0750  0.1965
  464loPI   C5A 7419  10.946   8.838   7.495  0.0636  0.3869 -0.4414
  464loPI   C6A 7420  11.172   8.915   7.145 -0.1659  0.1126 -0.0555
  464loPI   C1B 7421   9.718   8.955   8.470 -0.1585 -0.1149 -0.0292
  464loPI   C2B 7422   9.616   9.193   8.075  0.0497 -0.1045  0.3078
  464loPI   C3B 7423   9.636   9.064   7.680  0.2810 -0.2009  0.1539
  464loPI   C4B 7424   9.746   9.106   7.279 -0.1233 -0.1849 -0.0757
  465loPI    C1 7425  10.578   6.861   9.640 -0.0540 -0.0461 -0.0884
  465loPI    C2 7426  10.746   7.110   9.903 -0.0988  0.1579 -0.2510
  465loPI    C3 7427  10.599   6.760  10.027  0.2113  0.0891 -0.0650
  465loPI   PO4 7428  10.740   6.810   9.480 -0.0244 -0.0200  0.0168
  465loPI   GL1 7429  10.856   6.511   9.146 -0.0396  0.2114  0.2752
  465loPI   GL2 7430  11.076   6.644   9.137  0.0677  0.1058  0.0015
  465loPI   C1A 7431  10.572   6.453   8.712 -0.1123  0.1807  0.0919
  465loPI   C2A 7432  10.445   6.437   8.290 -0.2583 -0.1675 -0.1651
  465loPI   C3A 7433  10.374   6.500   7.963 -0.0857 -0.0507  0.1424
  465loPI   C4A 7434  10.322   6.388   7.538 -0.1130  0.1345  0.1909
  465loPI   C5A 7435  10.198   6.566   7.095  0.1701 -0.2548  0.0339
  465loPI   C6A 7436  10.095   6.362   6.709  0.1772  0.1462  0.1937
  465loPI   C1B 7437  11.337   6.558   8.662  0.0325  0.1717 -0.1738
  465loPI   C2B 7438  11.382   6.574   8.297 -0.2428  0.0331 -0.1046
  465loPI   C3B 7439  11.150   6.484   7.918 -0.0370  0.0166 -0.0523
  465loPI   C4B 7440  11.118   6.297   7.470  0.0913 -0.0895  0.0594
  466loPI    C1 7441  13.592  10.205   9.731 -0.0725  0.0080 -0.0087
  466loPI    C2 7442  13.534   9.822   9.829 -0.3065  0.0457  0.0053
  466loPI    C3 7443  13.517  10.105  10.110 -0.1830  0.0723 -0.0133
  466loPI   PO4 7444  13.691  10.174   9.468  0.2361  0.0361  0.1653
  466loPI   GL1 7445  13.573  10.219   8.999 -0.1027 -0.0224 -0.1258
  466loPI   GL2 7446  13.319  10.474   8.958  0.2775  0.1630  0.2157
  466loPI   C1A 7447  13.879   9.985   8.821 -0.0402 -0.0275  0.1159
  466loPI   C2A 7448  14.015  10.047   8.464  0.0564  0.1407 -0.0275
  466loPI   C3A 7449  14.158  10.186   8.090 -0.1005  0.1682  0.1246
  466loPI   C4A 7450  14.480  10.515   8.007  0.0684  0.2193 -0.2789
  466loPI   C5A 7451  14.530  10.721   8.476  0.1669 -0.0353  0.0020
  466loPI   C6A 7452  14.698  10.486   8.850  0.1896 -0.2793  0.1814
  466loPI   C1B 7453  13.561  10.660   8.557 -0.1680 -0.2094  0.1415
  466loPI   C2B 7454  13.474  10.832   8.141 -0.1687  0.2580  0.3004
  466loPI   C3B 7455  13.484  11.080   7.744  0.0341  0.3327  0.2515
  466loPI   C4B 7456  13.829  11.137   7.400  0.2203 -0.0833 -0.0204
  467loPI    C1 7457   6.913   2.730   9.955 -0.2373 -0.0409  0.0104
  467loPI    C2 7458   6.918   2.350   9.829 -0.0267 -0.0124 -0.0715
  467loPI    C3 7459   6.804   2.435  10.203  0.1376 -0.1788  0.0183
  467loPI   PO4 7460   6.797   2.846   9.828 -0.0176  0.3378  0.2288
  467loPI   GL1 7461   7.011   3.202   9.593 -0.0967  0.0343  0.0441
  467loPI   GL2 7462   7.307   3.258   9.598 -0.0821  0.2268 -0.4085
  467loPI   C1A 7463   6.997   3.188   9.159  0.0198  0.0420  0.0268
  467loPI   C2A 7464   7.007   3.283   8.759 -0.2094  0.2323  0.1219
  467loPI   C3A 7465   6.965   3.247   8.325 -0.4497 -0.1661  0.5104
  467loPI   C4A 7466   6.978   3.198   7.981 -0.0564  0.1271  0.0201
  467loPI   C5A 7467   6.674   3.125   7.647  0.2820 -0.1205  0.0426
  467loPI   C6A 7468   6.255   3.415   7.557  0.1425 -0.0255  0.0201
  467loPI   C1B 7469   7.568   3.051   9.281 -0.2216  0.0298  0.1441
  467loPI   C2B 7470   7.764   2.902   8.828  0.0277 -0.2753 -0.0161
  467loPI   C3B 7471   7.839   2.818   8.363 -0.1111  0.0115 -0.1355
  467loPI   C4B 7472   7.788   2.871   7.957 -0.2311  0.2623  0.0846
  468loPI    C1 7473  14.488   8.755   9.755 -0.0577  0.0040  0.0615
  468loPI    C2 7474  14.834   8.569   9.834 -0.0016  0.1268  0.1068
  468loPI    C3 7475  14.832   8.907   9.620 -0.0850  0.1723  0.1782
  468loPI   PO4 7476  14.345   8.603   9.552 -0.1323 -0.1064  0.0791
  468loPI   GL1 7477  14.328   8.405   9.156  0.0841 -0.3969  0.2812
  468loPI   GL2 7478  14.215   8.185   8.968 -0.1606  0.0942  0.0205
  468loPI   C1A 7479  14.438   8.718   8.782  0.0523 -0.0364  0.1813
  468loPI   C2A 7480  14.609   9.169   8.697 -0.0250 -0.5179  0.0459
  468loPI   C3A 7481  14.536   9.330   8.412 -0.3218  0.2989 -0.0823
  468loPI   C4A 7482  14.630   9.393   7.941  0.1389  0.0740  0.0547
  468loPI   C5A 7483  14.727   9.171   7.569  0.0404  0.1058 -0.0836
  468loPI   C6A 7484  14.586   8.802   7.156 -0.2199  0.0411  0.1511
  468loPI   C1B 7485  14.261   8.144   8.547  0.1707  0.0299  0.0835
  468loPI   C2B 7486  14.252   8.091   8.053  0.0400  0.4788 -0.1661
  468loPI   C3B 7487  14.391   8.463   7.899 -0.1910 -0.1804 -0.0588
  468loPI   C4B 7488  14.340   8.903   7.593  0.0051  0.0548 -0.5554
  469loPI    C1 7489  12.379  13.043   9.677 -0.2427  0.0190  0.1285
  469loPI    C2 7490  12.495  12.887  10.027  0.0752  0.2409  0.1275
  469loPI    C3 7491  12.582  13.267   9.939 -0.2046  0.2564 -0.0994
  469loPI   PO4 7492  12.436  12.863   9.507 -0.0395 -0.6272  0.0223
  469loPI   GL1 7493  12.322  12.827   9.093  0.1824  0.1956  0.2294
  469loPI   GL2 7494  12.645  12.778   9.084 -0.0237 -0.2288  0.0517
  469loPI   C1A 7495  12.398  12.963   8.666  0.2089  0.0341 -0.2947
  469loPI   C2A 7496  12.576  13.223   8.408 -0.3748 -0.1282  0.1600
  469loPI   C3A 7497  12.744  13.433   8.131 -0.4138  0.0483 -0.0009
  469loPI   C4A 7498  13.094  13.345   7.718 -0.0493 -0.1705 -0.2312
  469loPI   C5A 7499  13.129  13.314   7.243  0.0153  0.0777 -0.1168
  469loPI   C6A 7500  13.381  13.247   6.858 -0.4308  0.0588  0.0748
  469loPI   C1B 7501  12.897  12.723   8.752  0.0220 -0.1831  0.0935
  469loPI   C2B 7502  12.941  12.878   8.448  0.1710  0.3451  0.1478
  469loPI   C3B 7503  12.782  12.941   7.981 -0.0067 -0.3140 -0.2318
  469loPI   C4B 7504  12.617  13.278   7.667  0.2833  0.0838 -0.2134
  470loPI    C1 7505   1.834   4.007  10.138 -0.0027  0.1906 -0.0839
  470loPI    C2 7506   1.621   3.751   9.916  0.0962  0.0941 -0.0680
  470loPI    C3 7507   1.493   3.854  10.281 -0.0605  0.2437 -0.1635
  470loPI   PO4 7508   1.895   4.205   9.858  0.0539 -0.0836 -0.1346
  470loPI   GL1 7509   1.969   4.591   9.678 -0.0346 -0.1773 -0.3492
  470loPI   GL2 7510   1.591   4.582   9.665  0.1455  0.1493 -0.0824
  470loPI   C1A 7511   2.104   4.641   9.196 -0.0604 -0.0094  0.0896
  470loPI   C2A 7512   2.000   4.484   8.785 -0.3870 -0.0023 -0.0284
  470loPI   C3A 7513   1.860   4.705   8.459  0.1853  0.0852  0.0147
  470loPI   C4A 7514   1.560   4.605   8.103  0.1817 -0.1340  0.3256
  470loPI   C5A 7515   1.608   4.389   7.781 -0.0784  0.0173  0.0998
  470loPI   C6A 7516   1.983   4.152   7.583 -0.0706  0.0236  0.4827
  470loPI   C1B 7517   1.335   4.807   9.329  0.3838 -0.1347  0.3351
  470loPI   C2B 7518   0.999   4.811   9.140  0.2373  0.0116  0.2146
  470loPI   C3B 7519   0.813   4.914   8.754  0.3267 -0.3223 -0.0600
  470loPI   C4B 7520   0.595   4.675   8.423  0.2981  0.3276  0.2023
  471loPI    C1 7521  13.052   2.975   9.978  0.2212 -0.1770  0.0461
  471loPI    C2 7522  12.849   2.679  10.155  0.1420 -0.1679 -0.0284
  471loPI    C3 7523  13.007   2.974  10.375 -0.1730 -0.0210  0.0060
  471loPI   PO4 7524  13.142   2.853   9.698  0.1428 -0.0545 -0.1890
  471loPI   GL1 7525  13.371   2.842   9.344 -0.0291  0.0301  0.1878
  471loPI   GL2 7526  13.644   2.927   9.519 -0.0276 -0.2602 -0.0883
  471loPI   C1A 7527  13.255   2.710   8.886  0.0740 -0.0981 -0.2487
  471loPI   C2A 7528  13.311   2.606   8.397  0.0190 -0.1285  0.2284
  471loPI   C3A 7529  13.413   2.721   7.936  0.2492 -0.1269  0.0267
  471loPI   C4A 7530  13.365   2.910   7.516 -0.2222 -0.2028  0.1120
  471loPI   C5A 7531  13.555   3.244   7.215  0.4172 -0.2149 -0.1292
  471loPI   C6A 7532  13.963   3.214   7.049  0.1095  0.0098  0.3123
  471loPI   C1B 7533  13.850   2.716   9.122  0.0213  0.0854 -0.1614
  471loPI   C2B 7534  13.726   2.830   8.774 -0.3593  0.3399 -0.3127
  471loPI   C3B 7535  13.778   2.830   8.420  0.1810  0.0074  0.1743
  471loPI   C4B 7536  13.768   2.428   8.128  0.2663 -0.2582  0.1476
  472loPI    C1 7537  16.412   7.851   9.948  0.1859 -0.0118 -0.0813
  472loPI    C2 7538  16.087   7.953  10.158  0.1030 -0.1440 -0.1434
  472loPI    C3 7539  16.444   8.108  10.253  0.0168  0.0290 -0.0969
  472loPI   PO4 7540  16.287   7.876   9.602 -0.3516  0.2400  0.0474
  472loPI   GL1 7541  16.177   8.122   9.292  0.1834 -0.0005  0.0189
  472loPI   GL2 7542  16.226   8.353   9.041 -0.1071  0.0984 -0.1513
  472loPI   C1A 7543  16.004   7.902   8.884 -0.2416  0.1992 -0.1353
  472loPI   C2A 7544  15.945   7.826   8.426  0.0427  0.3013 -0.0243
  472loPI   C3A 7545  15.797   7.793   7.951  0.2680 -0.0632  0.3559
  472loPI   C4A 7546  15.695   7.671   7.495 -0.0190 -0.0695  0.1512
  472loPI   C5A 7547  15.547   7.569   7.095 -0.0415  0.0598  0.0927
  472loPI   C6A 7548  15.578   7.177   6.861  0.1736 -0.1427 -0.0436
  472loPI   C1B 7549  16.106   8.291   8.568  0.1458 -0.1474 -0.1360
  472loPI   C2B 7550  16.166   8.289   8.083 -0.1684  0.0352 -0.1787
  472loPI   C3B 7551  16.154   8.153   7.692 -0.1381  0.1290 -0.2550
  472loPI   C4B 7552  16.083   7.962   7.272  0.3540 -0.0246  0.1590
  473loPI    C1 7553  17.898   0.289  10.202 -0.0470 -0.0138  0.1369
  473loPI    C2 7554  18.149   0.477   9.954 -0.1602 -0.1515 -0.0842
  473loPI    C3 7555  18.217   0.482  10.348  0.2302 -0.2476 -0.1465
  473loPI   PO4 7556  17.868   0.053  10.073 -0.2008  0.3677  0.0266
  473loPI   GL1 7557  17.807  -0.196   9.701 -0.0379  0.0154 -0.0263
  473loPI   GL2 7558  18.056  -0.081   9.557 -0.0110  0.0230 -0.0271
  473loPI   C1A 7559  17.647  -0.446   9.299 -0.0381 -0.4719  0.2030
  473loPI   C2A 7560  17.683  -0.411   8.879 -0.0603 -0.1642 -0.0076
  473loPI   C3A 7561  17.609  -0.215   8.462  0.2245 -0.1878  0.0385
  473loPI   C4A 7562  17.417  -0.164   8.076  0.3637  0.1368  0.1814
  473loPI   C5A 7563  17.513   0.114   7.783  0.1228 -0.0060  0.1481
  473loPI   C6A 7564  17.485   0.462   7.658  0.0791 -0.0312 -0.0760
  473loPI   C1B 7565  18.120  -0.335   9.274 -0.0503 -0.1202 -0.1060
  473loPI   C2B 7566  18.154  -0.486   8.884 -0.2527  0.0743 -0.0477
  473loPI   C3B 7567  18.121  -0.332   8.394  0.1384  0.0606 -0.1864
  473loPI   C4B 7568  17.956  -0.234   8.009 -0.1577  0.0100 -0.5164
  474loPI    C1 7569   7.401   0.182   9.633  0.0800 -0.0320 -0.1045
  474loPI    C2 7570   7.174   0.277   9.947 -0.0265 -0.5091 -0.0298
  474loPI    C3 7571   7.090  -0.049   9.731  0.0031 -0.1516 -0.6010
  474loPI   PO4 7572   7.446   0.360   9.547 -0.0229  0.1415  0.2223
  474loPI   GL1 7573   7.444   0.587   9.180  0.3308 -0.0574  0.2554
  474loPI   GL2 7574   7.094   0.700   9.204 -0.5344  0.0401  0.1593
  474loPI   C1A 7575   7.783   0.290   8.964 -0.2379 -0.1446 -0.0244
  474loPI   C2A 7576   7.920   0.094   8.568  0.0060 -0.0755 -0.2727
  474loPI   C3A 7577   7.994  -0.272   8.244  0.0709 -0.1868 -0.1088
  474loPI   C4A 7578   8.217  -0.236   7.949  0.0240  0.5400  0.1195
  474loPI   C5A 7579   8.250   0.042   7.520  0.1783  0.1183 -0.0266
  474loPI   C6A 7580   8.461   0.310   7.101  0.0854 -0.1507 -0.0412
  474loPI   C1B 7581   6.999   0.838   8.789  0.2167 -0.0257  0.0454
  474loPI   C2B 7582   7.116   0.824   8.379  0.1956 -0.0409  0.0347
  474loPI   C3B 7583   7.390   0.827   8.094 -0.0592  0.0637 -0.1045
  474loPI   C4B 7584   7.552   0.741   7.734  0.1120  0.2194 -0.2511
  475loPI    C1 7585  15.657  15.244  10.010  0.1306 -0.1235  0.0562
  475loPI    C2 7586  15.590  15.274  10.403 -0.0126 -0.0471  0.0267
  475loPI    C3 7587  15.461  14.953  10.202 -0.3641  0.1341 -0.0438
  475loPI   PO4 7588  15.598  15.458   9.881  0.4474  0.0523  0.0527
  475loPI   GL1 7589  15.679  15.430   9.487  0.1895  0.0362  0.2581
  475loPI   GL2 7590  15.887  15.121   9.561 -0.0893 -0.1883  0.3639
  475loPI   C1A 7591  15.586  15.560   9.073 -0.0904 -0.0061 -0.1737
  475loPI   C2A 7592  15.591  15.790   8.702 -0.1478  0.1829 -0.1450
  475loPI   C3A 7593  15.712  15.786   8.279  0.1343 -0.1612 -0.0087
  475loPI   C4A 7594  15.832  15.874   7.896 -0.1004 -0.3448  0.1507
  475loPI   C5A 7595  15.722  15.844   7.490  0.1010  0.0531  0.0932
  475loPI   C6A 7596  15.850  15.932   7.057  0.0532  0.1199 -0.0233
  475loPI   C1B 7597  15.574  15.068   9.207  0.1040 -0.0400  0.0791
  475loPI   C2B 7598  15.281  14.884   8.951 -0.1639  0.2422  0.1581
  475loPI   C3B 7599  15.321  14.847   8.448  0.4717  0.0500 -0.3290
  475loPI   C4B 7600  15.338  14.709   7.996 -0.1694 -0.3610  0.1021
  476loPI    C1 7601   2.138   2.929   9.892  0.1763 -0.0338 -0.0903
  476loPI    C2 7602   1.941   3.277   9.878  0.1157 -0.0645 -0.0076
  476loPI    C3 7603   1.782   2.964  10.070  0.1741 -0.1354 -0.0738
  476loPI   PO4 7604   2.120   2.855   9.681  0.1669  0.0277 -0.1509
  476loPI   GL1 7605   2.078   2.968   9.262  0.0395  0.1702 -0.1340
  476loPI   GL2 7606   2.094   3.233   9.393  0.0086 -0.0903 -0.0410
  476loPI   C1A 7607   2.099   2.743   8.904 -0.0100  0.2933  0.4272
  476loPI   C2A 7608   1.975   2.541   8.549  0.0380 -0.3752  0.5679
  476loPI   C3A 7609   2.072   2.646   8.141 -0.2329 -0.1661  0.1188
  476loPI   C4A 7610   2.466   2.876   8.202  0.1789 -0.2202  0.1302
  476loPI   C5A 7611   2.930   2.816   8.165  0.2788  0.1040  0.0974
  476loPI   C6A 7612   3.128   2.883   7.762  0.2198 -0.0412 -0.0323
  476loPI   C1B 7613   1.856   3.339   8.992  0.1153 -0.0284 -0.0111
  476loPI   C2B 7614   1.757   3.467   8.634 -0.1377  0.3048  0.0499
  476loPI   C3B 7615   1.797   3.576   8.232 -0.2311  0.0483  0.1402
  476loPI   C4B 7616   1.740   3.828   7.937  0.3684 -0.1481 -0.2249
  477loPI    C1 7617   2.055  17.021  10.075 -0.3547  0.0598 -0.1442
  477loPI    C2 7618   1.725  16.878  10.251 -0.1699 -0.0850  0.0893
  477loPI    C3 7619   2.082  16.834  10.428 -0.0256  0.0804 -0.1556
  477loPI   PO4 7620   2.024  17.225   9.968 -0.2237 -0.1438  0.0587
  477loPI   GL1 7621   2.064  17.215   9.556 -0.0937  0.0485 -0.2602
  477loPI   GL2 7622   2.328  17.371   9.462 -0.0361 -0.1528  0.2248
  477loPI   C1A 7623   2.265  16.911   9.251 -0.1103  0.0317  0.1182
  477loPI   C2A 7624   2.628  16.870   8.944  0.0162  0.1907 -0.0399
  477loPI   C3A 7625   3.083  16.819   8.862  0.0461  0.1243 -0.2969
  477loPI   C4A 7626   3.454  16.900   8.604  0.1985  0.0735  0.2069
  477loPI   C5A 7627   3.811  17.233   8.757 -0.0855  0.3780  0.2391
  477loPI   C6A 7628   4.070  17.522   8.832  0.0775  0.1070  0.1637
  477loPI   C1B 7629   2.243  17.402   8.927  0.2669 -0.0513 -0.0334
  477loPI   C2B 7630   2.177  17.414   8.473 -0.0727  0.2395 -0.0607
  477loPI   C3B 7631   2.464  17.339   8.092 -0.2941  0.2472 -0.1146
  477loPI   C4B 7632   2.579  17.524   7.674 -0.0797 -0.1552 -0.0333
  478loPI    C1 7633  13.569  14.779   9.681  0.1100  0.0073  0.0484
  478loPI    C2 7634  13.638  15.124   9.871  0.3928  0.0017 -0.0393
  478loPI    C3 7635  13.715  14.776  10.053  0.0264 -0.0205  0.0810
  478loPI   PO4 7636  13.325  14.877   9.502  0.0078 -0.3200  0.0752
  478loPI   GL1 7637  13.306  14.963   9.145  0.2234 -0.2295 -0.0786
  478loPI   GL2 7638  13.114  15.286   9.138 -0.2240  0.2019  0.3728
  478loPI   C1A 7639  13.359  15.029   8.635 -0.2452 -0.2271  0.0217
  478loPI   C2A 7640  13.259  15.148   8.235  0.1862 -0.1698  0.0771
  478loPI   C3A 7641  13.047  15.292   7.839 -0.2671  0.0416  0.2802
  478loPI   C4A 7642  12.936  15.486   7.526 -0.2120  0.1168  0.0461
  478loPI   C5A 7643  12.823  15.804   7.462 -0.2054 -0.2944 -0.3208
  478loPI   C6A 7644  12.506  16.011   7.238 -0.1048 -0.2995  0.2684
  478loPI   C1B 7645  13.536  15.340   8.945 -0.3291  0.1770 -0.1096
  478loPI   C2B 7646  13.749  15.411   8.577  0.1158 -0.4384 -0.3403
  478loPI   C3B 7647  14.086  15.378   8.199  0.2366 -0.0660 -0.1284
  478loPI   C4B 7648  14.493  15.375   7.912  0.0309 -0.0945  0.2789
  479loPI    C1 7649   9.161  17.063  10.096 -0.0725 -0.0618  0.2046
  479loPI    C2 7650   9.229  16.929   9.725 -0.0858 -0.0200  0.1869
  479loPI    C3 7651   9.001  16.716   9.976 -0.0749 -0.0494  0.1719
  479loPI   PO4 7652   9.376  17.110  10.180 -0.0198  0.0506  0.1937
  479loPI   GL1 7653   9.626  17.390   9.877  0.2067 -0.0200  0.2478
  479loPI   GL2 7654   9.287  17.563   9.918 -0.0512  0.1050 -0.0399
  479loPI   C1A 7655   9.805  17.178   9.477 -0.1229  0.2779 -0.0857
  479loPI   C2A 7656   9.678  17.080   9.006 -0.0897 -0.1931  0.0193
  479loPI   C3A 7657   9.851  16.850   8.662 -0.2598  0.2263 -0.1039
  479loPI   C4A 7658  10.007  17.041   8.365  0.0440  0.0446 -0.2909
  479loPI   C5A 7659  10.252  17.194   8.023 -0.3598 -0.0991 -0.0149
  479loPI   C6A 7660  10.340  16.971   7.672 -0.1599  0.1752  0.1712
  479loPI   C1B 7661   9.289  17.396   9.531  0.0771  0.1234 -0.3887
  479loPI   C2B 7662   9.311  17.337   9.137 -0.0839 -0.0335 -0.4306
  479loPI   C3B 7663   9.248  17.461   8.782 -0.0398 -0.4008 -0.0157
  479loPI   C4B 7664   9.371  17.607   8.378  0.1341  0.0071  0.0230
  480loPI    C1 7665  11.345  13.725   9.742 -0.0154  0.1607 -0.0161
  480loPI    C2 7666  11.052  13.539   9.542 -0.0872  0.1130  0.1322
  480loPI    C3 7667  11.166  13.404   9.901  0.1639  0.0907  0.0460
  480loPI   PO4 7668  11.332  13.972   9.783 -0.0153 -0.2944  0.2997
  480loPI   GL1 7669  11.448  14.245   9.470  0.2667  0.0434 -0.0801
  480loPI   GL2 7670  11.684  14.143   9.453 -0.1065  0.1598 -0.1844
  480loPI   C1A 7671  11.476  14.498   9.087 -0.0733  0.2524  0.0365
  480loPI   C2A 7672  11.514  14.495   8.583 -0.0441 -0.3754 -0.0536
  480loPI   C3A 7673  11.368  14.632   8.109 -0.0425  0.1538  0.0034
  480loPI   C4A 7674  11.230  14.637   7.646 -0.1883  0.0625  0.4979
  480loPI   C5A 7675  11.046  14.833   7.291 -0.1253 -0.0460 -0.1574
  480loPI   C6A 7676  11.291  14.971   6.879 -0.2843  0.1284 -0.0918
  480loPI   C1B 7677  11.722  13.879   9.017  0.0701 -0.1420  0.2262
  480loPI   C2B 7678  11.946  14.063   8.754 -0.0518  0.3619  0.0872
  480loPI   C3B 7679  12.046  14.429   8.484 -0.1674  0.3436 -0.1426
  480loPI   C4B 7680  11.864  14.652   8.218  0.2782  0.1317  0.1082
  481loPI    C1 7681   0.775  10.467  10.018 -0.0618 -0.0495 -0.1092
  481loPI    C2 7682   0.528  10.427  10.331  0.1079 -0.0132  0.0308
  481loPI    C3 7683   0.834  10.173  10.283  0.0970 -0.0037 -0.0930
  481loPI   PO4 7684   0.653  10.566   9.833 -0.2068 -0.1476  0.2018
  481loPI   GL1 7685   0.813  10.463   9.389 -0.0447 -0.5156 -0.2304
  481loPI   GL2 7686   0.538  10.480   9.360 -0.0087 -0.0768 -0.1712
  481loPI   C1A 7687   1.066  10.631   9.097 -0.0624  0.2051  0.4773
  481loPI   C2A 7688   1.158  10.585   8.660  0.1015  0.1839 -0.1587
  481loPI   C3A 7689   1.472  10.530   8.331  0.1352  0.4049 -0.0153
  481loPI   C4A 7690   1.753  10.576   7.936 -0.1847  0.2857 -0.1624
  481loPI   C5A 7691   1.934  10.409   7.621  0.2636  0.0235 -0.1244
  481loPI   C6A 7692   2.428  10.407   7.500  0.1479 -0.0274  0.1253
  481loPI   C1B 7693   0.401  10.625   8.989  0.2610  0.2458 -0.0107
  481loPI   C2B 7694   0.162  10.888   8.741 -0.3629 -0.4031 -0.1550
  481loPI   C3B 7695  -0.014  11.099   8.333  0.1574 -0.1259 -0.4769
  481loPI   C4B 7696   0.219  11.261   7.955  0.2588  0.1287 -0.2111
  482loPI    C1 7697  14.338  13.069   9.750 -0.0071  0.0263  0.2117
  482loPI    C2 7698  14.136  13.311   9.504 -0.1664 -0.1524  0.1638
  482loPI    C3 7699  14.284  13.453   9.847  0.0119  0.0856 -0.0081
  482loPI   PO4 7700  14.486  12.969   9.687 -0.1267 -0.1469 -0.0028
  482loPI   GL1 7701  14.528  12.914   9.322  0.1289  0.0573  0.1324
  482loPI   GL2 7702  14.228  12.893   9.153 -0.0754  0.0914  0.2824
  482loPI   C1A 7703  14.566  12.596   9.025 -0.0741  0.2052 -0.0575
  482loPI   C2A 7704  14.730  12.527   8.672  0.1913  0.2414  0.3443
  482loPI   C3A 7705  14.886  12.354   8.351 -0.2068  0.0104  0.0315
  482loPI   C4A 7706  14.945  12.447   7.938  0.0930  0.1900  0.1336
  482loPI   C5A 7707  14.918  12.629   7.496  0.0389  0.0961  0.2065
  482loPI   C6A 7708  14.910  13.112   7.349  0.1944 -0.0386  0.1130
  482loPI   C1B 7709  14.127  13.168   8.863  0.0416  0.2669  0.2440
  482loPI   C2B 7710  14.082  13.324   8.471  0.0032 -0.1538 -0.0749
  482loPI   C3B 7711  13.941  13.492   8.059  0.3782  0.0328  0.2820
  482loPI   C4B 7712  13.563  13.501   7.775  0.0464 -0.1060 -0.0148
  483loPI    C1 7713  12.548   8.252   9.725 -0.1030 -0.1328  0.0721
  483loPI    C2 7714  12.919   8.388   9.788 -0.0215 -0.2285 -0.1866
  483loPI    C3 7715  12.677   8.315  10.098  0.0448  0.1916 -0.0295
  483loPI   PO4 7716  12.495   8.368   9.460  0.2326  0.0200  0.2605
  483loPI   GL1 7717  12.184   8.515   9.166 -0.2064  0.1682  0.1371
  483loPI   GL2 7718  12.481   8.557   8.937 -0.0381 -0.0506 -0.1929
  483loPI   C1A 7719  11.959   8.371   8.836  0.0235 -0.1765  0.0352
  483loPI   C2A 7720  11.968   8.303   8.336  0.1505 -0.0147 -0.0572
  483loPI   C3A 7721  12.153   8.371   7.885  0.2609  0.1852 -0.4809
  483loPI   C4A 7722  12.424   8.504   7.485  0.0474  0.1844 -0.0025
  483loPI   C5A 7723  12.452   8.720   7.059  0.0113  0.1122 -0.0506
  483loPI   C6A 7724  12.486   8.783   6.697  0.0181 -0.0108 -0.0581
  483loPI   C1B 7725  12.275   8.795   8.707 -0.3644 -0.0201 -0.2108
  483loPI   C2B 7726  12.173   9.092   8.475  0.0622  0.3457 -0.4627
  483loPI   C3B 7727  12.158   9.297   8.062  0.0656  0.0483  0.3133
  483loPI   C4B 7728  11.993   9.299   7.674  0.0038 -0.1008 -0.1805
  484loPI    C1 7729   6.190   4.431   9.874  0.1299 -0.1082 -0.0579
  484loPI    C2 7730   6.109   4.486  10.262  0.0359  0.0539 -0.0994
  484loPI    C3 7731   6.462   4.335  10.151  0.0400 -0.0502  0.0517
  484loPI   PO4 7732   6.125   4.552   9.728 -0.4311 -0.1245  0.1923
  484loPI   GL1 7733   6.132   4.594   9.282  0.0889 -0.2861 -0.0407
  484loPI   GL2 7734   6.413   4.728   9.275 -0.3549  0.0163 -0.0797
  484loPI   C1A 7735   5.873   4.647   8.841  0.0525 -0.0753 -0.0278
  484loPI   C2A 7736   5.938   4.652   8.471 -0.2364 -0.1850 -0.1026
  484loPI   C3A 7737   5.795   4.744   8.102  0.2195  0.0596  0.1969
  484loPI   C4A 7738   6.022   5.011   7.815  0.1691  0.0900 -0.1182
  484loPI   C5A 7739   5.875   5.472   7.770  0.0405  0.0538  0.2562
  484loPI   C6A 7740   5.966   5.963   7.750  0.0577  0.0749 -0.0632
  484loPI   C1B 7741   6.416   4.644   8.787 -0.1405  0.0191  0.0096
  484loPI   C2B 7742   6.362   4.349   8.508  0.3375 -0.1457 -0.1966
  484loPI   C3B 7743   6.423   4.027   8.151  0.0734 -0.1029  0.1591
  484loPI   C4B 7744   6.214   3.831   7.921  0.0173 -0.2893 -0.0962
  485loPI    C1 7745   9.911  12.110   9.911  0.0575  0.1091 -0.0158
  485loPI    C2 7746  10.086  11.890  10.195 -0.1282  0.0038  0.0187
  485loPI    C3 7747  10.114  12.288  10.206 -0.0545 -0.0039  0.1314
  485loPI   PO4 7748  10.001  11.986   9.706 -0.2979  0.1255  0.1842
  485loPI   GL1 7749   9.851  12.055   9.373 -0.0715 -0.2637  0.4409
  485loPI   GL2 7750   9.593  12.029   9.206  0.1090  0.2614 -0.0180
  485loPI   C1A 7751  10.109  12.169   8.983  0.2264 -0.4558 -0.1337
  485loPI   C2A 7752  10.486  12.321   8.894 -0.0439  0.1730  0.0028
  485loPI   C3A 7753  10.786  12.035   8.681  0.0887 -0.3350  0.0026
  485loPI   C4A 7754  11.113  11.789   8.478  0.0489  0.3499  0.5216
  485loPI   C5A 7755  10.952  11.578   8.099 -0.1600  0.1356  0.1161
  485loPI   C6A 7756  10.815  11.404   7.722  0.0854 -0.0761  0.0595
  485loPI   C1B 7757   9.575  12.074   8.731 -0.0864 -0.0117 -0.1666
  485loPI   C2B 7758   9.699  12.129   8.322 -0.0447 -0.2921  0.0785
  485loPI   C3B 7759   9.968  12.105   8.022 -0.5409  0.0458 -0.1243
  485loPI   C4B 7760  10.139  12.062   7.578 -0.0304  0.0536 -0.2014
  486loPI    C1 7761  12.516   7.886   9.265 -0.1660  0.1816 -0.1075
  486loPI    C2 7762  12.861   8.073   9.346 -0.1890  0.1551  0.0558
  486loPI    C3 7763  12.865   7.711   9.177 -0.1359  0.1388  0.0917
  486loPI   PO4 7764  12.376   7.972   9.109 -0.0305 -0.0866  0.3090
  486loPI   GL1 7765  12.312   7.875   8.777 -0.0797  0.1808 -0.3242
  486loPI   GL2 7766  12.567   7.612   8.649 -0.3543  0.3072  0.0453
  486loPI   C1A 7767  12.407   8.331   8.529  0.1874  0.0424  0.0960
  486loPI   C2A 7768  12.410   8.686   8.211  0.0443  0.1510 -0.1946
  486loPI   C3A 7769  12.309   8.856   7.968  0.1496 -0.1791 -0.0288
  486loPI   C4A 7770  12.406   8.997   7.546 -0.1227  0.2721  0.1036
  486loPI   C5A 7771  12.856   9.219   7.299  0.0112 -0.1074  0.3757
  486loPI   C6A 7772  12.936   9.396   6.938  0.2368 -0.1803  0.1150
  486loPI   C1B 7773  12.637   7.582   8.268 -0.0296 -0.0527 -0.1188
  486loPI   C2B 7774  12.833   7.275   7.972 -0.1674 -0.4649 -0.0230
  486loPI   C3B 7775  13.059   7.031   7.851  0.0257  0.0048  0.0691
  486loPI   C4B 7776  13.317   6.762   7.623  0.2610  0.1596 -0.2824
  487loPI    C1 7777  15.536   2.081  10.243  0.0309  0.0590  0.1962
  487loPI    C2 7778  15.145   1.998  10.232  0.0375  0.0553 -0.0636
  487loPI    C3 7779  15.310   2.137  10.568 -0.2322  0.2729 -0.0180
  487loPI   PO4 7780  15.666   2.091   9.998 -0.1660  0.2936 -0.0521
  487loPI   GL1 7781  15.713   1.899   9.605  0.0611  0.0825  0.0596
  487loPI   GL2 7782  15.538   1.680   9.548 -0.1162  0.1036 -0.4335
  487loPI   C1A 7783  15.567   2.149   9.281  0.1860 -0.0729  0.2425
  487loPI   C2A 7784  15.630   2.299   8.876 -0.1055 -0.1303  0.1202
  487loPI   C3A 7785  15.514   2.243   8.518  0.1135  0.0275  0.0080
  487loPI   C4A 7786  15.444   2.187   8.158  0.1304 -0.0536 -0.2754
  487loPI   C5A 7787  15.433   2.429   7.746 -0.0836  0.0573 -0.2000
  487loPI   C6A 7788  15.499   2.750   7.481 -0.0228 -0.1560 -0.0795
  487loPI   C1B 7789  15.713   1.645   9.125 -0.0315  0.0228 -0.3195
  487loPI   C2B 7790  15.722   1.696   8.629  0.0158  0.1151 -0.0998
  487loPI   C3B 7791  15.824   1.693   8.178 -0.0840  0.1188  0.0171
  487loPI   C4B 7792  15.747   1.959   7.815  0.0675 -0.0646 -0.0444
  488loPI    C1 7793   9.720   9.783   9.383 -0.0123 -0.1843  0.1318
  488loPI    C2 7794   9.620  10.168   9.345 -0.0890 -0.2067  0.1060
  488loPI    C3 7795   9.761  10.032   9.693  0.1438 -0.1090  0.0519
  488loPI   PO4 7796   9.561   9.679   9.324  0.0966 -0.2831  0.3337
  488loPI   GL1 7797   9.546   9.525   8.958  0.0239  0.4032  0.1544
  488loPI   GL2 7798   9.865   9.316   9.078  0.3955 -0.3791 -0.0422
  488loPI   C1A 7799   9.359   9.297   8.519 -0.1881 -0.0960 -0.1070
  488loPI   C2A 7800   9.114   9.191   8.245 -0.0278  0.0757 -0.1087
  488loPI   C3A 7801   8.908   9.342   8.019 -0.1556  0.0145  0.2728
  488loPI   C4A 7802   8.588   9.521   7.808 -0.0115  0.4766 -0.0991
  488loPI   C5A 7803   8.591   9.820   7.479 -0.1192  0.0364  0.4192
  488loPI   C6A 7804   8.332  10.246   7.449 -0.0018 -0.0280 -0.0862
  488loPI   C1B 7805   9.996   9.427   8.676 -0.1965  0.0364  0.0467
  488loPI   C2B 7806  10.040   9.320   8.291  0.2608  0.1666 -0.0824
  488loPI   C3B 7807  10.144   9.121   7.851 -0.1360 -0.1926 -0.2203
  488loPI   C4B 7808  10.229   9.229   7.448 -0.0913  0.2021 -0.0574
  489loPI    C1 7809   2.503  16.752  10.137 -0.1704  0.2799  0.0394
  489loPI    C2 7810   2.585  16.453  10.390 -0.2038  0.1556 -0.0955
  489loPI    C3 7811   2.599  16.832  10.517  0.0515  0.1089  0.0210
  489loPI   PO4 7812   2.651  16.683   9.950 -0.1043 -0.0342 -0.1896
  489loPI   GL1 7813   2.725  16.759   9.451 -0.2620  0.2183  0.0895
  489loPI   GL2 7814   2.638  16.534   9.459  0.1553 -0.2596 -0.0008
  489loPI   C1A 7815   2.914  17.173   9.299 -0.0036  0.1924 -0.0047
  489loPI   C2A 7816   2.840  17.383   8.877 -0.2117 -0.0101  0.0834
  489loPI   C3A 7817   2.789  17.204   8.515 -0.1407 -0.0433 -0.0929
  489loPI   C4A 7818   3.046  17.038   8.236  0.4502  0.1189 -0.0548
  489loPI   C5A 7819   3.001  17.116   7.862  0.0380 -0.0264 -0.1144
  489loPI   C6A 7820   3.053  17.104   7.425  0.0610 -0.1878  0.1937
  489loPI   C1B 7821   2.403  16.411   9.068 -0.0961  0.0121 -0.1748
  489loPI   C2B 7822   2.331  16.360   8.674  0.1390 -0.1445  0.1270
  489loPI   C3B 7823   2.081  16.047   8.369 -0.2268 -0.0562 -0.1692
  489loPI   C4B 7824   1.884  15.876   7.989 -0.0564  0.4054  0.0218
  490loPI    C1 7825   2.113   8.566   9.554 -0.1663 -0.0283 -0.0173
  490loPI    C2 7826   1.988   8.401   9.897  0.0114  0.0396  0.0815
  490loPI    C3 7827   2.206   8.186   9.639  0.1583  0.0882  0.1645
  490loPI   PO4 7828   2.216   8.817   9.602  0.1023 -0.4015  0.1153
  490loPI   GL1 7829   2.297   9.137   9.316 -0.0889 -0.3134 -0.2854
  490loPI   GL2 7830   2.129   9.302   9.361 -0.0862  0.1319  0.1156
  490loPI   C1A 7831   2.142   8.844   8.969  0.1343 -0.4537  0.1816
  490loPI   C2A 7832   1.882   8.805   8.548  0.0385  0.1936 -0.3237
  490loPI   C3A 7833   1.768   8.842   8.108 -0.0794 -0.2035 -0.0249
  490loPI   C4A 7834   1.933   8.966   7.772  0.3103  0.4860  0.0221
  490loPI   C5A 7835   1.789   8.846   7.353  0.0301  0.1339  0.2709
  490loPI   C6A 7836   1.795   8.915   6.946  0.0482 -0.1526 -0.3713
  490loPI   C1B 7837   1.738   9.212   9.198  0.1412 -0.2609 -0.0871
  490loPI   C2B 7838   1.491   9.062   8.916  0.3012 -0.0524 -0.1489
  490loPI   C3B 7839   1.112   9.173   8.665  0.0104  0.4102  0.4466
  490loPI   C4B 7840   0.629   9.157   8.555 -0.2390  0.3524 -0.0524
  491loPI    C1 7841   7.833   6.086   9.975  0.0971  0.0339  0.0202
  491loPI    C2 7842   7.819   5.749  10.190 -0.3370  0.0918  0.0925
  491loPI    C3 7843   8.036   6.060  10.319 -0.0409 -0.1106  0.0921
  491loPI   PO4 7844   7.863   5.997   9.708  0.2070 -0.1093  0.4743
  491loPI   GL1 7845   8.186   6.003   9.381 -0.0237  0.0848 -0.0721
  491loPI   GL2 7846   8.517   5.853   9.435 -0.2109 -0.0748 -0.0545
  491loPI   C1A 7847   8.014   5.917   8.998 -0.2225 -0.0392 -0.0220
  491loPI   C2A 7848   8.174   5.823   8.587 -0.2627  0.2631  0.3557
  491loPI   C3A 7849   8.293   5.470   8.142  0.0348 -0.0236  0.0448
  491loPI   C4A 7850   8.399   5.212   7.974  0.3951  0.2687 -0.2339
  491loPI   C5A 7851   8.259   4.926   7.653  0.0170 -0.0664 -0.2439
  491loPI   C6A 7852   8.159   4.826   7.253  0.0886 -0.0689 -0.1584
  491loPI   C1B 7853   8.468   5.633   9.073 -0.0587 -0.0659  0.4667
  491loPI   C2B 7854   8.378   5.365   8.724  0.0540  0.0041 -0.0800
  491loPI   C3B 7855   8.329   5.018   8.417  0.0049 -0.1531 -0.0017
  491loPI   C4B 7856   8.390   4.672   8.056  0.1638  0.0458  0.1543
  492loPI    C1 7857   6.262  13.135  10.088  0.2626 -0.1602 -0.0899
  492loPI    C2 7858   6.178  13.523  10.046 -0.2325 -0.2518 -0.0025
  492loPI    C3 7859   6.506  13.410  10.244  0.0454  0.1209 -0.2376
  492loPI   PO4 7860   6.252  13.101   9.807  0.0616 -0.1404 -0.2941
  492loPI   GL1 7861   6.033  13.066   9.421 -0.3174  0.0638 -0.2124
  492loPI   GL2 7862   5.755  12.905   9.496  0.0844 -0.1198 -0.1335
  492loPI   C1A 7863   5.969  12.964   8.966 -0.0487  0.0454 -0.1783
  492loPI   C2A 7864   5.727  13.077   8.676  0.0663  0.0096  0.0847
  492loPI   C3A 7865   5.405  12.795   8.533  0.1986 -0.1175  0.1185
  492loPI   C4A 7866   5.252  12.672   8.199  0.1293 -0.1787  0.2341
  492loPI   C5A 7867   5.093  12.438   7.957 -0.2136  0.1281 -0.0653
  492loPI   C6A 7868   5.367  12.437   7.573  0.0571  0.5158  0.1849
  492loPI   C1B 7869   5.430  13.036   9.181  0.0164 -0.2888 -0.0385
  492loPI   C2B 7870   5.340  13.290   8.954  0.0432 -0.1208 -0.3133
  492loPI   C3B 7871   5.428  13.497   8.584  0.1718  0.2152  0.1214
  492loPI   C4B 7872   5.291  13.669   8.193 -0.2109 -0.0777 -0.2106
  493loPI    C1 7873  14.094   2.055  10.248 -0.1715  0.2645 -0.0019
  493loPI    C2 7874  14.186   2.240  10.590  0.0378 -0.0063  0.0915
  493loPI    C3 7875  14.024   1.874  10.597 -0.0953  0.0474 -0.0971
  493loPI   PO4 7876  14.240   1.984  10.142  0.0103  0.2423  0.0375
  493loPI   GL1 7877  14.227   1.623   9.979 -0.0125  0.1797 -0.2014
  493loPI   GL2 7878  14.166   1.281  10.049  0.1111 -0.1918  0.1060
  493loPI   C1A 7879  14.242   1.664   9.522 -0.0157  0.3027  0.1007
  493loPI   C2A 7880  14.052   1.784   9.108  0.1418  0.2059 -0.1196
  493loPI   C3A 7881  14.262   1.909   8.772 -0.1075 -0.0244  0.0867
  493loPI   C4A 7882  14.164   1.868   8.457  0.2185  0.0431  0.1267
  493loPI   C5A 7883  14.164   1.775   8.046 -0.6180 -0.0082 -0.1154
  493loPI   C6A 7884  14.131   1.446   7.704  0.2148 -0.1498 -0.0860
  493loPI   C1B 7885  14.216   1.110   9.649  0.1592  0.1387 -0.0980
  493loPI   C2B 7886  14.220   0.896   9.187 -0.0530  0.1000 -0.0998
  493loPI   C3B 7887  14.459   0.941   8.870 -0.0703 -0.0754 -0.0705
  493loPI   C4B 7888  14.535   1.003   8.433 -0.0124  0.3396  0.0825
  494loPI    C1 7889   0.640  15.296  10.399 -0.1060  0.0372  0.0953
  494loPI    C2 7890   1.005  15.244  10.556 -0.1391 -0.2772  0.0749
  494loPI    C3 7891   0.775  15.546  10.681  0.0996 -0.1188  0.1384
  494loPI   PO4 7892   0.628  15.196  10.137 -0.0108  0.0316  0.2313
  494loPI   GL1 7893   0.456  15.157   9.688  0.1023  0.1020 -0.0299
  494loPI   GL2 7894   0.544  15.515   9.634  0.0879 -0.2290 -0.3472
  494loPI   C1A 7895   0.674  15.096   9.422  0.0458 -0.0604 -0.2247
  494loPI   C2A 7896   0.695  15.059   9.052  0.1805  0.0154  0.2365
  494loPI   C3A 7897   0.589  15.008   8.596  0.0896  0.0638  0.0923
  494loPI   C4A 7898   0.713  14.921   8.251 -0.1721  0.2881  0.0865
  494loPI   C5A 7899   0.734  14.627   7.950 -0.1674 -0.0598 -0.1368
  494loPI   C6A 7900   0.915  14.293   7.810  0.2071 -0.2671  0.0012
  494loPI   C1B 7901   0.608  15.523   9.203 -0.1229  0.4806  0.1856
  494loPI   C2B 7902   0.934  15.613   8.777  0.0033  0.2094 -0.0687
  494loPI   C3B 7903   1.177  15.635   8.460  0.2428  0.3484  0.2895
  494loPI   C4B 7904   1.541  15.596   8.218 -0.0345  0.0060  0.3760
  495loPI    C1 7905  14.693  10.522   9.890 -0.1374  0.1997  0.1887
  495loPI    C2 7906  14.740  10.656  10.263  0.0296  0.1093  0.2010
  495loPI    C3 7907  14.842  10.281  10.171  0.1557  0.1854  0.0245
  495loPI   PO4 7908  14.843  10.650   9.753  0.1295 -0.0237 -0.3643
  495loPI   GL1 7909  15.141  10.910   9.467 -0.0441  0.3811 -0.0542
  495loPI   GL2 7910  15.304  10.669   9.582  0.1571  0.0757  0.0033
  495loPI   C1A 7911  15.110  11.301   9.159  0.0950  0.1304 -0.0240
  495loPI   C2A 7912  15.091  11.519   8.767  0.2508  0.0233  0.0972
  495loPI   C3A 7913  15.180  11.609   8.276 -0.3624 -0.1813 -0.2138
  495loPI   C4A 7914  15.327  11.765   7.791  0.0939  0.1323  0.0766
  495loPI   C5A 7915  15.126  11.833   7.386  0.1378 -0.0451  0.0301
  495loPI   C6A 7916  14.718  11.929   7.175 -0.2268  0.1663  0.0982
  495loPI   C1B 7917  15.659  10.752   9.336  0.0966 -0.0076 -0.1164
  495loPI   C2B 7918  15.430  10.893   8.944  0.0164 -0.2193 -0.1942
  495loPI   C3B 7919  15.404  11.120   8.559  0.0242  0.2113 -0.0566
  495loPI   C4B 7920  15.684  11.065   8.135  0.1269 -0.1165  0.0407
  496loPI    C1 7921   5.770   0.030   9.864  0.1720 -0.3249 -0.0544
  496loPI    C2 7922   5.912   0.282  10.140  0.0359 -0.0433 -0.2364
  496loPI    C3 7923   6.163   0.045   9.937  0.1529 -0.1383  0.0150
  496loPI   PO4 7924   5.486   0.255   9.837 -0.1468  0.0759 -0.1191
  496loPI   GL1 7925   5.224   0.356   9.462 -0.2253 -0.0215 -0.3052
  496loPI   GL2 7926   5.359   0.676   9.569 -0.2272 -0.0081  0.0355
  496loPI   C1A 7927   5.046  -0.135   9.398  0.0841  0.2043 -0.4370
  496loPI   C2A 7928   5.018  -0.403   9.102 -0.0256 -0.2946 -0.3049
  496loPI   C3A 7929   5.084  -0.231   8.775  0.3052 -0.1182 -0.0643
  496loPI   C4A 7930   4.908  -0.091   8.398  0.2066  0.0848 -0.0842
  496loPI   C5A 7931   4.606   0.356   8.401  0.1312  0.0875 -0.2003
  496loPI   C6A 7932   4.251   0.216   8.724 -0.2732  0.1330  0.0503
  496loPI   C1B 7933   5.292   0.728   9.102 -0.1353  0.0552  0.1737
  496loPI   C2B 7934   5.561   0.552   8.787 -0.1180 -0.2548 -0.1687
  496loPI   C3B 7935   5.770   0.449   8.406  0.0031  0.2300 -0.1115
  496loPI   C4B 7936   5.727   0.258   7.919  0.0754  0.2700  0.1451
  497loPI    C1 7937   9.857  10.558   9.940 -0.1998  0.1590  0.0705
  497loPI    C2 7938   9.949  10.217  10.127 -0.0986  0.1306 -0.0298
  497loPI    C3 7939  10.138  10.556  10.224  0.0758  0.0830 -0.1970
  497loPI   PO4 7940   9.888  10.524   9.676 -0.2769  0.0556  0.1694
  497loPI   GL1 7941  10.015  10.728   9.329 -0.1118 -0.1156 -0.1865
  497loPI   GL2 7942  10.305  10.730   9.445  0.0509 -0.0701 -0.1981
  497loPI   C1A 7943  10.024  11.031   8.917 -0.0036  0.2371  0.2302
  497loPI   C2A 7944  10.140  11.235   8.513 -0.0682  0.1156  0.0189
  497loPI   C3A 7945   9.950  11.226   8.109  0.3245 -0.2111 -0.3516
  497loPI   C4A 7946  10.035  11.128   7.697 -0.1491 -0.1101  0.1579
  497loPI   C5A 7947  10.265  11.163   7.401  0.4446  0.2938  0.1306
  497loPI   C6A 7948  10.238  11.073   7.063 -0.0572  0.0420  0.1143
  497loPI   C1B 7949  10.265  10.558   8.978  0.0998  0.0582  0.1707
  497loPI   C2B 7950  10.303  10.378   8.636  0.1324  0.0224 -0.0888
  497loPI   C3B 7951  10.218  10.061   8.735  0.2074 -0.2731 -0.1165
  497loPI   C4B 7952   9.853  10.004   8.842  0.0646 -0.0021  0.0903
  498loPI    C1 7953   3.665  10.259  10.151 -0.3395 -0.1070  0.0139
  498loPI    C2 7954   3.410  10.037  10.365 -0.0665 -0.3234  0.1207
  498loPI    C3 7955   3.631  10.318  10.545 -0.1175 -0.2410  0.0550
  498loPI   PO4 7956   3.660  10.148   9.864 -0.0495 -0.0655 -0.1149
  498loPI   GL1 7957   3.571  10.281   9.430  0.3275  0.0103 -0.2702
  498loPI   GL2 7958   3.243  10.254   9.451 -0.1264 -0.0672 -0.0441
  498loPI   C1A 7959   3.465  10.200   8.946  0.0399  0.0381 -0.3523
  498loPI   C2A 7960   3.483  10.128   8.563 -0.1999  0.4338 -0.0240
  498loPI   C3A 7961   3.390  10.012   8.177 -0.0493 -0.1963 -0.0445
  498loPI   C4A 7962   3.446  10.054   7.832 -0.2893 -0.1730 -0.3058
  498loPI   C5A 7963   3.259   9.887   7.574 -0.0707  0.3178  0.2414
  498loPI   C6A 7964   3.031   9.850   7.178 -0.0106  0.0522  0.0594
  498loPI   C1B 7965   3.004  10.396   9.162  0.2756  0.0076 -0.4398
  498loPI   C2B 7966   2.669  10.687   9.190 -0.2626  0.1770 -0.2238
  498loPI   C3B 7967   2.400  10.747   8.793 -0.1899 -0.3556  0.0259
  498loPI   C4B 7968   2.584  10.734   8.386 -0.2263 -0.0825  0.0805
  499loPI    C1 7969   6.806  17.137   9.950  0.0068 -0.0903 -0.1652
  499loPI    C2 7970   6.974  17.111  10.312 -0.3277  0.1276  0.0120
  499loPI    C3 7971   6.576  17.118  10.277 -0.3032 -0.1143 -0.3801
  499loPI   PO4 7972   6.899  16.943   9.709  0.2607 -0.2405  0.3376
  499loPI   GL1 7973   6.706  16.893   9.391 -0.1322 -0.3045 -0.0033
  499loPI   GL2 7974   7.038  16.730   9.239 -0.0919 -0.1670 -0.3272
  499loPI   C1A 7975   6.525  16.816   8.916 -0.2336  0.1615 -0.1424
  499loPI   C2A 7976   6.452  16.740   8.558  0.2514  0.2115 -0.0756
  499loPI   C3A 7977   6.545  16.933   8.159  0.2130  0.3495  0.1890
  499loPI   C4A 7978   6.632  17.131   7.734  0.0949  0.2152 -0.3702
  499loPI   C5A 7979   6.418  17.424   7.512 -0.0791  0.0842  0.1882
  499loPI   C6A 7980   5.961  17.258   7.373 -0.1474  0.4321 -0.2821
  499loPI   C1B 7981   6.976  16.698   8.802 -0.1354 -0.0567  0.0107
  499loPI   C2B 7982   7.048  16.633   8.376  0.1194 -0.1095 -0.2799
  499loPI   C3B 7983   6.946  16.550   8.068 -0.0368 -0.2169 -0.0942
  499loPI   C4B 7984   7.112  16.312   7.769 -0.2592  0.0168 -0.0377
  500loPI    C1 7985   1.932  13.308   9.966 -0.0543  0.0265  0.0344
  500loPI    C2 7986   1.604  13.149  10.131  0.0690  0.0409  0.2993
  500loPI    C3 7987   1.896  13.289  10.364  0.1643  0.2374  0.0659
  500loPI   PO4 7988   1.894  13.494   9.843  0.1010  0.1099 -0.0408
  500loPI   GL1 7989   1.635  13.456   9.532 -0.1673  0.2881  0.1667
  500loPI   GL2 7990   1.397  13.217   9.598 -0.0876 -0.3471  0.0891
  500loPI   C1A 7991   1.331  13.648   9.204  0.5372  0.2471 -0.0939
  500loPI   C2A 7992   1.113  13.832   8.861  0.3731  0.0711  0.0987
  500loPI   C3A 7993   0.939  13.548   8.464  0.2392  0.0937  0.1616
  500loPI   C4A 7994   0.499  13.644   8.224  0.1462 -0.1357 -0.1292
  500loPI   C5A 7995   0.126  13.755   8.003  0.0569  0.0165 -0.1002
  500loPI   C6A 7996  -0.041  14.094   7.818 -0.0143  0.1621  0.2432
  500loPI   C1B 7997   1.211  13.092   9.271  0.3573  0.1544 -0.0344
  500loPI   C2B 7998   1.019  13.285   8.917 -0.0406 -0.2056 -0.0330
  500loPI   C3B 7999   0.840  12.950   8.671  0.3115  0.1293 -0.1547
  500loPI   C4B 8000   0.712  12.440   8.610  0.0450  0.2045 -0.3609
  501loPI    C1 8001  17.151   8.846   9.702  0.3867  0.1125 -0.0286
  501loPI    C2 8002  16.940   8.971  10.018  0.1081 -0.1345 -0.1132
  501loPI    C3 8003  17.112   9.238   9.775  0.3465  0.0572  0.2573
  501loPI   PO4 8004  16.969   8.625   9.505 -0.3302  0.1903  0.0869
  501loPI   GL1 8005  17.096   8.507   9.116  0.2369  0.0688  0.1622
  501loPI   GL2 8006  17.142   8.295   8.891  0.1506  0.0913 -0.3128
  501loPI   C1A 8007  17.369   8.906   8.992  0.2300 -0.0918  0.1148
  501loPI   C2A 8008  17.537   9.100   8.807 -0.2671  0.1752 -0.2176
  501loPI   C3A 8009  17.448   9.487   8.666  0.5955 -0.0749  0.0765
  501loPI   C4A 8010  17.470   9.638   8.305 -0.0801  0.0128  0.0377
  501loPI   C5A 8011  17.258   9.807   7.943  0.1229  0.1990 -0.0223
  501loPI   C6A 8012  17.293  10.240   7.714  0.0808 -0.0501  0.1894
  501loPI   C1B 8013  17.095   8.425   8.522 -0.2766  0.0128 -0.1432
  501loPI   C2B 8014  17.049   8.314   8.092 -0.0291 -0.1400 -0.0393
  501loPI   C3B 8015  17.461   8.200   7.842 -0.0528 -0.1080 -0.2806
  501loPI   C4B 8016  17.785   7.899   7.997  0.0871 -0.0866 -0.5660
  502loPI    C1 8017  18.006  14.159  10.222 -0.0122  0.2661  0.1461
  502loPI    C2 8018  17.999  13.769  10.307  0.0999  0.2336  0.0114
  502loPI    C3 8019  17.867  14.035  10.575 -0.0177  0.1010  0.0866
  502loPI   PO4 8020  17.945  14.155   9.953 -0.0981 -0.1365  0.1429
  502loPI   GL1 8021  18.166  14.130   9.560  0.0775 -0.3065 -0.1125
  502loPI   GL2 8022  17.902  13.989   9.421 -0.4270 -0.0823 -0.0341
  502loPI   C1A 8023  18.258  14.157   9.085 -0.2054 -0.1024 -0.1607
  502loPI   C2A 8024  18.538  14.352   8.816  0.0193 -0.2513  0.3535
  502loPI   C3A 8025  18.678  14.562   8.565  0.1429  0.0555 -0.1595
  502loPI   C4A 8026  18.822  14.589   8.206 -0.1778  0.2692 -0.2536
  502loPI   C5A 8027  18.721  14.712   7.825  0.0194 -0.0738  0.0053
  502loPI   C6A 8028  19.024  15.058   7.583 -0.0734 -0.3766  0.0585
  502loPI   C1B 8029  18.003  14.500   9.261  0.0834 -0.0295  0.0970
  502loPI   C2B 8030  18.142  14.587   8.908  0.0574 -0.1204  0.0921
  502loPI   C3B 8031  18.127  14.584   8.465 -0.0565  0.0345 -0.3184
  502loPI   C4B 8032  17.852  14.701   8.093 -0.2163  0.1010 -0.1002
  503loPI    C1 8033  10.563  17.497  10.189  0.2262  0.2884  0.0069
  503loPI    C2 8034  10.199  17.559  10.344  0.1304 -0.0577 -0.0691
  503loPI    C3 8035  10.513  17.769  10.477 -0.1113  0.3147 -0.0719
  503loPI   PO4 8036  10.584  17.556   9.943  0.0721 -0.3797 -0.0094
  503loPI   GL1 8037  10.795  17.908   9.589 -0.2322 -0.4753  0.0198
  503loPI   GL2 8038  10.467  17.754   9.552 -0.2789 -0.1289 -0.1747
  503loPI   C1A 8039  11.028  17.842   9.167  0.1609 -0.1686  0.2956
  503loPI   C2A 8040  11.252  17.826   8.760  0.2690 -0.3618  0.0841
  503loPI   C3A 8041  11.271  17.954   8.351  0.0402 -0.0391  0.1232
  503loPI   C4A 8042  11.257  18.203   7.922 -0.0841  0.1879 -0.0817
  503loPI   C5A 8043  10.960  18.252   7.573 -0.1902  0.1624  0.1020
  503loPI   C6A 8044  10.743  18.329   7.216  0.1291  0.3004  0.5360
  503loPI   C1B 8045  10.468  17.912   9.178 -0.0952  0.0537 -0.2204
  503loPI   C2B 8046  10.353  18.156   8.851 -0.2394 -0.2180  0.0221
  503loPI   C3B 8047  10.519  18.329   8.481  0.0710  0.1123 -0.3896
  503loPI   C4B 8048  10.956  18.412   8.338 -0.3273 -0.5090 -0.1432
  504loPI    C1 8049   7.520   9.705   9.758  0.1619 -0.1748 -0.0548
  504loPI    C2 8050   7.514   9.692  10.158 -0.0238 -0.1478 -0.0558
  504loPI    C3 8051   7.174   9.745   9.955  0.0713 -0.1509 -0.2176
  504loPI   PO4 8052   7.722   9.558   9.647 -0.3293  0.0421  0.0569
  504loPI   GL1 8053   7.636   9.528   9.187  0.4589 -0.0195  0.0774
  504loPI   GL2 8054   7.505   9.782   9.177  0.1110  0.0964  0.4364
  504loPI   C1A 8055   7.648   9.234   8.807 -0.2219 -0.0419  0.3329
  504loPI   C2A 8056   7.906   9.036   8.391  0.1476  0.2131 -0.0812
  504loPI   C3A 8057   8.021   8.861   7.992 -0.3482 -0.1279 -0.0868
  504loPI   C4A 8058   8.132   8.825   7.486  0.0067  0.1348  0.0106
  504loPI   C5A 8059   8.406   8.652   7.287  0.1668  0.2111  0.3084
  504loPI   C6A 8060   8.854   8.656   7.227  0.4851 -0.0794  0.0000
  504loPI   C1B 8061   7.417   9.662   8.802  0.2183  0.2205  0.0588
  504loPI   C2B 8062   7.375   9.737   8.378 -0.1348 -0.3306  0.0722
  504loPI   C3B 8063   7.218   9.665   7.896 -0.0933  0.0031 -0.0260
  504loPI   C4B 8064   7.159   9.848   7.558  0.1021 -0.0938 -0.0330
  505loPI    C1 8065  15.967  16.897  10.003  0.0089  0.1772  0.0659
  505loPI    C2 8066  16.100  16.714  10.333  0.1664  0.2033  0.0176
  505loPI    C3 8067  16.189  17.098  10.268  0.0794  0.2168 -0.0228
  505loPI   PO4 8068  15.771  16.699   9.932  0.1183  0.3075  0.1331
  505loPI   GL1 8069  15.819  16.429   9.577 -0.0542 -0.0038  0.2012
  505loPI   GL2 8070  15.493  16.524   9.540  0.3221  0.0319 -0.1811
  505loPI   C1A 8071  16.076  16.402   9.260  0.0256  0.1968 -0.0637
  505loPI   C2A 8072  16.266  16.364   8.846  0.0169 -0.0058  0.1913
  505loPI   C3A 8073  16.495  16.567   8.539  0.2278  0.1653 -0.0362
  505loPI   C4A 8074  16.703  16.909   8.252 -0.1796 -0.0966 -0.0166
  505loPI   C5A 8075  17.050  17.219   7.996  0.0460 -0.0234 -0.0145
  505loPI   C6A 8076  17.263  17.450   7.685  0.0395 -0.0352  0.0412
  505loPI   C1B 8077  15.331  16.388   9.158  0.1919 -0.0426  0.3466
  505loPI   C2B 8078  15.182  16.346   8.701 -0.0603 -0.1555  0.2123
  505loPI   C3B 8079  15.506  16.164   8.400 -0.0778 -0.1257  0.0814
  505loPI   C4B 8080  15.388  16.066   7.976 -0.2064  0.3416  0.1382
  506loPI    C1 8081  13.247   7.507   9.534 -0.0780 -0.0083 -0.1183
  506loPI    C2 8082  13.242   7.186   9.772  0.0614  0.1048  0.0397
  506loPI    C3 8083  13.244   7.553   9.932 -0.1547  0.1865 -0.1399
  506loPI   PO4 8084  13.216   7.363   9.280  0.0796 -0.1320 -0.3445
  506loPI   GL1 8085  13.209   7.411   8.883  0.1076  0.1045  0.1463
  506loPI   GL2 8086  13.119   7.688   8.750  0.0437  0.2278  0.1845
  506loPI   C1A 8087  13.553   7.396   8.587 -0.2922 -0.2772  0.0278
  506loPI   C2A 8088  13.655   7.473   8.256  0.1461  0.0595  0.0093
  506loPI   C3A 8089  13.849   7.571   7.840 -0.1611 -0.1550  0.0714
  506loPI   C4A 8090  13.998   7.522   7.566  0.0147  0.2975  0.0723
  506loPI   C5A 8091  14.021   7.379   7.197 -0.1044 -0.0206 -0.0412
  506loPI   C6A 8092  14.277   7.079   6.928 -0.0298  0.1821  0.0314
  506loPI   C1B 8093  13.119   7.585   8.293  0.1544 -0.0924  0.0584
  506loPI   C2B 8094  13.189   7.585   7.907  0.1860 -0.1071 -0.1940
  506loPI   C3B 8095  13.011   7.404   7.468  0.3134 -0.0027 -0.2658
  506loPI   C4B 8096  12.678   7.190   7.533  0.0989 -0.4884 -0.2490
  507loPI    C1 8097  11.752  11.577   9.874 -0.2417  0.1044 -0.1876
  507loPI    C2 8098  11.608  11.853  10.125  0.0816  0.0117  0.1079
  507loPI    C3 8099  11.389  11.530  10.036 -0.1512  0.1845  0.0434
  507loPI   PO4 8100  11.817  11.690   9.622 -0.1967 -0.0118  0.1151
  507loPI   GL1 8101  11.784  11.441   9.120  0.0849  0.1782  0.0935
  507loPI   GL2 8102  11.694  11.150   8.867  0.0359  0.0906  0.0702
  507loPI   C1A 8103  11.929  11.614   8.780 -0.0060  0.0266 -0.1008
  507loPI   C2A 8104  11.999  11.984   8.625 -0.0602  0.0965  0.2561
  507loPI   C3A 8105  11.809  12.292   8.288  0.0861  0.3029 -0.0401
  507loPI   C4A 8106  11.695  12.442   8.010 -0.1500 -0.1042  0.0170
  507loPI   C5A 8107  11.791  12.564   7.589 -0.3353 -0.3495 -0.2026
  507loPI   C6A 8108  12.170  12.612   7.338 -0.2117  0.0905  0.0685
  507loPI   C1B 8109  11.478  11.366   8.571 -0.0320 -0.1015  0.1180
  507loPI   C2B 8110  11.431  11.438   8.148 -0.4816  0.4390  0.0819
  507loPI   C3B 8111  11.371  11.435   7.648  0.0942 -0.1044  0.1491
  507loPI   C4B 8112  11.106  11.379   7.337  0.2412  0.2410  0.3704
  508loPI    C1 8113  11.972  17.663  10.128 -0.1876 -0.0815 -0.1248
  508loPI    C2 8114  11.811  17.557  10.478  0.0551 -0.2122 -0.0504
  508loPI    C3 8115  12.170  17.733  10.468  0.0040 -0.1159 -0.2278
  508loPI   PO4 8116  12.047  17.389   9.954 -0.0424  0.1142  0.1436
  508loPI   GL1 8117  11.897  17.095   9.655 -0.0892  0.0404  0.1233
  508loPI   GL2 8118  11.791  17.557   9.555  0.1350  0.0673 -0.0064
  508loPI   C1A 8119  11.947  17.167   9.196  0.1591 -0.2771 -0.0824
  508loPI   C2A 8120  11.980  17.543   8.962  0.0470  0.3143 -0.0915
  508loPI   C3A 8121  12.023  17.578   8.482  0.1814  0.0265 -0.1390
  508loPI   C4A 8122  12.343  17.386   8.223 -0.2656  0.3585 -0.0502
  508loPI   C5A 8123  12.591  17.381   7.919  0.1589  0.1602 -0.0108
  508loPI   C6A 8124  12.664  17.239   7.542  0.1001  0.1975 -0.0832
  508loPI   C1B 8125  12.074  17.916   9.352  0.1553  0.1238 -0.2554
  508loPI   C2B 8126  12.184  18.032   8.827  0.2520 -0.2046 -0.1553
  508loPI   C3B 8127  12.239  17.962   8.347  0.2259  0.2374 -0.1390
  508loPI   C4B 8128  12.105  17.700   7.911  0.0161 -0.0307 -0.2089
  509loPI    C1 8129  10.122  17.017  10.271  0.0397 -0.0281  0.1435
  509loPI    C2 8130   9.815  17.258  10.358  0.0698  0.0289  0.0933
  509loPI    C3 8131  10.084  17.166  10.640  0.0685  0.0686  0.1077
  509loPI   PO4 8132  10.218  17.110  10.021  0.2951 -0.2397  0.2151
  509loPI   GL1 8133  10.360  17.245   9.605 -0.0216 -0.0661 -0.1187
  509loPI   GL2 8134  10.599  17.239   9.388  0.0419  0.1243  0.0457
  509loPI   C1A 8135  10.181  17.497   9.250  0.2151 -0.1648 -0.1495
  509loPI   C2A 8136  10.229  17.671   8.794 -0.1675 -0.0984  0.2944
  509loPI   C3A 8137  10.113  17.884   8.491  0.2546  0.0984  0.2810
  509loPI   C4A 8138  10.191  17.916   8.099 -0.0713  0.1168  0.0455
  509loPI   C5A 8139  10.424  17.747   7.839 -0.1382 -0.0598 -0.0232
  509loPI   C6A 8140  10.688  17.411   7.863 -0.3108 -0.1316  0.2040
  509loPI   C1B 8141  10.605  17.443   9.035  0.4400 -0.1097 -0.0544
  509loPI   C2B 8142  10.715  17.726   8.772  0.0883  0.0706 -0.2608
  509loPI   C3B 8143  10.802  17.934   8.392 -0.1514  0.1337  0.2262
  509loPI   C4B 8144  10.773  18.053   8.067  0.0286  0.2313  0.1173
  510loPI    C1 8145  10.947  11.757   9.892 -0.0011 -0.0918  0.0220
  510loPI    C2 8146  10.722  11.912  10.184 -0.0119 -0.1087  0.0228
  510loPI    C3 8147  10.804  11.521  10.182 -0.1199 -0.1313 -0.0677
  510loPI   PO4 8148  10.844  11.791   9.697 -0.2690  0.2161 -0.2651
  510loPI   GL1 8149  10.834  11.526   9.356  0.1109  0.0465  0.0567
  510loPI   GL2 8150  10.709  11.831   9.172  0.0902 -0.1211  0.2293
  510loPI   C1A 8151  11.175  11.731   9.064  0.0308 -0.1906  0.1558
  510loPI   C2A 8152  11.464  11.870   8.794  0.1620  0.2453 -0.0440
  510loPI   C3A 8153  11.594  11.834   8.411  0.0694  0.3063 -0.2113
  510loPI   C4A 8154  11.378  11.912   8.003 -0.0723 -0.3211  0.3479
  510loPI   C5A 8155  11.307  12.235   7.662  0.0167  0.1834 -0.1940
  510loPI   C6A 8156  10.999  12.421   7.335 -0.0164 -0.1992  0.2566
  510loPI   C1B 8157  10.254  11.765   9.167 -0.2566  0.1904 -0.1113
  510loPI   C2B 8158   9.997  11.760   8.763  0.0903 -0.0864  0.1538
  510loPI   C3B 8159  10.003  11.710   8.400  0.0696 -0.1196 -0.1154
  510loPI   C4B 8160  10.303  11.509   8.045 -0.1192  0.2526  0.0487
  511loPI    C1 8161   3.155   4.349  10.136  0.0585 -0.0686  0.0784
  511loPI    C2 8162   3.288   4.689  10.299  0.0221  0.0227 -0.0804
  511loPI    C3 8163   3.172   4.387  10.534  0.0341  0.1276  0.0619
  511loPI   PO4 8164   3.226   4.408   9.857 -0.3927 -0.1322  0.1954
  511loPI   GL1 8165   2.966   4.337   9.458  0.0870 -0.2123 -0.0295
  511loPI   GL2 8166   2.804   3.965   9.334 -0.1179 -0.0172  0.0329
  511loPI   C1A 8167   2.722   4.593   9.132 -0.0090 -0.2211 -0.1192
  511loPI   C2A 8168   2.475   4.715   8.793  0.1026 -0.2028  0.3394
  511loPI   C3A 8169   2.382   4.693   8.418 -0.1598  0.0773 -0.2848
  511loPI   C4A 8170   2.239   4.843   8.083 -0.3023  0.0006  0.0775
  511loPI   C5A 8171   1.952   4.755   7.645 -0.0687  0.0419 -0.3419
  511loPI   C6A 8172   1.564   4.645   7.350 -0.2023  0.0049  0.1117
  511loPI   C1B 8173   2.924   4.150   8.929 -0.1171 -0.4176 -0.0847
  511loPI   C2B 8174   2.849   4.443   8.639  0.1778  0.0295  0.0420
  511loPI   C3B 8175   2.604   4.278   8.188  0.3626 -0.1120 -0.2599
  511loPI   C4B 8176   2.468   4.317   7.830  0.0963  0.1347  0.0241
  512loPI    C1 8177  12.870  13.967  10.026 -0.0893  0.1673  0.0747
  512loPI    C2 8178  12.591  13.965  10.313 -0.0797 -0.0982  0.0853
  512loPI    C3 8179  12.768  13.623  10.204  0.1486  0.0489 -0.0131
  512loPI   PO4 8180  12.729  14.130   9.867 -0.0774 -0.1439  0.2534
  512loPI   GL1 8181  12.579  14.088   9.452  0.4578  0.1163 -0.4253
  512loPI   GL2 8182  12.704  14.443   9.402  0.5932  0.0840 -0.3270
  512loPI   C1A 8183  12.364  14.233   9.052  0.0852  0.0580  0.0538
  512loPI   C2A 8184  12.443  14.213   8.601 -0.1192  0.0872  0.0306
  512loPI   C3A 8185  12.634  14.326   8.242  0.0743  0.1431 -0.5478
  512loPI   C4A 8186  12.537  14.417   7.799  0.0901  0.0007 -0.1359
  512loPI   C5A 8187  12.392  14.697   7.445  0.0045  0.1956  0.3215
  512loPI   C6A 8188  12.318  15.146   7.496 -0.1902 -0.0151  0.2023
  512loPI   C1B 8189  12.816  14.425   8.985 -0.1923 -0.0772 -0.0355
  512loPI   C2B 8190  12.992  14.262   8.618 -0.0090 -0.2177 -0.1082
  512loPI   C3B 8191  13.068  14.172   8.227 -0.3217 -0.2575 -0.2010
  512loPI   C4B 8192  13.151  14.315   7.763  0.3442  0.0290 -0.2390
  513loPI    C1 8193   9.397   4.195   9.954 -0.0916 -0.0816  0.0429
  513loPI    C2 8194   9.052   4.028   9.841 -0.1477  0.1314 -0.1082
  513loPI    C3 8195   9.056   4.402   9.982 -0.0126  0.0360  0.1466
  513loPI   PO4 8196   9.581   4.213   9.703  0.1763  0.1316 -0.0833
  513loPI   GL1 8197   9.372   4.521   9.491  0.0385 -0.1562  0.1847
  513loPI   GL2 8198   9.069   4.403   9.483  0.2687 -0.1476 -0.0467
  513loPI   C1A 8199   9.266   4.691   9.053 -0.2864 -0.1634  0.0761
  513loPI   C2A 8200   9.221   4.627   8.615 -0.2678 -0.2900 -0.1965
  513loPI   C3A 8201   9.229   4.636   8.190  0.1210  0.0653 -0.2956
  513loPI   C4A 8202   9.237   4.670   7.722  0.2156 -0.0564 -0.1009
  513loPI   C5A 8203   9.208   4.861   7.272  0.1306 -0.0754  0.0574
  513loPI   C6A 8204   9.229   4.879   6.794  0.0410 -0.1175 -0.0684
  513loPI   C1B 8205   9.244   4.166   9.168  0.0926 -0.1326 -0.1422
  513loPI   C2B 8206   9.220   4.114   8.748 -0.0020  0.1019  0.1605
  513loPI   C3B 8207   9.285   4.122   8.345 -0.0087 -0.2513 -0.3332
  513loPI   C4B 8208   9.184   4.116   7.965  0.0128 -0.1929 -0.3619
  514loPI    C1 8209   6.901  12.732   9.843 -0.1724 -0.2426 -0.0727
  514loPI    C2 8210   6.680  12.871  10.147 -0.0904  0.2374 -0.2240
  514loPI    C3 8211   7.027  12.686  10.220 -0.1983  0.1142 -0.0163
  514loPI   PO4 8212   6.942  12.867   9.717  0.1051  0.3638  0.1242
  514loPI   GL1 8213   7.353  12.910   9.470 -0.4221 -0.3408  0.0572
  514loPI   GL2 8214   7.637  12.771   9.201 -0.1922  0.0572 -0.0550
  514loPI   C1A 8215   7.210  12.802   8.979  0.0659 -0.3636  0.1398
  514loPI   C2A 8216   7.215  12.806   8.538  0.0603 -0.0092  0.1555
  514loPI   C3A 8217   7.106  12.956   8.237  0.2434  0.1734  0.1935
  514loPI   C4A 8218   7.146  13.218   7.885  0.0186  0.2409  0.1054
  514loPI   C5A 8219   6.831  13.436   7.808 -0.6846 -0.0914 -0.0715
  514loPI   C6A 8220   6.429  13.230   7.915 -0.1314 -0.1773 -0.1704
  514loPI   C1B 8221   7.604  13.085   8.931 -0.1247 -0.2153  0.0509
  514loPI   C2B 8222   7.609  13.137   8.530  0.1739 -0.3344 -0.1506
  514loPI   C3B 8223   7.587  13.101   8.111 -0.1218  0.1086  0.1673
  514loPI   C4B 8224   7.625  13.311   7.773  0.2098  0.1685 -0.1613
  515loPI    C1 8225  10.339   9.860   9.717 -0.0408  0.0171  0.1012
  515loPI    C2 8226  10.528   9.580   9.930  0.2076  0.1713  0.0869
  515loPI    C3 8227  10.234   9.793  10.097  0.1967  0.0834  0.1805
  515loPI   PO4 8228  10.600   9.937   9.598  0.0007  0.3579 -0.3836
  515loPI   GL1 8229  10.674   9.944   9.192 -0.1934 -0.0017 -0.1516
  515loPI   GL2 8230  10.592  10.181   9.112 -0.2505  0.0378 -0.1176
  515loPI   C1A 8231  10.504   9.686   8.803  0.1571 -0.2132  0.0652
  515loPI   C2A 8232  10.470   9.628   8.395 -0.1348  0.1120  0.2222
  515loPI   C3A 8233  10.412   9.577   7.913  0.1493  0.0002  0.3063
  515loPI   C4A 8234  10.351   9.710   7.549  0.2811  0.3670  0.1622
  515loPI   C5A 8235  10.260   9.679   7.165  0.1977  0.0408  0.0091
  515loPI   C6A 8236  10.573   9.674   6.929  0.0681  0.1033  0.0406
  515loPI   C1B 8237  10.724  10.434   8.757 -0.0580 -0.1579 -0.1616
  515loPI   C2B 8238  10.738  10.559   8.357 -0.1299  0.3554  0.3146
  515loPI   C3B 8239  10.873  10.608   7.954  0.1255  0.2832  0.0670
  515loPI   C4B 8240  10.897  10.542   7.391  0.2551  0.2722 -0.1200
  516loPI    C1 8241   5.612   1.474   9.609  0.0278  0.2322 -0.1360
  516loPI    C2 8242   5.720   1.784   9.380  0.3373  0.1289 -0.1354
  516loPI    C3 8243   5.828   1.773   9.765  0.1036  0.1423 -0.0673
  516loPI   PO4 8244   5.529   1.272   9.475  0.0743  0.0765 -0.0507
  516loPI   GL1 8245   5.614   1.083   9.040 -0.2048 -0.0266  0.1874
  516loPI   GL2 8246   5.788   1.368   9.050 -0.0413 -0.1896 -0.0573
  516loPI   C1A 8247   5.451   1.022   8.646 -0.0038  0.0864 -0.3086
  516loPI   C2A 8248   5.356   1.147   8.199  0.1205 -0.0827 -0.0120
  516loPI   C3A 8249   5.269   0.909   7.881  0.3336  0.0044 -0.0591
  516loPI   C4A 8250   5.225   0.607   7.677  0.2764  0.1193  0.1700
  516loPI   C5A 8251   5.439   0.264   7.455  0.0621  0.0659  0.1107
  516loPI   C6A 8252   5.637  -0.052   7.232  0.0226  0.1235  0.4820
  516loPI   C1B 8253   5.539   1.600   8.790  0.0323  0.2641  0.0924
  516loPI   C2B 8254   5.349   1.621   8.423 -0.1025 -0.3223 -0.0126
  516loPI   C3B 8255   5.350   1.620   8.033 -0.2504  0.3401 -0.4039
  516loPI   C4B 8256   5.262   1.848   7.632  0.1297  0.0730 -0.2824
  517loPI    C1 8257  17.938   3.968   9.695 -0.0484  0.0589  0.2095
  517loPI    C2 8258  18.139   3.708   9.923  0.0912  0.1892  0.2369
  517loPI    C3 8259  17.936   4.008  10.093 -0.0288  0.1279  0.2029
  517loPI   PO4 8260  17.758   3.874   9.585  0.1500 -0.0352  0.0428
  517loPI   GL1 8261  17.782   3.915   9.153 -0.3403 -0.1680  0.1769
  517loPI   GL2 8262  17.393   4.079   9.228  0.0185  0.0492 -0.0730
  517loPI   C1A 8263  17.956   3.851   8.728  0.0732  0.1013  0.1302
  517loPI   C2A 8264  17.976   3.646   8.366 -0.2795 -0.1937  0.0277
  517loPI   C3A 8265  18.072   3.857   8.034 -0.0368 -0.0355 -0.2247
  517loPI   C4A 8266  18.078   4.085   7.580  0.0817  0.0122  0.1521
  517loPI   C5A 8267  17.992   4.123   7.142  0.0159 -0.3524 -0.3578
  517loPI   C6A 8268  17.931   3.908   6.788  0.2952 -0.3732 -0.1425
  517loPI   C1B 8269  17.574   4.340   8.923 -0.3904 -0.0743  0.0742
  517loPI   C2B 8270  17.541   4.341   8.582  0.1086 -0.2828 -0.0841
  517loPI   C3B 8271  17.668   4.090   8.365 -0.2379  0.1252 -0.0210
  517loPI   C4B 8272  17.667   4.134   7.937  0.2471 -0.3467  0.1418
  518loPI    C1 8273  18.582   3.793   9.845  0.2018  0.0851 -0.0581
  518loPI    C2 8274  18.456   4.011  10.156  0.1553  0.2077 -0.1618
  518loPI    C3 8275  18.576   3.633  10.212  0.1304  0.2231  0.0016
  518loPI   PO4 8276  18.529   3.847   9.589  0.0483  0.0255 -0.2768
  518loPI   GL1 8277  18.327   4.074   9.351 -0.4297  0.0324  0.0106
  518loPI   GL2 8278  18.475   3.867   9.118  0.0721 -0.1758 -0.0202
  518loPI   C1A 8279  18.124   4.266   9.034 -0.0001 -0.1816  0.1565
  518loPI   C2A 8280  18.080   4.354   8.675  0.0186 -0.0566  0.1934
  518loPI   C3A 8281  18.056   4.480   8.174  0.0716  0.4110  0.1788
  518loPI   C4A 8282  18.109   4.564   7.731 -0.1649  0.0447  0.3057
  518loPI   C5A 8283  17.928   4.627   7.248 -0.1714 -0.2321 -0.0329
  518loPI   C6A 8284  17.867   4.741   6.764  0.3688 -0.4313 -0.2346
  518loPI   C1B 8285  18.513   3.734   8.731 -0.1654 -0.1294 -0.0956
  518loPI   C2B 8286  18.496   3.684   8.265  0.1765 -0.1970  0.2337
  518loPI   C3B 8287  18.373   3.554   7.807 -0.1649  0.0114 -0.3469
  518loPI   C4B 8288  18.473   3.378   7.426  0.2341 -0.1645  0.1778
  519loPI    C1 8289  10.862  13.754   9.965 -0.1482 -0.0098 -0.3606
  519loPI    C2 8290  10.513  13.658  10.135 -0.1726  0.3773 -0.1807
  519loPI    C3 8291  10.855  13.522  10.291 -0.2244  0.2853 -0.1467
  519loPI   PO4 8292  10.809  14.018   9.892  0.2311 -0.3421 -0.1981
  519loPI   GL1 8293  10.931  14.122   9.488  0.1507 -0.4029 -0.0674
  519loPI   GL2 8294  10.612  14.278   9.357  0.0755 -0.2379  0.2500
  519loPI   C1A 8295  11.016  14.260   9.035  0.0258  0.0869 -0.0849
  519loPI   C2A 8296  11.025  14.625   8.691  0.1226 -0.1306 -0.0682
  519loPI   C3A 8297  10.946  14.843   8.329  0.1240  0.1154 -0.1809
  519loPI   C4A 8298  10.842  15.009   7.957  0.0078  0.1269  0.1820
  519loPI   C5A 8299  10.683  14.917   7.608 -0.0459 -0.0674  0.1267
  519loPI   C6A 8300  10.250  14.843   7.607  0.2425  0.1436 -0.2753
  519loPI   C1B 8301  10.570  14.125   8.971 -0.0941  0.0510 -0.0748
  519loPI   C2B 8302  10.729  14.262   8.566  0.1344  0.3165 -0.0375
  519loPI   C3B 8303  10.638  14.497   8.281  0.1981  0.2889  0.4740
  519loPI   C4B 8304  10.231  14.777   8.273  0.0575  0.0363 -0.1697
  520loPI    C1 8305  17.291  13.794   9.934 -0.4014 -0.0029 -0.0467
  520loPI    C2 8306  17.464  14.154   9.905  0.0657 -0.2233 -0.0897
  520loPI    C3 8307  17.506  13.938  10.239 -0.2672 -0.2149 -0.0389
  520loPI   PO4 8308  17.272  13.763   9.710 -0.2021  0.2562  0.2140
  520loPI   GL1 8309  16.906  13.696   9.375  0.2606 -0.3037 -0.4326
  520loPI   GL2 8310  17.066  13.525   9.344  0.0376 -0.1556 -0.1209
  520loPI   C1A 8311  17.033  13.767   8.909  0.1418  0.2358 -0.1765
  520loPI   C2A 8312  16.952  13.665   8.548 -0.2487 -0.1307 -0.0124
  520loPI   C3A 8313  16.588  13.790   8.079  0.0407  0.3149 -0.0604
  520loPI   C4A 8314  16.144  14.015   7.949 -0.1469 -0.0297 -0.0897
  520loPI   C5A 8315  15.994  14.018   7.483 -0.1178  0.0585  0.0103
  520loPI   C6A 8316  15.577  13.984   7.303  0.1706 -0.1745  0.1229
  520loPI   C1B 8317  17.055  13.306   8.942 -0.1215  0.1657 -0.2978
  520loPI   C2B 8318  17.233  13.261   8.482 -0.0153 -0.0064 -0.1340
  520loPI   C3B 8319  17.108  12.979   8.284  0.0775  0.1474  0.1550
  520loPI   C4B 8320  16.981  12.520   8.274  0.1870 -0.1116 -0.2020
  521loPI    C1 8321   3.635  18.383   9.960 -0.1127  0.0677 -0.1389
  521loPI    C2 8322   3.505  18.625  10.251 -0.2096  0.0543 -0.1706
  521loPI    C3 8323   3.390  18.687   9.873 -0.3039 -0.0928 -0.1666
  521loPI   PO4 8324   3.922  18.324   9.924 -0.0119  0.2152 -0.0391
  521loPI   GL1 8325   4.211  18.307   9.606 -0.0090 -0.0453  0.0845
  521loPI   GL2 8326   4.163  17.995   9.592  0.0144 -0.2032  0.0891
  521loPI   C1A 8327   4.049  18.438   9.177 -0.1663  0.2385  0.0400
  521loPI   C2A 8328   3.866  18.433   8.811 -0.1076  0.0740  0.0650
  521loPI   C3A 8329   3.630  18.662   8.445 -0.2472  0.0099 -0.2863
  521loPI   C4A 8330   3.789  18.940   8.198 -0.2950  0.1347 -0.1375
  521loPI   C5A 8331   4.134  18.864   7.872  0.1526  0.1141 -0.1131
  521loPI   C6A 8332   4.430  18.963   7.494 -0.0651 -0.0870 -0.1320
  521loPI   C1B 8333   4.064  17.916   9.125 -0.1375 -0.0660 -0.1027
  521loPI   C2B 8334   4.076  18.000   8.709 -0.0045  0.0620 -0.0203
  521loPI   C3B 8335   4.503  18.132   8.432 -0.0497  0.2592  0.0848
  521loPI   C4B 8336   4.818  18.265   8.132  0.0308 -0.1587  0.1304
  522loPI    C1 8337   4.912  12.078   9.791 -0.0570  0.0380  0.1820
  522loPI    C2 8338   4.960  11.753  10.020 -0.2608  0.0168  0.1963
  522loPI    C3 8339   4.741  12.061  10.152 -0.2330  0.0777  0.1015
  522loPI   PO4 8340   5.094  11.982   9.574  0.4015  0.3939 -0.0134
  522loPI   GL1 8341   5.212  12.108   9.196 -0.1263 -0.2361  0.2007
  522loPI   GL2 8342   4.812  12.269   9.300  0.2649 -0.3891  0.0497
  522loPI   C1A 8343   5.315  12.097   8.743  0.1585 -0.2787  0.2148
  522loPI   C2A 8344   5.253  12.213   8.371  0.2749 -0.0950 -0.0393
  522loPI   C3A 8345   5.286  11.990   7.928  0.0581  0.1497 -0.3315
  522loPI   C4A 8346   5.191  11.754   7.665  0.0931  0.2383  0.0421
  522loPI   C5A 8347   5.304  11.343   7.493  0.0282 -0.2502  0.0809
  522loPI   C6A 8348   5.573  11.108   7.249 -0.2054 -0.2066  0.3441
  522loPI   C1B 8349   4.621  12.388   8.986  0.0147  0.1007 -0.0627
  522loPI   C2B 8350   4.298  12.449   8.592  0.0000 -0.1389 -0.2720
  522loPI   C3B 8351   4.286  12.359   8.163  0.1337  0.0442 -0.1059
  522loPI   C4B 8352   3.964  12.071   8.055 -0.0365  0.3443  0.2216
  523loPI    C1 8353   0.105  15.048  10.524 -0.1127  0.0510  0.0771
  523loPI    C2 8354   0.239  15.402  10.652  0.0732  0.0062  0.0104
  523loPI    C3 8355  -0.101  15.252  10.800 -0.0295  0.2311  0.0078
  523loPI   PO4 8356   0.122  15.047  10.266 -0.0415 -0.0529 -0.1019
  523loPI   GL1 8357  -0.056  15.037   9.943  0.1206  0.2515 -0.0449
  523loPI   GL2 8358   0.089  14.837   9.789  0.1976 -0.1727  0.0353
  523loPI   C1A 8359   0.073  15.195   9.435 -0.1803  0.0662 -0.0040
  523loPI   C2A 8360   0.190  15.416   9.005  0.0242 -0.0079  0.2572
  523loPI   C3A 8361   0.358  15.466   8.598 -0.1346 -0.0521 -0.2307
  523loPI   C4A 8362   0.774  15.432   8.310  0.3138  0.3104  0.0635
  523loPI   C5A 8363   0.790  15.289   7.892 -0.4101  0.3302 -0.1309
  523loPI   C6A 8364   0.756  15.216   7.451 -0.2262 -0.0645  0.3906
  523loPI   C1B 8365  -0.108  14.685   9.462  0.0429 -0.0112  0.0090
  523loPI   C2B 8366  -0.373  14.915   9.113  0.2329 -0.0056 -0.1982
  523loPI   C3B 8367  -0.296  15.326   8.886  0.1323 -0.1755  0.3635
  523loPI   C4B 8368  -0.140  15.546   8.513  0.0446  0.4207  0.0580
  524loPI    C1 8369   8.468   2.099  10.021  0.0663  0.1759 -0.0028
  524loPI    C2 8370   8.653   2.222  10.354  0.0169  0.1522  0.0335
  524loPI    C3 8371   8.513   1.848  10.329 -0.1868  0.2240  0.0761
  524loPI   PO4 8372   8.556   2.222   9.879 -0.0764  0.0127  0.1038
  524loPI   GL1 8373   8.339   2.178   9.422  0.2383  0.0808  0.2426
  524loPI   GL2 8374   8.365   2.458   9.363 -0.2241 -0.0440  0.0836
  524loPI   C1A 8375   8.296   2.112   9.048 -0.1159 -0.1605  0.0124
  524loPI   C2A 8376   8.305   1.942   8.681  0.0522  0.1272  0.1933
  524loPI   C3A 8377   8.084   1.953   8.229 -0.3041  0.1828  0.1339
  524loPI   C4A 8378   7.939   1.772   7.831  0.0933  0.0531  0.0513
  524loPI   C5A 8379   7.678   1.716   7.535  0.3987 -0.0598 -0.0393
  524loPI   C6A 8380   7.405   1.718   7.270  0.1028 -0.0121 -0.1795
  524loPI   C1B 8381   8.265   2.633   8.892  0.0163 -0.2458 -0.3736
  524loPI   C2B 8382   8.210   2.445   8.534 -0.2463 -0.0103 -0.3999
  524loPI   C3B 8383   8.182   2.489   8.116 -0.1996 -0.0715  0.2230
  524loPI   C4B 8384   8.306   2.403   7.682 -0.1343  0.0821 -0.0160
  525loPI    C1 8385   1.682  10.598  10.488  0.0287  0.3156 -0.1523
  525loPI    C2 8386   1.306  10.471  10.442  0.1496 -0.1909  0.1818
  525loPI    C3 8387   1.426  10.619  10.794  0.2727 -0.0625  0.0869
  525loPI   PO4 8388   1.724  10.781  10.225 -0.0555  0.0362  0.0118
  525loPI   GL1 8389   1.561  11.143   9.932  0.2632 -0.2130 -0.0030
  525loPI   GL2 8390   1.809  10.982   9.744  0.1488 -0.1443 -0.3324
  525loPI   C1A 8391   1.346  11.041   9.641  0.1485  0.0306 -0.0110
  525loPI   C2A 8392   1.187  11.152   9.163  0.0776 -0.2081 -0.0267
  525loPI   C3A 8393   1.071  11.102   8.770 -0.2154  0.2414  0.1509
  525loPI   C4A 8394   1.122  10.961   8.332  0.1226  0.0010  0.2742
  525loPI   C5A 8395   0.799  10.717   7.982  0.2508 -0.0491  0.1151
  525loPI   C6A 8396   0.359  10.577   7.864  0.0273  0.0443  0.1201
  525loPI   C1B 8397   1.704  10.845   9.376  0.0794 -0.1043 -0.1168
  525loPI   C2B 8398   1.496  10.785   8.961  0.1727 -0.2188  0.0235
  525loPI   C3B 8399   1.678  10.899   8.552 -0.1618 -0.2304 -0.1583
  525loPI   C4B 8400   1.691  11.015   8.137 -0.0460  0.1266  0.1666
  526loPI    C1 8401   0.377   2.943   9.737 -0.0028 -0.0638 -0.1135
  526loPI    C2 8402   0.408   2.976  10.134 -0.2397  0.1404 -0.1093
  526loPI    C3 8403   0.540   2.646   9.950 -0.3084 -0.0408  0.1603
  526loPI   PO4 8404   0.111   3.038   9.659  0.1429  0.2060 -0.2883
  526loPI   GL1 8405  -0.136   3.066   9.318  0.0613 -0.2100  0.0986
  526loPI   GL2 8406  -0.091   2.729   9.255  0.2103  0.0037 -0.0537
  526loPI   C1A 8407  -0.042   3.092   8.974 -0.0182 -0.1711  0.3068
  526loPI   C2A 8408   0.104   3.159   8.484  0.0965  0.1222 -0.1050
  526loPI   C3A 8409   0.210   3.389   8.224 -0.0480  0.2211 -0.0128
  526loPI   C4A 8410   0.213   3.560   7.804  0.4070  0.1804 -0.0638
  526loPI   C5A 8411   0.046   3.443   7.426  0.5822 -0.2485 -0.0913
  526loPI   C6A 8412  -0.309   3.547   7.217  0.0408 -0.0642  0.1481
  526loPI   C1B 8413  -0.275   2.658   8.851 -0.2703  0.1702 -0.2846
  526loPI   C2B 8414  -0.392   2.870   8.484 -0.0460 -0.1318  0.4455
  526loPI   C3B 8415  -0.434   2.801   8.099  0.1985  0.1666 -0.1363
  526loPI   C4B 8416  -0.185   2.535   7.843  0.0403 -0.1161  0.0427
  527loPI    C1 8417   8.806  17.759  10.114  0.0468 -0.1420  0.0640
  527loPI    C2 8418   8.554  18.017  10.287  0.0263 -0.0480 -0.1037
  527loPI    C3 8419   8.820  17.818  10.510 -0.2275 -0.1858  0.0826
  527loPI   PO4 8420   8.608  17.641   9.926  0.2601 -0.0110 -0.0653
  527loPI   GL1 8421   8.264  17.764   9.570  0.5153 -0.2901  0.4678
  527loPI   GL2 8422   8.442  17.534   9.471  0.1676 -0.1573  0.2535
  527loPI   C1A 8423   8.322  17.914   9.154  0.0111 -0.1685 -0.1206
  527loPI   C2A 8424   8.546  18.088   8.930  0.0323 -0.2436 -0.2216
  527loPI   C3A 8425   8.588  18.289   8.595 -0.4624  0.2062 -0.0749
  527loPI   C4A 8426   8.773  18.218   8.218  0.0207  0.1574  0.1573
  527loPI   C5A 8427   8.978  18.194   7.829 -0.0787  0.0819 -0.0521
  527loPI   C6A 8428   8.903  18.050   7.458 -0.0447 -0.2530  0.0165
  527loPI   C1B 8429   8.783  17.263   9.287 -0.3295 -0.1492 -0.2662
  527loPI   C2B 8430   8.849  17.158   8.840  0.1847 -0.1191  0.0034
  527loPI   C3B 8431   8.920  17.260   8.377 -0.4129 -0.1797 -0.0185
  527loPI   C4B 8432   9.100  17.279   7.995  0.0013  0.0902 -0.1549
  528loPI    C1 8433   9.760  10.987   9.755 -0.3326  0.2503  0.2808
  528loPI    C2 8434  10.154  11.053   9.758 -0.2832 -0.0012 -0.0960
  528loPI    C3 8435   9.952  11.039  10.102  0.0454  0.0707  0.1045
  528loPI   PO4 8436   9.685  11.081   9.471  0.2509  0.1796 -0.0360
  528loPI   GL1 8437   9.592  10.782   9.081  0.0384 -0.2900 -0.1101
  528loPI   GL2 8438   9.459  10.990   8.837 -0.2156  0.1658 -0.0424
  528loPI   C1A 8439   9.797  10.514   8.821 -0.2218  0.1493  0.0780
  528loPI   C2A 8440   9.702  10.276   8.423 -0.4629  0.0565  0.2947
  528loPI   C3A 8441   9.653  10.149   8.001 -0.2496  0.1226  0.2537
  528loPI   C4A 8442   9.527  10.068   7.659 -0.2856 -0.4168  0.1534
  528loPI   C5A 8443   9.446   9.694   7.331  0.2216  0.1228  0.1917
  528loPI   C6A 8444   9.402   9.393   6.942 -0.1689 -0.1403  0.2458
  528loPI   C1B 8445   9.771  10.868   8.500  0.3852  0.1190 -0.2448
  528loPI   C2B 8446   9.769  10.731   8.161  0.1231  0.2529  0.0473
  528loPI   C3B 8447   9.832  10.616   7.722 -0.1971  0.1009  0.1480
  528loPI   C4B 8448   9.951  10.621   7.277  0.1850  0.3729  0.1673
  529loPI    C1 8449   4.837  10.065  10.086  0.0641 -0.2310 -0.1336
  529loPI    C2 8450   4.510   9.844  10.149 -0.0902 -0.0339 -0.2305
  529loPI    C3 8451   4.617  10.123  10.415  0.1515 -0.2780 -0.0663
  529loPI   PO4 8452   4.692  10.201   9.768 -0.1985  0.1469 -0.3288
  529loPI   GL1 8453   4.510  10.137   9.365  0.1307  0.1770 -0.1009
  529loPI   GL2 8454   4.855  10.065   9.298 -0.1993 -0.0700  0.0609
  529loPI   C1A 8455   4.530  10.179   8.858  0.0696 -0.0871 -0.0862
  529loPI   C2A 8456   4.341  10.385   8.614  0.0455  0.0281  0.2444
  529loPI   C3A 8457   4.263  10.270   8.157  0.0060  0.0820  0.3109
  529loPI   C4A 8458   4.299   9.839   7.817  0.0881 -0.1350  0.1794
  529loPI   C5A 8459   3.963   9.963   7.509  0.1583 -0.1333 -0.1067
  529loPI   C6A 8460   3.784   9.865   7.145  0.1159 -0.2734 -0.4317
  529loPI   C1B 8461   4.878   9.814   8.908  0.1873  0.0214  0.0247
  529loPI   C2B 8462   4.876   9.680   8.432  0.1075  0.2716 -0.1308
  529loPI   C3B 8463   4.831   9.730   7.966  0.3959 -0.1850  0.1740
  529loPI   C4B 8464   5.002   9.716   7.534 -0.1126 -0.1945  0.1765
  530loPI    C1 8465  18.328   1.524  10.047  0.2001 -0.2657 -0.0382
  530loPI    C2 8466  18.590   1.356  10.298  0.1852 -0.0860  0.0988
  530loPI    C3 8467  18.384   1.680  10.411 -0.1166 -0.2404  0.0026
  530loPI   PO4 8468  18.419   1.450   9.734 -0.0829 -0.1380 -0.1707
  530loPI   GL1 8469  18.258   1.533   9.358 -0.0248  0.0194  0.1390
  530loPI   GL2 8470  18.557   1.724   9.247 -0.2173 -0.0388 -0.0481
  530loPI   C1A 8471  18.429   1.336   9.047 -0.0448  0.2291  0.0069
  530loPI   C2A 8472  18.603   1.271   8.658 -0.0038  0.3343 -0.1356
  530loPI   C3A 8473  18.806   1.085   8.203 -0.0652  0.2334  0.0314
  530loPI   C4A 8474  18.576   0.783   7.861 -0.1372  0.2321 -0.2543
  530loPI   C5A 8475  18.235   0.884   7.681  0.2121  0.0357  0.0470
  530loPI   C6A 8476  18.189   0.984   7.245 -0.1399 -0.3273 -0.1801
  530loPI   C1B 8477  18.630   1.746   8.849  0.1478  0.2980  0.1605
  530loPI   C2B 8478  18.770   1.672   8.448  0.0618 -0.2006 -0.1646
  530loPI   C3B 8479  18.771   1.552   7.987  0.1082  0.0105 -0.1241
  530loPI   C4B 8480  18.528   1.387   7.560  0.3747  0.3396 -0.1722
  531loPI    C1 8481   8.773  10.709   9.417  0.0843 -0.2934 -0.0318
  531loPI    C2 8482   8.479  10.593   9.172 -0.0835 -0.0675  0.0587
  531loPI    C3 8483   8.418  10.892   9.431  0.2644  0.0644 -0.0051
  531loPI   PO4 8484   8.990  10.689   9.282 -0.0017 -0.1977 -0.0987
  531loPI   GL1 8485   9.036  10.576   8.846  0.1362  0.1865  0.0658
  531loPI   GL2 8486   9.232  10.362   8.924 -0.2578 -0.5064 -0.0033
  531loPI   C1A 8487   9.000  10.973   8.619  0.2963  0.1821  0.2309
  531loPI   C2A 8488   8.856  11.393   8.376 -0.2350  0.0978 -0.2961
  531loPI   C3A 8489   8.766  11.361   7.968 -0.0798 -0.1676 -0.0686
  531loPI   C4A 8490   8.560  11.461   7.569 -0.0100 -0.4769  0.1764
  531loPI   C5A 8491   8.563  11.762   7.285  0.0290  0.0292 -0.2316
  531loPI   C6A 8492   8.732  12.296   7.241 -0.2091 -0.2221  0.0089
  531loPI   C1B 8493   9.352   9.994   8.709 -0.0234 -0.1303  0.1631
  531loPI   C2B 8494   9.643   9.735   8.449  0.0045  0.2848  0.0454
  531loPI   C3B 8495   9.838   9.677   7.988  0.1222 -0.0017 -0.0369
  531loPI   C4B 8496   9.852   9.615   7.613 -0.1873 -0.2680 -0.0404
  532loPI    C1 8497  18.105  12.253  10.125  0.0334 -0.0176  0.3415
  532loPI    C2 8498  18.213  12.153   9.753 -0.3264  0.0602  0.2124
  532loPI    C3 8499  18.492  12.209  10.034 -0.0696 -0.3880  0.0567
  532loPI   PO4 8500  17.927  12.444  10.042 -0.2117 -0.1562  0.3179
  532loPI   GL1 8501  17.752  12.383   9.579  0.0672  0.2380  0.1822
  532loPI   GL2 8502  17.759  12.350   9.268 -0.1680 -0.1997  0.0431
  532loPI   C1A 8503  17.943  11.925   9.286 -0.1418  0.0998 -0.0125
  532loPI   C2A 8504  17.877  11.983   8.901  0.3490 -0.1453  0.2012
  532loPI   C3A 8505  17.749  12.213   8.508 -0.0022 -0.1755 -0.2575
  532loPI   C4A 8506  17.440  12.271   8.233 -0.1373  0.1077  0.0698
  532loPI   C5A 8507  17.239  12.197   7.822  0.0001 -0.0768  0.2956
  532loPI   C6A 8508  16.915  12.101   7.500  0.2210  0.0448 -0.0768
  532loPI   C1B 8509  17.866  12.591   8.955 -0.0404 -0.0039 -0.1272
  532loPI   C2B 8510  18.038  12.834   8.618 -0.1728 -0.2962  0.2507
  532loPI   C3B 8511  18.181  13.132   8.231  0.0186  0.0974 -0.0555
  532loPI   C4B 8512  18.231  13.358   7.900  0.1166 -0.0573 -0.1719
  533loPI    C1 8513  13.135   9.556  10.046 -0.0065 -0.0122  0.0493
  533loPI    C2 8514  12.774   9.384  10.050 -0.0383  0.0536  0.0213
  533loPI    C3 8515  13.095   9.179  10.172 -0.0468 -0.0913 -0.1953
  533loPI   PO4 8516  13.112   9.639   9.700  0.1946 -0.3761 -0.0851
  533loPI   GL1 8517  13.208   9.968   9.438  0.0114 -0.2639  0.1594
  533loPI   GL2 8518  12.876   9.865   9.225 -0.0685 -0.4084 -0.2125
  533loPI   C1A 8519  13.340   9.793   9.032 -0.2288 -0.0363  0.1013
  533loPI   C2A 8520  13.456   9.710   8.693 -0.0456  0.1814  0.2001
  533loPI   C3A 8521  13.742   9.618   8.352  0.1907 -0.1792 -0.0288
  533loPI   C4A 8522  13.797   9.842   8.021 -0.1370  0.2989  0.2527
  533loPI   C5A 8523  13.760  10.053   7.686  0.2272  0.0931  0.0531
  533loPI   C6A 8524  13.723  10.318   7.320  0.0994 -0.0192 -0.0749
  533loPI   C1B 8525  12.999  10.088   8.887  0.2898 -0.0464 -0.1162
  533loPI   C2B 8526  12.806  10.111   8.516  0.0150 -0.1044  0.3004
  533loPI   C3B 8527  12.882  10.071   8.101  0.2654  0.3553 -0.1880
  533loPI   C4B 8528  13.255   9.960   7.778  0.0204 -0.1044 -0.1856
  534loPI    C1 8529   8.737  17.251  10.295 -0.0427 -0.1566 -0.1793
  534loPI    C2 8530   8.416  17.471  10.384  0.1340  0.0191  0.0368
  534loPI    C3 8531   8.665  17.355  10.674  0.3953  0.0876 -0.1567
  534loPI   PO4 8532   8.620  17.018  10.124  0.2926  0.0348  0.1192
  534loPI   GL1 8533   8.517  16.921   9.784  0.1237  0.2386 -0.3094
  534loPI   GL2 8534   8.243  17.061   9.526  0.0662  0.2075  0.0421
  534loPI   C1A 8535   8.781  16.794   9.471 -0.2070  0.0203 -0.1010
  534loPI   C2A 8536   9.126  16.912   9.169  0.0587  0.1788  0.2447
  534loPI   C3A 8537   9.262  16.896   8.663 -0.1164 -0.2039 -0.0299
  534loPI   C4A 8538   9.510  17.055   8.325  0.0260 -0.2263 -0.0354
  534loPI   C5A 8539   9.615  17.272   7.932  0.0412  0.0865 -0.0092
  534loPI   C6A 8540   9.874  17.229   7.601  0.0848 -0.0865  0.0033
  534loPI   C1B 8541   8.390  16.917   9.032 -0.0086 -0.2318 -0.0463
  534loPI   C2B 8542   8.331  16.790   8.595  0.1224 -0.0004  0.2193
  534loPI   C3B 8543   8.471  16.526   8.353 -0.1047  0.0063  0.1752
  534loPI   C4B 8544   8.389  16.438   7.855  0.2264  0.0306 -0.0634
  535loPI    C1 8545   6.316   8.589   9.740 -0.1492  0.3004 -0.1626
  535loPI    C2 8546   6.569   8.899   9.734  0.2940 -0.0389  0.1957
  535loPI    C3 8547   6.381   8.801  10.073 -0.0529 -0.0070  0.0180
  535loPI   PO4 8548   6.045   8.572   9.499 -0.0950  0.1207 -0.0934
  535loPI   GL1 8549   6.002   8.648   9.087  0.1149 -0.4191  0.1543
  535loPI   GL2 8550   6.231   8.410   8.915 -0.0779  0.0588 -0.0870
  535loPI   C1A 8551   5.730   8.736   8.818  0.1135 -0.1658 -0.0793
  535loPI   C2A 8552   5.256   9.023   8.850 -0.4271 -0.0090  0.0028
  535loPI   C3A 8553   5.073   9.046   8.451  0.0613  0.0300  0.0322
  535loPI   C4A 8554   5.211   9.162   8.085  0.0137 -0.2456 -0.2016
  535loPI   C5A 8555   5.354   9.486   7.824  0.0425  0.1365 -0.0242
  535loPI   C6A 8556   5.556   9.486   7.435 -0.1052  0.0803  0.1860
  535loPI   C1B 8557   6.011   8.287   8.518  0.0758  0.0317 -0.0131
  535loPI   C2B 8558   5.763   8.365   8.115  0.2003  0.1308 -0.0123
  535loPI   C3B 8559   5.428   8.174   7.863 -0.0043 -0.3397 -0.0607
  535loPI   C4B 8560   4.979   8.057   7.954 -0.1511  0.2299  0.2364
  536loPI    C1 8561   0.619   1.854   9.873  0.2012  0.0338 -0.0885
  536loPI    C2 8562   0.527   1.607  10.174 -0.1207  0.1698 -0.0714
  536loPI    C3 8563   0.518   2.003  10.231  0.0875  0.1919 -0.1853
  536loPI   PO4 8564   0.797   1.837   9.806 -0.1277 -0.1024  0.1808
  536loPI   GL1 8565   1.027   1.605   9.493 -0.2313 -0.1520  0.2170
  536loPI   GL2 8566   0.873   1.390   9.281 -0.1024 -0.1471 -0.1018
  536loPI   C1A 8567   1.316   1.610   9.166 -0.1057  0.3871 -0.0845
  536loPI   C2A 8568   1.438   1.738   8.845  0.1836  0.0719 -0.0678
  536loPI   C3A 8569   1.571   1.675   8.536 -0.0704 -0.0166 -0.0008
  536loPI   C4A 8570   1.489   1.596   8.143 -0.3065 -0.3467 -0.3338
  536loPI   C5A 8571   1.164   1.592   7.824 -0.0670  0.2339 -0.2087
  536loPI   C6A 8572   0.858   1.431   7.653 -0.3792 -0.1789  0.0511
  536loPI   C1B 8573   1.034   1.320   8.904 -0.1747  0.0026 -0.0595
  536loPI   C2B 8574   1.092   1.391   8.406  0.3204  0.0104 -0.1247
  536loPI   C3B 8575   0.835   1.548   8.128  0.2029 -0.1438 -0.4456
  536loPI   C4B 8576   0.374   1.606   7.996  0.0462  0.2297 -0.3404
  537loPI    C1 8577  11.591  12.994   9.779 -0.1945 -0.0725  0.0366
  537loPI    C2 8578  11.647  12.974  10.175  0.0452  0.0868  0.0129
  537loPI    C3 8579  11.291  12.881  10.018 -0.0834  0.1263  0.2755
  537loPI   PO4 8580  11.609  13.213   9.658  0.1246  0.0076  0.0041
  537loPI   GL1 8581  11.523  13.541   9.329 -0.3605 -0.3752 -0.4951
  537loPI   GL2 8582  11.544  13.255   9.153  0.0561  0.0570  0.0710
  537loPI   C1A 8583  11.258  13.817   9.075 -0.5461 -0.0221 -0.1322
  537loPI   C2A 8584  11.358  14.079   8.681  0.1252 -0.0198 -0.3714
  537loPI   C3A 8585  11.207  14.202   8.366  0.1736  0.0951  0.0826
  537loPI   C4A 8586  11.004  14.265   8.015  0.0820  0.0895 -0.0777
  537loPI   C5A 8587  10.758  14.462   7.772 -0.1440 -0.1001  0.0141
  537loPI   C6A 8588  10.559  14.313   7.453  0.1269  0.3615  0.0881
  537loPI   C1B 8589  11.378  13.301   8.791  0.2244 -0.1311 -0.1874
  537loPI   C2B 8590  11.593  13.301   8.382 -0.0217 -0.1491 -0.1292
  537loPI   C3B 8591  11.697  13.463   8.048  0.1078 -0.1836  0.0159
  537loPI   C4B 8592  11.582  13.543   7.576  0.1353 -0.0822 -0.0213
  538loPI    C1 8593   5.411  11.668   9.808 -0.3247  0.0168 -0.0485
  538loPI    C2 8594   5.300  11.310   9.949  0.1280 -0.0835  0.0711
  538loPI    C3 8595   5.400  11.603  10.203  0.1495 -0.0009 -0.0318
  538loPI   PO4 8596   5.529  11.593   9.588  0.0491  0.0221 -0.0492
  538loPI   GL1 8597   5.296  11.637   9.266 -0.0039  0.1300 -0.0940
  538loPI   GL2 8598   4.918  11.723   9.172 -0.2934 -0.0184 -0.1014
  538loPI   C1A 8599   5.120  11.425   8.883 -0.2275  0.1981 -0.2397
  538loPI   C2A 8600   5.054  11.689   8.414  0.2105  0.0509 -0.1744
  538loPI   C3A 8601   4.986  11.421   8.094 -0.1197  0.2270  0.2907
  538loPI   C4A 8602   4.832  10.981   7.926  0.3001 -0.1849 -0.1716
  538loPI   C5A 8603   4.545  10.669   7.820 -0.3486  0.0002 -0.1047
  538loPI   C6A 8604   4.142  10.723   7.670  0.0762  0.0919  0.2648
  538loPI   C1B 8605   4.746  11.932   8.916  0.1842  0.2169 -0.0573
  538loPI   C2B 8606   4.722  12.101   8.548  0.2134 -0.4726 -0.4161
  538loPI   C3B 8607   4.778  12.096   8.109 -0.0895 -0.0160 -0.0646
  538loPI   C4B 8608   4.838  12.078   7.591 -0.0923  0.0039 -0.0701
  539loPI    C1 8609   9.173   0.504  10.190 -0.1496 -0.1664 -0.1698
  539loPI    C2 8610   9.204   0.120  10.299  0.0329 -0.0852  0.0731
  539loPI    C3 8611   8.971   0.369  10.507  0.3003  0.0470  0.2197
  539loPI   PO4 8612   9.053   0.496   9.931 -0.1306  0.0069 -0.0059
  539loPI   GL1 8613   9.006   0.387   9.518  0.0292 -0.3151 -0.1529
  539loPI   GL2 8614   8.759   0.573   9.249  0.1473  0.1630 -0.0224
  539loPI   C1A 8615   9.211   0.350   9.095  0.2194 -0.1418 -0.1621
  539loPI   C2A 8616   9.213   0.487   8.683 -0.2311  0.0948  0.0961
  539loPI   C3A 8617   9.349   0.483   8.339  0.1966 -0.4223 -0.0097
  539loPI   C4A 8618   9.405   0.662   7.916 -0.0386  0.1881 -0.1356
  539loPI   C5A 8619   9.664   0.594   7.494 -0.0560  0.1156 -0.0317
  539loPI   C6A 8620   9.925   0.881   7.213 -0.1475  0.3143  0.0977
  539loPI   C1B 8621   8.864   0.767   8.892 -0.1302 -0.2496  0.2484
  539loPI   C2B 8622   8.984   0.913   8.529  0.3449 -0.2934  0.0510
  539loPI   C3B 8623   8.962   0.878   8.122 -0.3656  0.0403  0.2746
  539loPI   C4B 8624   8.907   0.826   7.741 -0.0420 -0.1843  0.1687
  540loPI    C1 8625   9.533   5.235  10.235  0.3323  0.0777 -0.0686
  540loPI    C2 8626   9.848   4.995  10.291  0.2017 -0.0821 -0.0084
  540loPI    C3 8627   9.529   4.965  10.530  0.0604 -0.0572 -0.1917
  540loPI   PO4 8628   9.532   5.270   9.926  0.2679 -0.1571 -0.1579
  540loPI   GL1 8629   9.643   5.285   9.527 -0.1270  0.0200 -0.0741
  540loPI   GL2 8630   9.724   5.434   9.419  0.0156 -0.0094  0.1692
  540loPI   C1A 8631   9.718   4.901   9.320 -0.6476  0.1891  0.5695
  540loPI   C2A 8632   9.697   4.848   8.931 -0.1930 -0.0673 -0.1717
  540loPI   C3A 8633   9.673   4.741   8.454 -0.1308  0.3101  0.4159
  540loPI   C4A 8634   9.607   4.942   8.009  0.1416 -0.0338 -0.2158
  540loPI   C5A 8635   9.634   5.137   7.615 -0.2894 -0.0600 -0.3922
  540loPI   C6A 8636   9.996   5.287   7.328 -0.0664  0.1479 -0.1593
  540loPI   C1B 8637   9.648   5.323   9.030 -0.1862 -0.0957  0.1782
  540loPI   C2B 8638   9.631   5.481   8.740 -0.0574 -0.0115  0.3765
  540loPI   C3B 8639   9.749   5.453   8.370  0.0186 -0.0338 -0.1228
  540loPI   C4B 8640   9.797   5.705   8.018  0.0477  0.0188  0.0315
  541POPI    C1 8641  17.910  15.312   9.855  0.0253  0.0258  0.2754
  541POPI    C2 8642  17.878  15.140  10.215 -0.0631 -0.1673  0.1765
  541POPI    C3 8643  17.676  14.991   9.903  0.1419 -0.1021  0.0101
  541POPI   PO4 8644  18.071  15.486   9.921  0.2969 -0.3915  0.2288
  541POPI   GL1 8645  18.422  15.454   9.706 -0.0067 -0.0780  0.2709
  541POPI   GL2 8646  18.332  15.343   9.506  0.0868  0.1628  0.1156
  541POPI   C1A 8647  18.814  15.265   9.503  0.2025 -0.0396  0.1362
  541POPI   D2A 8648  19.072  15.641   9.556  0.1419  0.0165  0.1175
  541POPI   C3A 8649  19.088  15.765   9.158 -0.0377 -0.0110  0.0080
  541POPI   C4A 8650  19.239  15.883   8.767 -0.2444 -0.0688  0.2781
  541POPI   C1B 8651  18.465  15.400   9.072 -0.0625  0.1904  0.1276
  541POPI   C2B 8652  18.382  15.501   8.598 -0.1995 -0.2297 -0.1972
  541POPI   C3B 8653  18.448  15.398   8.181  0.2942  0.3850 -0.1966
  541POPI   C4B 8654  18.645  15.406   7.817  0.2482 -0.0940  0.0724
  542POPI    C1 8655   0.445  11.591  10.120 -0.0677 -0.0844  0.0041
  542POPI    C2 8656   0.352  11.431  10.474 -0.2323 -0.2138 -0.0959
  542POPI    C3 8657   0.713  11.366  10.314 -0.1043 -0.0340  0.1136
  542POPI   PO4 8658   0.305  11.734  10.045  0.3981  0.0366  0.2865
  542POPI   GL1 8659   0.114  11.727   9.704 -0.3628  0.1143 -0.3087
  542POPI   GL2 8660   0.284  11.385   9.613 -0.1671  0.0763 -0.2687
  542POPI   C1A 8661   0.143  11.968   9.381 -0.2672  0.2247 -0.2037
  542POPI   D2A 8662   0.016  12.372   9.145  0.0953  0.0534  0.1375
  542POPI   C3A 8663  -0.136  12.277   8.869 -0.0494 -0.0943  0.1408
  542POPI   C4A 8664  -0.024  12.175   8.313  0.3285  0.2579 -0.0429
  542POPI   C1B 8665   0.373  11.545   9.264 -0.1759 -0.3652  0.0815
  542POPI   C2B 8666   0.165  11.764   8.968 -0.0558  0.3166  0.0958
  542POPI   C3B 8667   0.358  12.154   8.781  0.2142  0.4123 -0.2922
  542POPI   C4B 8668   0.494  12.131   8.346 -0.2156  0.1271  0.0025
  543POPI    C1 8669  13.065  13.004   9.871 -0.1446 -0.2504 -0.0175
  543POPI    C2 8670  13.258  13.347   9.943 -0.2017 -0.1837 -0.1779
  543POPI    C3 8671  13.056  13.167  10.237  0.0621 -0.2289 -0.0207
  543POPI   PO4 8672  12.932  13.140   9.577  0.1412 -0.1350 -0.1903
  543POPI   GL1 8673  12.987  13.232   9.278 -0.0490  0.2053  0.1705
  543POPI   GL2 8674  13.178  12.964   9.061 -0.2023 -0.0488 -0.1792
  543POPI   C1A 8675  13.166  13.531   8.968  0.1427  0.2300 -0.1225
  543POPI   D2A 8676  13.344  13.896   8.830  0.0171  0.0872 -0.1362
  543POPI   C3A 8677  13.549  14.074   8.398 -0.0114 -0.0563 -0.0685
  543POPI   C4A 8678  13.582  14.054   7.951  0.2438  0.4088 -0.0745
  543POPI   C1B 8679  13.356  13.053   8.719 -0.1927 -0.1633 -0.0150
  543POPI   C2B 8680  13.665  13.052   8.554 -0.1756 -0.1828  0.0699
  543POPI   C3B 8681  13.797  12.890   8.167 -0.2680  0.1460 -0.0354
  543POPI   C4B 8682  13.749  13.032   7.767  0.0231 -0.0636  0.0198
  544POPI    C1 8683   7.808  18.966   9.746  0.0484  0.2749  0.0801
  544POPI    C2 8684   7.919  18.723   9.448  0.1093  0.2252  0.1426
  544POPI    C3 8685   8.147  18.755   9.774 -0.0995  0.0633  0.3072
  544POPI   PO4 8686   7.532  18.902   9.761  0.0059  0.1360 -0.0389
  544POPI   GL1 8687   7.386  18.911   9.402 -0.0186  0.0797 -0.2685
  544POPI   GL2 8688   7.611  19.057   9.307 -0.0886 -0.2220  0.2363
  544POPI   C1A 8689   7.433  18.618   9.105 -0.2177  0.0045  0.0799
  544POPI   D2A 8690   7.654  18.415   8.770  0.1013 -0.2801 -0.2641
  544POPI   C3A 8691   7.701  18.582   8.338  0.1968  0.0076 -0.0183
  544POPI   C4A 8692   7.541  18.902   8.054 -0.0098  0.1401 -0.3166
  544POPI   C1B 8693   7.920  18.836   8.997  0.2319  0.1948 -0.0452
  544POPI   C2B 8694   8.147  18.708   8.637  0.1610  0.0509 -0.1808
  544POPI   C3B 8695   8.636  18.710   8.346  0.3979  0.0991 -0.4205
  544POPI   C4B 8696   8.684  18.745   7.948 -0.0046  0.2738  0.1840
  545POPI    C1 8697  16.765   0.491  10.094  0.0346  0.0883  0.0593
  545POPI    C2 8698  16.442   0.284  10.208  0.0418  0.0846  0.0731
  545POPI    C3 8699  16.401   0.652  10.056  0.0286  0.0711  0.0438
  545POPI   PO4 8700  16.951   0.261   9.972  0.1315 -0.1210  0.0529
  545POPI   GL1 8701  17.025   0.081   9.625  0.0262 -0.0581 -0.0888
  545POPI   GL2 8702  16.897   0.096   9.322 -0.1889 -0.2044 -0.0142
  545POPI   C1A 8703  17.401   0.028   9.472  0.0779  0.0526 -0.1065
  545POPI   D2A 8704  17.765   0.055   9.144  0.0399  0.0412  0.2369
  545POPI   C3A 8705  17.943  -0.030   8.773 -0.1918 -0.1364 -0.2440
  545POPI   C4A 8706  18.077   0.116   8.435 -0.0350 -0.2951  0.0168
  545POPI   C1B 8707  16.666   0.099   8.988  0.2789  0.0623 -0.1021
  545POPI   C2B 8708  16.523  -0.040   8.748  0.0323  0.0719  0.0114
  545POPI   C3B 8709  16.479  -0.110   8.344 -0.0372 -0.3829  0.4183
  545POPI   C4B 8710  16.695   0.018   7.977  0.0357 -0.2520 -0.0230
  546POPI    C1 8711   2.445  10.152   9.979  0.0017 -0.0483 -0.1600
  546POPI    C2 8712   2.374   9.788  10.131 -0.1692  0.0327 -0.0429
  546POPI    C3 8713   2.085   9.983   9.936 -0.1519  0.2050  0.1012
  546POPI   PO4 8714   2.672  10.109   9.881 -0.0255 -0.1530  0.4606
  546POPI   GL1 8715   2.604  10.271   9.425  0.0126 -0.1374 -0.0456
  546POPI   GL2 8716   2.325  10.242   9.516  0.2583 -0.0367 -0.0458
  546POPI   C1A 8717   2.550  10.115   8.978 -0.0900  0.0545  0.2758
  546POPI   D2A 8718   2.599   9.814   8.669  0.2040 -0.2048  0.2818
  546POPI   C3A 8719   2.536  10.067   8.407 -0.3431 -0.0285  0.0077
  546POPI   C4A 8720   2.945  10.186   8.143  0.0118 -0.2154 -0.2498
  546POPI   C1B 8721   2.132  10.409   9.127  0.1053  0.1579 -0.0220
  546POPI   C2B 8722   1.926  10.609   8.820  0.0825 -0.0076  0.0410
  546POPI   C3B 8723   2.097  10.622   8.389 -0.1488  0.0656 -0.1730
  546POPI   C4B 8724   2.207  10.797   7.976  0.4536 -0.3812  0.1645
  547POPI    C1 8725  12.417   8.902   9.455 -0.2337  0.3869 -0.1743
  547POPI    C2 8726  12.226   9.248   9.514 -0.1895  0.3687  0.0866
  547POPI    C3 8727  12.446   9.088   9.808  0.1655  0.3492 -0.1827
  547POPI   PO4 8728  12.573   8.910   9.290  0.0838  0.1505 -0.0292
  547POPI   GL1 8729  12.888   8.963   8.978  0.2004  0.2667  0.0530
  547POPI   GL2 8730  13.121   8.783   8.965 -0.0695  0.2091  0.0036
  547POPI   C1A 8731  13.165   9.069   8.572 -0.1757  0.3932 -0.1404
  547POPI   D2A 8732  13.166   9.390   8.223 -0.1458  0.1471 -0.2951
  547POPI   C3A 8733  13.318   9.694   8.208  0.0042  0.0768 -0.1419
  547POPI   C4A 8734  13.357  10.141   8.392 -0.0336 -0.0727 -0.1969
  547POPI   C1B 8735  12.874   8.571   8.595 -0.1647  0.2102  0.0137
  547POPI   C2B 8736  12.841   8.526   8.141 -0.0036 -0.0222  0.1623
  547POPI   C3B 8737  12.983   8.553   7.669  0.2954 -0.0662  0.2981
  547POPI   C4B 8738  12.881   8.514   7.321 -0.2529  0.2768 -0.1635
  548POPI    C1 8739   6.123  10.581   9.533 -0.0912 -0.1937  0.0911
  548POPI    C2 8740   6.109  10.295   9.812 -0.0649  0.0477  0.3450
  548POPI    C3 8741   6.130  10.679   9.921 -0.3362  0.1625  0.0103
  548POPI   PO4 8742   6.345  10.578   9.389  0.3805  0.1280  0.1674
  548POPI   GL1 8743   6.366  10.498   8.920 -0.1070 -0.1103  0.0683
  548POPI   GL2 8744   6.513  10.236   8.943 -0.0004 -0.0286  0.1547
  548POPI   C1A 8745   6.676  10.533   8.574  0.2186 -0.3314 -0.0683
  548POPI   D2A 8746   6.950  10.528   8.147  0.0489 -0.2113  0.0690
  548POPI   C3A 8747   6.866  10.662   7.748  0.4191  0.1676  0.0152
  548POPI   C4A 8748   6.806  10.569   7.342  0.4022 -0.0178 -0.2340
  548POPI   C1B 8749   6.451   9.901   8.648  0.5503  0.1476 -0.0489
  548POPI   C2B 8750   6.445   9.861   8.173  0.3166  0.1014  0.0485
  548POPI   C3B 8751   6.187   9.988   7.878  0.0768 -0.3414  0.3495
  548POPI   C4B 8752   5.765   9.811   7.882 -0.1474 -0.0975  0.4963
  549POPI    C1 8753  16.590   2.844  10.097 -0.0998 -0.0899 -0.2570
  549POPI    C2 8754  16.838   2.679   9.830  0.2897 -0.0672  0.0813
  549POPI    C3 8755  16.715   2.467  10.146  0.2141  0.0588  0.1370
  549POPI   PO4 8756  16.500   3.065   9.928  0.1310 -0.0190 -0.0048
  549POPI   GL1 8757  16.406   3.122   9.537  0.0020 -0.1546 -0.0470
  549POPI   GL2 8758  16.778   3.059   9.454  0.2464  0.0378 -0.1128
  549POPI   C1A 8759  16.451   3.115   8.987  0.2086 -0.0728  0.1491
  549POPI   D2A 8760  16.399   3.063   8.475 -0.0332  0.1531 -0.3349
  549POPI   C3A 8761  16.073   3.111   8.036  0.0191  0.0205  0.4139
  549POPI   C4A 8762  15.823   3.003   7.773  0.0196 -0.1789 -0.4483
  549POPI   C1B 8763  16.975   3.297   9.126  0.1041  0.0764  0.2707
  549POPI   C2B 8764  16.828   3.367   8.703 -0.5796  0.0179 -0.0874
  549POPI   C3B 8765  16.949   3.541   8.330 -0.3805 -0.2239  0.1517
  549POPI   C4B 8766  16.943   3.587   7.938 -0.1754  0.0315 -0.0118
  550POPI    C1 8767  14.550   4.419  10.000 -0.0166  0.0460  0.2069
  550POPI    C2 8768  14.448   4.282  10.361 -0.2307 -0.1738  0.0662
  550POPI    C3 8769  14.397   4.669  10.272 -0.1673 -0.1166  0.2725
  550POPI   PO4 8770  14.565   4.129   9.854 -0.2803  0.0227 -0.0095
  550POPI   GL1 8771  14.491   4.084   9.319 -0.2142  0.3367 -0.1789
  550POPI   GL2 8772  14.793   4.240   9.106 -0.2921 -0.3361 -0.1374
  550POPI   C1A 8773  14.267   3.953   9.054  0.3125 -0.1009  0.0358
  550POPI   D2A 8774  13.940   3.899   8.811  0.2702  0.5105  0.2206
  550POPI   C3A 8775  13.911   3.940   8.353  0.4133  0.0261 -0.3302
  550POPI   C4A 8776  13.859   3.632   7.959 -0.0604 -0.3555  0.2414
  550POPI   C1B 8777  14.967   4.306   8.720  0.0190  0.1666  0.0512
  550POPI   C2B 8778  15.230   4.123   8.472 -0.0271 -0.4065 -0.0956
  550POPI   C3B 8779  15.259   4.219   8.041  0.0987 -0.0528 -0.0056
  550POPI   C4B 8780  15.324   4.258   7.568  0.1353 -0.0853  0.0742
  551POPI    C1 8781   0.414  10.903  10.158 -0.1320  0.0811  0.2175
  551POPI    C2 8782   0.524  10.954  10.539 -0.1075  0.2567  0.1879
  551POPI    C3 8783   0.138  10.903  10.447 -0.0664 -0.2873  0.2845
  551POPI   PO4 8784   0.500  11.073   9.985  0.2865  0.0494  0.0053
  551POPI   GL1 8785   0.355  10.880   9.571 -0.1485 -0.1368 -0.0209
  551POPI   GL2 8786   0.731  10.975   9.444  0.1690  0.0311 -0.0780
  551POPI   C1A 8787   0.196  11.084   9.205 -0.1614  0.2149 -0.1990
  551POPI   D2A 8788  -0.073  11.349   8.950 -0.0761 -0.0925  0.1268
  551POPI   C3A 8789   0.046  11.483   8.601  0.0002 -0.0635 -0.2812
  551POPI   C4A 8790   0.273  11.693   8.376  0.1113  0.1240  0.1603
  551POPI   C1B 8791   0.676  10.960   9.036 -0.0274 -0.0642  0.3738
  551POPI   C2B 8792   0.651  10.838   8.567 -0.1766 -0.0586 -0.1348
  551POPI   C3B 8793   0.634  10.510   8.405  0.0343 -0.2805  0.1743
  551POPI   C4B 8794   0.745  10.242   8.070 -0.0655  0.0393  0.2693
  552POPI    C1 8795  16.238  13.559   9.927  0.1067  0.0342 -0.0753
  552POPI    C2 8796  15.938  13.294   9.907  0.2156 -0.0875 -0.1125
  552POPI    C3 8797  16.165  13.316  10.236  0.0117  0.1761  0.0150
  552POPI   PO4 8798  16.482  13.534   9.747  0.0335  0.1560 -0.0907
  552POPI   GL1 8799  16.360  13.623   9.349 -0.3566 -0.1773 -0.0825
  552POPI   GL2 8800  16.232  13.244   9.416 -0.0928  0.0183 -0.2475
  552POPI   C1A 8801  16.562  13.875   9.079  0.2808  0.3129  0.1372
  552POPI   D2A 8802  16.598  14.014   8.748  0.1956  0.1279  0.0893
  552POPI   C3A 8803  16.285  14.106   8.452  0.1345  0.1703  0.0877
  552POPI   C4A 8804  15.919  13.945   8.378 -0.1051 -0.1037  0.1206
  552POPI   C1B 8805  16.109  13.153   9.054 -0.2970 -0.2697 -0.3038
  552POPI   C2B 8806  16.213  13.136   8.622  0.0218 -0.0566 -0.1707
  552POPI   C3B 8807  15.999  13.231   8.283  0.0116 -0.0877 -0.0439
  552POPI   C4B 8808  15.933  13.136   7.809 -0.0323  0.2243  0.0597
  553POPI    C1 8809  15.299  13.422  10.178  0.2092  0.1901 -0.1099
  553POPI    C2 8810  15.614  13.338  10.410 -0.0893 -0.5273  0.0626
  553POPI    C3 8811  15.261  13.427  10.576 -0.0686 -0.0548 -0.1299
  553POPI   PO4 8812  15.375  13.206   9.937  0.2477 -0.1510  0.4874
  553POPI   GL1 8813  15.235  13.361   9.488 -0.2404  0.0785 -0.0959
  553POPI   GL2 8814  14.992  13.113   9.504  0.5632 -0.1225 -0.0071
  553POPI   C1A 8815  15.366  13.601   9.143 -0.0334  0.4089 -0.0870
  553POPI   D2A 8816  15.105  13.622   8.787 -0.1260  0.0838  0.2597
  553POPI   C3A 8817  14.992  13.402   8.467 -0.2415 -0.2504  0.2045
  553POPI   C4A 8818  15.022  13.420   8.078 -0.0272  0.1299 -0.1833
  553POPI   C1B 8819  15.059  12.881   9.056  0.0304 -0.0249 -0.2346
  553POPI   C2B 8820  15.043  12.874   8.593  0.3978 -0.0732  0.1014
  553POPI   C3B 8821  15.011  12.869   8.109  0.0323 -0.2142 -0.1951
  553POPI   C4B 8822  14.753  12.926   7.854 -0.0588  0.4595  0.2508
  554POPI    C1 8823   8.252  16.167  10.427  0.2694  0.1495  0.1279
  554POPI    C2 8824   8.072  16.474  10.610  0.2753  0.1517  0.1299
  554POPI    C3 8825   8.443  16.368  10.715  0.4160  0.3798 -0.1252
  554POPI   PO4 8826   8.170  16.153  10.154  0.0516 -0.0789  0.2354
  554POPI   GL1 8827   8.235  15.882   9.750  0.3484  0.1305  0.0057
  554POPI   GL2 8828   7.945  16.041   9.712  0.0358  0.1805 -0.2801
  554POPI   C1A 8829   8.620  15.848   9.584  0.0507  0.4210  0.0801
  554POPI   D2A 8830   8.858  15.577   9.260  0.0028 -0.1061 -0.0504
  554POPI   C3A 8831   8.592  15.510   8.857 -0.1800 -0.1996 -0.0906
  554POPI   C4A 8832   8.692  15.615   8.476  0.0549  0.1031 -0.0446
  554POPI   C1B 8833   7.776  16.142   9.364  0.0219 -0.0031  0.4793
  554POPI   C2B 8834   7.631  16.038   8.936  0.0394  0.0755 -0.0066
  554POPI   C3B 8835   7.635  15.723   8.586  0.1153  0.5555 -0.0512
  554POPI   C4B 8836   7.854  15.708   8.209 -0.0083 -0.2365  0.0064
  555POPI    C1 8837  17.848   5.446   9.946 -0.5092 -0.0336  0.0391
  555POPI    C2 8838  17.835   5.826  10.069 -0.0803 -0.0406  0.1220
  555POPI    C3 8839  18.088   5.568  10.241 -0.2171 -0.3127 -0.0758
  555POPI   PO4 8840  17.874   5.431   9.634 -0.0220  0.1598 -0.3787
  555POPI   GL1 8841  18.047   5.706   9.304 -0.0948  0.0239 -0.1692
  555POPI   GL2 8842  18.381   5.773   9.316  0.2471 -0.0180  0.3552
  555POPI   C1A 8843  17.853   5.936   9.007 -0.1036  0.0524  0.1410
  555POPI   D2A 8844  17.755   6.045   8.545 -0.1044  0.0622 -0.0603
  555POPI   C3A 8845  17.415   6.180   8.499 -0.0813 -0.0762 -0.1045
  555POPI   C4A 8846  17.085   6.245   8.659  0.1749 -0.1991 -0.0326
  555POPI   C1B 8847  18.313   5.714   8.857  0.0943  0.1093 -0.1511
  555POPI   C2B 8848  18.278   5.838   8.481  0.1306  0.0300  0.0288
  555POPI   C3B 8849  18.011   5.981   8.135  0.0013 -0.2003  0.1950
  555POPI   C4B 8850  18.070   6.119   7.664  0.1062 -0.1859  0.1965
  556POPI    C1 8851  17.838  10.251  10.393 -0.0759 -0.1382  0.1364
  556POPI    C2 8852  18.210  10.186  10.526  0.0470  0.1390 -0.0620
  556POPI    C3 8853  17.993  10.486  10.677 -0.1102 -0.0412  0.0752
  556POPI   PO4 8854  17.783  10.367  10.066  0.0437  0.3200 -0.0022
  556POPI   GL1 8855  17.857  10.201   9.668 -0.0540  0.1203 -0.0516
  556POPI   GL2 8856  17.988  10.556   9.666  0.3135 -0.3806 -0.3008
  556POPI   C1A 8857  17.768  10.295   9.265 -0.1818  0.2688  0.1071
  556POPI   D2A 8858  17.903  10.643   9.121 -0.1301 -0.0307 -0.0651
  556POPI   C3A 8859  17.698  10.969   8.875 -0.0393  0.0006 -0.0055
  556POPI   C4A 8860  17.333  11.279   8.959 -0.1998 -0.0006 -0.1140
  556POPI   C1B 8861  17.576  10.722   9.568  0.1467 -0.1246  0.0466
  556POPI   C2B 8862  17.322  10.784   9.195 -0.0063  0.0400  0.0404
  556POPI   C3B 8863  17.272  10.735   8.686  0.1606  0.0339 -0.0863
  556POPI   C4B 8864  17.124  10.756   8.241 -0.2048  0.2180 -0.1137
  557POPI    C1 8865  17.555   6.949   9.539  0.0694  0.0663  0.1201
  557POPI    C2 8866  17.436   6.649   9.774 -0.0356  0.1000  0.1104
  557POPI    C3 8867  17.712   6.907   9.904  0.2111 -0.1232  0.0395
  557POPI   PO4 8868  17.366   7.135   9.521  0.1239 -0.1075  0.0151
  557POPI   GL1 8869  17.331   7.397   9.157 -0.1954 -0.4800  0.2587
  557POPI   GL2 8870  17.006   7.254   9.017  0.1314 -0.0934 -0.0285
  557POPI   C1A 8871  17.402   7.295   8.732  0.0021  0.1272 -0.2633
  557POPI   D2A 8872  17.470   7.332   8.327  0.1596 -0.2009  0.0976
  557POPI   C3A 8873  17.516   6.976   8.060  0.2122  0.2997  0.0572
  557POPI   C4A 8874  17.487   6.706   7.719  0.1666  0.2584 -0.1511
  557POPI   C1B 8875  16.898   7.234   8.632 -0.1275  0.1299  0.0138
  557POPI   C2B 8876  16.944   7.136   8.173  0.0550 -0.0308  0.1782
  557POPI   C3B 8877  17.097   7.307   7.882  0.2143 -0.0716 -0.3421
  557POPI   C4B 8878  17.299   7.117   7.547  0.1634  0.0085  0.2314
  558POPI    C1 8879   7.595  12.322   9.736  0.2284 -0.0005 -0.0426
  558POPI    C2 8880   7.246  12.455   9.593  0.3501  0.0595 -0.2897
  558POPI    C3 8881   7.276  12.344   9.976  0.0566  0.0376 -0.2707
  558POPI   PO4 8882   7.707  12.348   9.492 -0.0952  0.0639 -0.1820
  558POPI   GL1 8883   7.515  12.350   9.064  0.0969 -0.2009 -0.1024
  558POPI   GL2 8884   7.754  12.112   9.005 -0.2761  0.1588 -0.1225
  558POPI   C1A 8885   7.648  12.588   8.761  0.0066 -0.0991 -0.1479
  558POPI   D2A 8886   7.891  12.714   8.513 -0.0113 -0.2345  0.1345
  558POPI   C3A 8887   7.808  12.620   8.131  0.1217 -0.0647  0.0989
  558POPI   C4A 8888   7.718  12.297   7.781  0.0842 -0.0622 -0.0674
  558POPI   C1B 8889   7.848  12.170   8.496 -0.0893 -0.1613  0.1003
  558POPI   C2B 8890   8.214  12.254   8.097  0.4608  0.1857  0.0793
  558POPI   C3B 8891   8.212  12.393   7.658 -0.2964  0.0470  0.2128
  558POPI   C4B 8892   8.107  12.139   7.296  0.0624 -0.4546  0.0731
  559POPI    C1 8893   0.051   1.071   9.870 -0.1157 -0.0833 -0.2413
  559POPI    C2 8894   0.359   0.825   9.802 -0.1550 -0.1543 -0.1651
  559POPI    C3 8895   0.394   1.119  10.070 -0.1293 -0.1163 -0.2099
  559POPI   PO4 8896   0.013   1.083   9.575 -0.2473 -0.0670  0.1719
  559POPI   GL1 8897  -0.175   0.746   9.289  0.0468  0.0527  0.0174
  559POPI   GL2 8898   0.171   0.681   9.354  0.0402  0.0807 -0.1286
  559POPI   C1A 8899  -0.337   0.911   8.882 -0.2094 -0.2861  0.0074
  559POPI   D2A 8900  -0.525   0.751   8.508  0.1960 -0.0129  0.2232
  559POPI   C3A 8901  -0.797   0.376   8.677 -0.1915  0.1606 -0.1619
  559POPI   C4A 8902  -0.927   0.189   9.062  0.1252 -0.1008 -0.0913
  559POPI   C1B 8903   0.175   0.701   8.910 -0.0408 -0.3297 -0.1509
  559POPI   C2B 8904   0.202   0.813   8.450  0.0762  0.3908  0.0086
  559POPI   C3B 8905  -0.100   0.606   8.215 -0.0924  0.0304 -0.1728
  559POPI   C4B 8906  -0.494   0.331   8.226  0.1688  0.0914 -0.0872
  560POPI    C1 8907   2.282  13.527  10.221 -0.1689  0.2131 -0.0113
  560POPI    C2 8908   2.429  13.883  10.330  0.0736  0.1228 -0.0369
  560POPI    C3 8909   2.345  13.608  10.607 -0.3979  0.3036  0.0086
  560POPI   PO4 8910   2.411  13.544   9.944  0.0200  0.1439 -0.0466
  560POPI   GL1 8911   2.361  13.649   9.552 -0.3214 -0.0067 -0.2922
  560POPI   GL2 8912   2.099  13.732   9.442 -0.0230  0.1112  0.0997
  560POPI   C1A 8913   2.384  13.410   9.147 -0.0977 -0.1130 -0.0005
  560POPI   D2A 8914   2.553  13.210   8.830 -0.2565  0.0544 -0.0180
  560POPI   C3A 8915   2.432  13.239   8.424 -0.0560  0.0573 -0.0017
  560POPI   C4A 8916   2.365  13.027   7.998  0.1571  0.2535  0.0803
  560POPI   C1B 8917   1.948  13.598   9.102 -0.1206  0.0036  0.1727
  560POPI   C2B 8918   2.050  13.552   8.663  0.1829 -0.1057 -0.0785
  560POPI   C3B 8919   1.992  13.377   8.239 -0.0389 -0.6177 -0.1584
  560POPI   C4B 8920   1.996  13.494   7.811  0.1235  0.2582 -0.0775
  561POPI    C1 8921   8.997  16.147  10.309 -0.0536  0.0156 -0.1506
  561POPI    C2 8922   8.692  15.916  10.195 -0.0878  0.0011 -0.0307
  561POPI    C3 8923   8.746  15.998  10.583 -0.2097  0.3786 -0.0896
  561POPI   PO4 8924   9.051  16.253  10.113 -0.2265  0.3794  0.0737
  561POPI   GL1 8925   9.074  16.277   9.767 -0.0022  0.0554 -0.0499
  561POPI   GL2 8926   9.160  16.446   9.583 -0.0241 -0.1089  0.2537
  561POPI   C1A 8927   9.094  16.010   9.397 -0.2325 -0.1898  0.0756
  561POPI   D2A 8928   9.168  16.005   8.937  0.0304  0.4314 -0.1121
  561POPI   C3A 8929   9.056  16.280   8.721  0.0470  0.0869  0.1114
  561POPI   C4A 8930   9.015  16.351   8.213 -0.2061  0.0694 -0.1218
  561POPI   C1B 8931   8.796  16.362   9.212  0.1788 -0.0860  0.1078
  561POPI   C2B 8932   8.703  16.614   8.899 -0.0233 -0.1241 -0.3163
  561POPI   C3B 8933   8.838  16.766   8.458 -0.1029  0.0381  0.2633
  561POPI   C4B 8934   8.784  16.805   8.010  0.3312  0.3406 -0.0473
  562POPI    C1 8935   6.584  18.609   9.801  0.0776  0.0063 -0.0650
  562POPI    C2 8936   6.655  18.619  10.195  0.1471  0.0399 -0.0784
  562POPI    C3 8937   6.932  18.751   9.938  0.0105  0.2350 -0.1273
  562POPI   PO4 8938   6.319  18.803   9.745  0.0113 -0.3579 -0.0934
  562POPI   GL1 8939   6.321  18.883   9.272 -0.2204  0.0866 -0.0163
  562POPI   GL2 8940   6.038  18.965   9.416 -0.1731 -0.0125  0.2748
  562POPI   C1A 8941   6.455  19.027   8.799  0.2584 -0.1775  0.1322
  562POPI   D2A 8942   6.432  19.093   8.395 -0.1543  0.1509 -0.0263
  562POPI   C3A 8943   6.245  19.520   8.155  0.1730  0.2204 -0.0644
  562POPI   C4A 8944   6.171  19.966   8.248 -0.0347  0.0153 -0.2026
  562POPI   C1B 8945   5.955  18.963   8.962  0.3582  0.0657 -0.2754
  562POPI   C2B 8946   5.988  19.131   8.536  0.1574 -0.0443  0.0268
  562POPI   C3B 8947   5.999  19.069   8.101 -0.0503 -0.1527  0.0242
  562POPI   C4B 8948   6.112  19.270   7.638 -0.3068 -0.0950  0.0403
  563POPI    C1 8949   5.398   7.894  10.151 -0.1958  0.0181 -0.1822
  563POPI    C2 8950   5.160   8.210  10.090 -0.1051  0.1180 -0.0232
  563POPI    C3 8951   5.468   8.237  10.344 -0.1092 -0.1049  0.0075
  563POPI   PO4 8952   5.327   7.745   9.842 -0.0230  0.2193  0.3081
  563POPI   GL1 8953   5.017   7.726   9.543  0.0876 -0.2188 -0.0715
  563POPI   GL2 8954   5.107   7.448   9.469 -0.0723 -0.0458 -0.1369
  563POPI   C1A 8955   4.876   7.732   9.082 -0.1558 -0.0897 -0.1085
  563POPI   D2A 8956   4.643   7.826   8.848 -0.3538 -0.0645 -0.1719
  563POPI   C3A 8957   4.624   8.317   8.798 -0.1216 -0.3348 -0.0897
  563POPI   C4A 8958   4.292   8.600   8.961  0.1200 -0.2402  0.0618
  563POPI   C1B 8959   5.334   7.420   9.026  0.1513 -0.0928 -0.0771
  563POPI   C2B 8960   5.554   7.485   8.600 -0.1480  0.2672 -0.4863
  563POPI   C3B 8961   5.874   7.292   8.476 -0.0120  0.0931  0.1187
  563POPI   C4B 8962   6.046   7.243   8.029  0.4031 -0.0361 -0.0680
  564POPI    C1 8963  12.143  10.527   9.543 -0.1057  0.0390 -0.0305
  564POPI    C2 8964  12.031  10.842   9.762  0.3433  0.2120 -0.0395
  564POPI    C3 8965  12.239  10.545   9.931 -0.2430 -0.1845  0.0160
  564POPI   PO4 8966  12.292  10.641   9.338  0.1642 -0.0139 -0.1570
  564POPI   GL1 8967  12.537  10.499   8.886  0.0740  0.0711  0.0276
  564POPI   GL2 8968  12.314  10.208   8.759 -0.0269 -0.1368  0.3239
  564POPI   C1A 8969  12.835  10.628   8.674 -0.1643 -0.1229 -0.1197
  564POPI   D2A 8970  13.107  10.591   8.351 -0.1735  0.0561  0.0019
  564POPI   C3A 8971  13.024  10.899   7.933 -0.0777 -0.2162  0.1711
  564POPI   C4A 8972  13.054  10.834   7.530 -0.1528  0.0089 -0.0498
  564POPI   C1B 8973  12.350  10.111   8.295  0.1218  0.1356  0.3478
  564POPI   C2B 8974  12.382  10.227   7.888 -0.1751 -0.1268 -0.2538
  564POPI   C3B 8975  12.458  10.662   7.666  0.0158  0.2021  0.3956
  564POPI   C4B 8976  12.607  10.686   7.251 -0.2087  0.0739  0.1096
  565POPI    C1 8977   1.609   0.462  10.169  0.0292  0.0487 -0.0562
  565POPI    C2 8978   1.944   0.244  10.202 -0.1194 -0.2024 -0.1775
  565POPI    C3 8979   1.685   0.260  10.506 -0.0208 -0.0447 -0.1004
  565POPI   PO4 8980   1.614   0.409   9.842  0.2377  0.0374  0.3387
  565POPI   GL1 8981   1.458   0.317   9.501 -0.2015  0.0401 -0.1199
  565POPI   GL2 8982   1.443   0.523   9.345  0.2034  0.4090  0.2702
  565POPI   C1A 8983   1.544   0.042   9.212 -0.0985 -0.0132  0.1554
  565POPI   D2A 8984   1.684  -0.260   8.876 -0.0889 -0.3859  0.0352
  565POPI   C3A 8985   1.536  -0.604   8.820 -0.3655 -0.1209 -0.0370
  565POPI   C4A 8986   1.225  -0.796   8.885 -0.0856  0.0612 -0.1201
  565POPI   C1B 8987   1.729   0.572   9.075  0.2477 -0.0417 -0.1377
  565POPI   C2B 8988   1.949   0.886   8.871 -0.1465  0.4425 -0.0899
  565POPI   C3B 8989   2.070   0.973   8.444 -0.0810  0.2339  0.2946
  565POPI   C4B 8990   2.008   1.017   8.014  0.4325  0.0489 -0.3035
  566POPI    C1 8991  10.385  13.730   9.656 -0.1091 -0.0647  0.0049
  566POPI    C2 8992  10.298  14.119   9.685 -0.0197 -0.0173 -0.3163
  566POPI    C3 8993  10.012  13.856   9.590 -0.1050 -0.0483  0.0131
  566POPI   PO4 8994  10.618  13.760   9.479 -0.0229 -0.0633  0.3026
  566POPI   GL1 8995  10.692  13.596   9.100  0.1533 -0.1576 -0.3049
  566POPI   GL2 8996  11.022  13.372   9.108  0.1768  0.1956 -0.1344
  566POPI   C1A 8997  10.932  13.684   8.692  0.2121  0.1026 -0.2444
  566POPI   D2A 8998  11.186  13.625   8.402  0.0396 -0.1054 -0.2587
  566POPI   C3A 8999  11.183  13.797   7.937 -0.1792 -0.3214  0.0181
  566POPI   C4A 9000  11.024  13.990   7.604 -0.1978 -0.1081  0.1094
  566POPI   C1B 9001  10.891  13.163   8.784  0.0288 -0.3531 -0.0367
  566POPI   C2B 9002  11.089  13.124   8.347  0.1549 -0.0138 -0.0208
  566POPI   C3B 9003  11.185  13.277   7.903  0.0679  0.0352 -0.0297
  566POPI   C4B 9004  11.130  13.545   7.490 -0.0113  0.2111  0.3719
  567POPI    C1 9005   0.096  12.768  10.330  0.1109  0.1022  0.0519
  567POPI    C2 9006   0.131  13.080  10.578 -0.0864  0.0509  0.1460
  567POPI    C3 9007   0.099  12.710  10.726  0.1918 -0.0205  0.0339
  567POPI   PO4 9008   0.205  12.809  10.165  0.2204  0.1610  0.0297
  567POPI   GL1 9009  -0.043  12.886   9.767  0.1584  0.1499 -0.2332
  567POPI   GL2 9010   0.240  12.703   9.643 -0.0625 -0.0935  0.2236
  567POPI   C1A 9011  -0.155  13.218   9.463  0.0385  0.0777 -0.1265
  567POPI   D2A 9012  -0.358  13.558   9.324 -0.1170  0.0836  0.0031
  567POPI   C3A 9013  -0.399  13.940   9.135  0.0514 -0.2113  0.0441
  567POPI   C4A 9014  -0.605  14.314   9.381  0.1576  0.0932 -0.1702
  567POPI   C1B 9015   0.222  12.915   9.296  0.0317 -0.1741 -0.2268
  567POPI   C2B 9016   0.123  13.243   8.987  0.3933 -0.1331  0.0204
  567POPI   C3B 9017   0.097  13.190   8.539 -0.1103 -0.1483  0.0978
  567POPI   C4B 9018  -0.004  13.240   8.119  0.0392 -0.0808 -0.0945
  568POPI    C1 9019   7.240   8.675   9.474  0.1932  0.0509 -0.0532
  568POPI    C2 9020   7.282   8.756   9.863  0.1274  0.1302 -0.0621
  568POPI    C3 9021   7.344   8.385   9.728 -0.3522 -0.0185  0.1052
  568POPI   PO4 9022   6.992   8.883   9.389 -0.1778  0.3885  0.0306
  568POPI   GL1 9023   7.028   9.195   9.037 -0.2204 -0.2685  0.0695
  568POPI   GL2 9024   6.806   8.984   8.876 -0.2609  0.1318  0.0808
  568POPI   C1A 9025   7.195   9.162   8.645  0.0606  0.0545  0.2517
  568POPI   D2A 9026   7.479   9.284   8.230  0.0995  0.0166 -0.2514
  568POPI   C3A 9027   7.493   9.100   7.758  0.0499  0.1496  0.0383
  568POPI   C4A 9028   7.740   9.079   7.402 -0.1196  0.2436 -0.0424
  568POPI   C1B 9029   6.633   9.020   8.395 -0.0214 -0.0317  0.0508
  568POPI   C2B 9030   6.427   8.966   8.088 -0.3118  0.0564 -0.1474
  568POPI   C3B 9031   6.497   9.099   7.621 -0.1743  0.0016 -0.0821
  568POPI   C4B 9032   6.712   9.434   7.546 -0.0994 -0.0114 -0.1114
  569POPI    C1 9033   7.702  17.844   9.750  0.0023 -0.2105  0.0631
  569POPI    C2 9034   7.650  18.014  10.108 -0.0198 -0.0165 -0.0308
  569POPI    C3 9035   7.342  17.984   9.853 -0.0227 -0.2242 -0.0044
  569POPI   PO4 9036   7.778  17.584   9.783 -0.0818  0.3177  0.0096
  569POPI   GL1 9037   7.785  17.357   9.399 -0.1662  0.4446 -0.0666
  569POPI   GL2 9038   7.767  17.668   9.286  0.0725 -0.2057  0.2375
  569POPI   C1A 9039   8.140  17.441   9.073  0.0032 -0.1130  0.0181
  569POPI   D2A 9040   8.390  17.328   8.753 -0.2034 -0.2266  0.0218
  569POPI   C3A 9041   8.279  17.267   8.406  0.0704 -0.2483  0.1218
  569POPI   C4A 9042   8.527  17.344   8.046  0.2177  0.2385  0.0871
  569POPI   C1B 9043   7.829  17.904   8.947 -0.2804  0.2275 -0.0534
  569POPI   C2B 9044   7.622  17.950   8.568 -0.5485 -0.1642 -0.3283
  569POPI   C3B 9045   7.653  18.054   8.060 -0.1512  0.0148 -0.2755
  569POPI   C4B 9046   8.132  17.882   7.806  0.4522  0.0175 -0.0867
  570POPI    C1 9047   6.048  12.326   9.900 -0.1441  0.0819 -0.0032
  570POPI    C2 9048   6.250  12.587  10.127  0.0077  0.0172 -0.0624
  570POPI    C3 9049   6.009  12.317  10.298  0.0139  0.0588  0.0124
  570POPI   PO4 9050   5.947  12.469   9.621  0.1303  0.4384 -0.2343
  570POPI   GL1 9051   6.063  12.554   9.224  0.2595  0.0447  0.1842
  570POPI   GL2 9052   6.110  12.244   9.183  0.0254 -0.1326  0.1160
  570POPI   C1A 9053   6.145  12.582   8.752  0.0430 -0.0895  0.2111
  570POPI   D2A 9054   5.887  12.628   8.378 -0.0744  0.1103  0.2382
  570POPI   C3A 9055   6.176  12.617   7.959 -0.1397  0.1509 -0.1243
  570POPI   C4A 9056   6.232  12.916   7.566  0.1681 -0.2382  0.0427
  570POPI   C1B 9057   6.233  12.012   8.850 -0.0972  0.0916  0.0824
  570POPI   C2B 9058   6.148  11.710   8.515 -0.1197 -0.0350  0.2201
  570POPI   C3B 9059   6.120  11.618   8.086 -0.0133  0.0380 -0.0046
  570POPI   C4B 9060   6.191  11.360   7.686 -0.0108  0.3452  0.0061
  571POPI    C1 9061  11.945   7.587   9.784  0.0615 -0.2421  0.2266
  571POPI    C2 9062  12.301   7.767   9.753 -0.1569  0.1432 -0.1438
  571POPI    C3 9063  12.279   7.388   9.881  0.3470  0.2391  0.2605
  571POPI   PO4 9064  11.841   7.708   9.491 -0.3380  0.2476 -0.0796
  571POPI   GL1 9065  11.661   7.677   9.036  0.1232  0.0226 -0.1554
  571POPI   GL2 9066  11.844   7.874   9.017 -0.2110  0.3183 -0.2168
  571POPI   C1A 9067  11.532   7.472   8.703 -0.0314 -0.0004 -0.3185
  571POPI   D2A 9068  11.673   7.424   8.283  0.1838  0.0126 -0.2515
  571POPI   C3A 9069  11.555   7.532   7.848 -0.2517 -0.3659  0.1969
  571POPI   C4A 9070  11.458   7.894   7.594  0.0804 -0.1805  0.0811
  571POPI   C1B 9071  11.738   7.963   8.584  0.0920 -0.0901 -0.2145
  571POPI   C2B 9072  11.687   7.934   8.099  0.2559 -0.1888  0.1413
  571POPI   C3B 9073  12.007   7.851   7.833  0.0131  0.1669  0.1345
  571POPI   C4B 9074  12.295   7.985   7.512 -0.0452  0.0380  0.0822
  572POPI    C1 9075  18.449   9.904   9.726 -0.2125 -0.0495  0.0873
  572POPI    C2 9076  18.169  10.018   9.988 -0.2636 -0.2031  0.1000
  572POPI    C3 9077  18.377  10.293   9.786 -0.3396 -0.0865  0.1792
  572POPI   PO4 9078  18.389   9.753   9.607 -0.1312 -0.5131  0.2153
  572POPI   GL1 9079  18.275   9.604   9.345 -0.1973  0.2084 -0.0404
  572POPI   GL2 9080  18.415   9.409   9.175  0.1033 -0.2720 -0.1885
  572POPI   C1A 9081  17.922   9.424   9.023 -0.4231  0.1287  0.1148
  572POPI   D2A 9082  17.952   9.460   8.655 -0.0378 -0.2767 -0.2016
  572POPI   C3A 9083  18.116   9.461   8.288 -0.0056  0.1214  0.0514
  572POPI   C4A 9084  17.862   9.569   8.009  0.0473 -0.1900  0.0333
  572POPI   C1B 9085  18.410   9.588   8.776 -0.1379 -0.0948 -0.0108
  572POPI   C2B 9086  18.586   9.724   8.341 -0.3214  0.0036  0.2289
  572POPI   C3B 9087  18.418   9.838   8.012  0.1913 -0.1958 -0.2783
  572POPI   C4B 9088  18.199  10.075   7.695 -0.0101  0.1713  0.5362
  573POPI    C1 9089   7.159   7.244   9.402 -0.0872 -0.2933 -0.0097
  573POPI    C2 9090   7.197   7.310   9.795  0.2686  0.3153 -0.1320
  573POPI    C3 9091   6.953   7.539   9.576 -0.1616 -0.2134 -0.2294
  573POPI   PO4 9092   7.396   7.072   9.403 -0.2291  0.1362  0.3722
  573POPI   GL1 9093   7.679   7.098   9.139  0.2932 -0.0504 -0.4149
  573POPI   GL2 9094   7.959   7.156   9.199 -0.3745  0.2642 -0.1535
  573POPI   C1A 9095   7.524   7.142   8.703  0.2146  0.0141 -0.1499
  573POPI   D2A 9096   7.072   7.199   8.808 -0.2022  0.0101 -0.3794
  573POPI   C3A 9097   6.978   7.542   9.088  0.2625  0.3588  0.4214
  573POPI   C4A 9098   6.742   7.861   9.087  0.0806  0.0130  0.0729
  573POPI   C1B 9099   8.039   7.143   8.829 -0.0745  0.2810 -0.0601
  573POPI   C2B 9100   7.945   7.157   8.404 -0.0368  0.0027 -0.0467
  573POPI   C3B 9101   8.085   7.016   7.931 -0.0265 -0.0466 -0.0825
  573POPI   C4B 9102   8.267   7.160   7.529  0.1508  0.0137  0.1231
  574DPPI    C1 9103   8.097   0.131  10.180 -0.0993  0.2828 -0.1912
  574DPPI    C2 9104   8.250   0.494  10.244  0.0461  0.2086 -0.1135
  574DPPI    C3 9105   7.876   0.413  10.358 -0.0185  0.3604 -0.2132
  574DPPI   PO4 9106   8.224   0.048   9.857 -0.0967 -0.0094  0.0334
  574DPPI   GL1 9107   8.196   0.015   9.467 -0.0204  0.2235  0.1065
  574DPPI   GL2 9108   8.009   0.104   9.321 -0.2752  0.2437  0.1466
  574DPPI   C1A 9109   8.340  -0.403   9.258 -0.0319 -0.3873  0.0040
  574DPPI   C2A 9110   8.601  -0.557   8.890  0.0574 -0.0745  0.4019
  574DPPI   C3A 9111   8.794  -0.271   8.724  0.3006 -0.0871 -0.0520
  574DPPI   C4A 9112   8.969  -0.012   8.372  0.1232  0.0077 -0.1755
  574DPPI   C1B 9113   8.240   0.002   8.888 -0.0899  0.3108  0.3657
  574DPPI   C2B 9114   8.420  -0.026   8.508  0.0544  0.0851 -0.1315
  574DPPI   C3B 9115   8.592   0.039   8.019 -0.1161  0.1041 -0.0663
  574DPPI   C4B 9116   8.893   0.385   8.023 -0.1702  0.0112 -0.0126
  575DPPI    C1 9117  17.951   8.647   9.857 -0.3105  0.0746  0.0444
  575DPPI    C2 9118  18.011   9.041   9.890 -0.2881  0.0559  0.2364
  575DPPI    C3 9119  18.108   8.797  10.192  0.1417 -0.1517 -0.0577
  575DPPI   PO4 9120  17.756   8.553   9.858 -0.0804 -0.3947 -0.2275
  575DPPI   GL1 9121  17.619   8.823   9.569  0.2093  0.1512 -0.0513
  575DPPI   GL2 9122  17.486   8.428   9.451 -0.1645  0.2496 -0.2604
  575DPPI   C1A 9123  17.844   8.821   9.172 -0.1136 -0.3560  0.1758
  575DPPI   C2A 9124  18.025   8.916   8.773  0.2287 -0.4949 -0.0653
  575DPPI   C3A 9125  17.898   9.059   8.424  0.2336 -0.3514  0.0555
  575DPPI   C4A 9126  17.554   9.122   8.234 -0.0392 -0.1434  0.4388
  575DPPI   C1B 9127  17.590   8.411   9.033 -0.1540  0.1085 -0.1451
  575DPPI   C2B 9128  17.568   8.682   8.589 -0.0906  0.4481 -0.2190
  575DPPI   C3B 9129  17.431   8.699   8.135 -0.1065  0.3073  0.0146
  575DPPI   C4B 9130  17.556   8.696   7.752  0.0865 -0.1170  0.1926
  576DPPI    C1 9131  10.120   1.755   9.975 -0.0412  0.2252  0.1672
  576DPPI    C2 9132   9.763   1.641  10.114  0.0831 -0.0042  0.3053
  576DPPI    C3 9133  10.085   1.620  10.350  0.2387 -0.0763  0.0899
  576DPPI   PO4 9134  10.081   1.577   9.647 -0.1835 -0.1658  0.1347
  576DPPI   GL1 9135  10.054   1.652   9.274 -0.3151 -0.0432  0.0172
  576DPPI   GL2 9136   9.830   1.878   9.226  0.0050  0.2280  0.2470
  576DPPI   C1A 9137  10.135   1.559   8.858 -0.1457  0.0729  0.0588
  576DPPI   C2A 9138  10.403   1.301   8.575 -0.0031 -0.1512 -0.0901
  576DPPI   C3A 9139  10.595   1.398   8.144 -0.0694  0.1192  0.0981
  576DPPI   C4A 9140  10.797   1.305   7.676  0.2536  0.1470 -0.1116
  576DPPI   C1B 9141   9.707   1.884   8.872 -0.1030 -0.0628 -0.0139
  576DPPI   C2B 9142   9.702   2.109   8.414 -0.1736 -0.0179  0.0488
  576DPPI   C3B 9143   9.462   2.392   8.215  0.0078 -0.3078 -0.1348
  576DPPI   C4B 9144   9.363   2.277   7.822 -0.0894 -0.1307 -0.0810
  577DPPI    C1 9145  13.899   6.104   9.663  0.0094  0.2486  0.3285
  577DPPI    C2 9146  13.725   6.445   9.547 -0.0265  0.1699  0.1475
  577DPPI    C3 9147  13.626   6.279   9.897 -0.2683  0.1610  0.0766
  577DPPI   PO4 9148  13.998   6.005   9.521 -0.1361  0.1722 -0.1524
  577DPPI   GL1 9149  14.079   6.182   9.182  0.2850  0.1442  0.0262
  577DPPI   GL2 9150  13.704   6.173   9.157 -0.0027 -0.3036  0.1663
  577DPPI   C1A 9151  14.258   6.000   8.773 -0.0831  0.1991 -0.2185
  577DPPI   C2A 9152  14.361   6.220   8.325  0.1474  0.2869 -0.3445
  577DPPI   C3A 9153  14.444   6.257   7.871  0.1412 -0.1544 -0.0313
  577DPPI   C4A 9154  14.336   6.189   7.348  0.1579  0.0778 -0.0246
  577DPPI   C1B 9155  13.449   6.281   8.788 -0.1580  0.0695  0.0536
  577DPPI   C2B 9156  13.285   6.067   8.420 -0.3026 -0.2124 -0.3159
  577DPPI   C3B 9157  13.510   5.932   8.031  0.1518  0.1596  0.2132
  577DPPI   C4B 9158  13.618   5.796   7.661 -0.0565  0.1913 -0.0034
  578DPPI    C1 9159   6.344   5.042   9.660 -0.1589  0.1438 -0.0413
  578DPPI    C2 9160   6.300   4.948  10.046 -0.1180  0.2378 -0.0136
  578DPPI    C3 9161   6.583   4.769   9.828  0.0540  0.3985  0.0749
  578DPPI   PO4 9162   6.053   5.050   9.577 -0.1790  0.1125 -0.0403
  578DPPI   GL1 9163   5.858   5.272   9.185 -0.0080 -0.1540 -0.0067
  578DPPI   GL2 9164   6.031   5.045   9.058 -0.0621  0.2344  0.0090
  578DPPI   C1A 9165   5.961   5.578   8.907  0.3195  0.1644 -0.2041
  578DPPI   C2A 9166   6.165   5.931   8.861  0.0537 -0.1616  0.0574
  578DPPI   C3A 9167   6.413   6.302   8.938  0.0851  0.5303 -0.0229
  578DPPI   C4A 9168   6.447   6.644   8.727 -0.0115  0.0353  0.3226
  578DPPI   C1B 9169   6.180   5.079   8.711 -0.2982  0.4161  0.0864
  578DPPI   C2B 9170   6.331   4.892   8.368  0.0284  0.5315  0.3377
  578DPPI   C3B 9171   6.339   4.609   8.020  0.3643 -0.0186  0.0728
  578DPPI   C4B 9172   6.610   4.271   7.758 -0.1050 -0.2130  0.3278
  579DPPI    C1 9173   4.971   4.375   9.851 -0.0170  0.0253  0.0273
  579DPPI    C2 9174   4.938   4.131  10.166  0.0714  0.1894  0.1661
  579DPPI    C3 9175   5.216   4.417  10.164  0.1438  0.1205 -0.1098
  579DPPI   PO4 9176   4.966   4.282   9.648 -0.1153 -0.0614 -0.1213
  579DPPI   GL1 9177   4.979   4.272   9.211 -0.1597  0.0242  0.2603
  579DPPI   GL2 9178   4.607   4.403   9.332 -0.3104 -0.2959  0.0240
  579DPPI   C1A 9179   5.064   4.101   8.748  0.1789 -0.2420  0.3643
  579DPPI   C2A 9180   5.101   4.156   8.276  0.1095 -0.0494  0.2337
  579DPPI   C3A 9181   5.097   4.075   7.897 -0.0024  0.0194  0.1860
  579DPPI   C4A 9182   5.316   4.316   7.492 -0.1357  0.1050  0.1701
  579DPPI   C1B 9183   4.707   4.434   8.819 -0.3898  0.1667 -0.0815
  579DPPI   C2B 9184   4.928   4.625   8.423 -0.2505  0.3781  0.0157
  579DPPI   C3B 9185   4.755   4.991   8.194  0.1999  0.1294  0.2998
  579DPPI   C4B 9186   4.850   5.333   7.976 -0.0607 -0.1932  0.1812
  580DPPI    C1 9187  10.286   7.275  10.004  0.0581 -0.0009 -0.3929
  580DPPI    C2 9188  10.564   7.494  10.190 -0.0761 -0.1790  0.0280
  580DPPI    C3 9189  10.188   7.629  10.163 -0.0237 -0.0834 -0.2586
  580DPPI   PO4 9190  10.277   7.277   9.707 -0.1608 -0.2520  0.0035
  580DPPI   GL1 9191  10.169   7.425   9.336  0.2444  0.1897 -0.3230
  580DPPI   GL2 9192  10.320   7.652   9.230  0.0088  0.0392  0.0271
  580DPPI   C1A 9193   9.942   7.295   8.982 -0.2251  0.2484 -0.1933
  580DPPI   C2A 9194   9.857   7.189   8.573  0.1964 -0.1883  0.2867
  580DPPI   C3A 9195   9.680   7.094   8.209  0.1250  0.0296  0.1069
  580DPPI   C4A 9196   9.221   6.938   8.044 -0.1246  0.0040  0.1196
  580DPPI   C1B 9197  10.443   7.428   8.934 -0.0771 -0.1779 -0.1851
  580DPPI   C2B 9198  10.439   7.344   8.495 -0.3415 -0.2745 -0.0717
  580DPPI   C3B 9199  10.380   7.265   8.213  0.1439  0.0749  0.1656
  580DPPI   C4B 9200  10.543   7.343   7.789 -0.2284 -0.0711  0.0564
  581DPPI    C1 9201   4.623   6.121   9.838 -0.0053  0.0776  0.0750
  581DPPI    C2 9202   4.378   5.926  10.087 -0.1589  0.1342 -0.0309
  581DPPI    C3 9203   4.613   6.218  10.227 -0.1216  0.0524  0.0784
  581DPPI   PO4 9204   4.484   6.207   9.664 -0.0083 -0.3413 -0.0511
  581DPPI   GL1 9205   4.567   6.179   9.252  0.1938 -0.0578 -0.2682
  581DPPI   GL2 9206   4.837   6.298   9.067 -0.0615  0.0944 -0.2412
  581DPPI   C1A 9207   4.584   5.966   8.849 -0.0804  0.2072  0.1981
  581DPPI   C2A 9208   4.852   5.722   8.587  0.2444  0.1000 -0.3071
  581DPPI   C3A 9209   5.114   5.372   8.359  0.0916 -0.0380 -0.2124
  581DPPI   C4A 9210   5.300   4.992   8.317 -0.0602  0.2608  0.1395
  581DPPI   C1B 9211   5.074   6.142   8.703 -0.1953 -0.1134 -0.1430
  581DPPI   C2B 9212   5.271   5.846   8.261 -0.1001 -0.1193  0.0214
  581DPPI   C3B 9213   5.479   5.502   8.055 -0.1076 -0.1405  0.0494
  581DPPI   C4B 9214   5.537   5.069   7.891  0.1113 -0.1708 -0.2497
  582DPPI    C1 9215   0.785   3.203   9.843 -0.3626 -0.1292  0.0827
  582DPPI    C2 9216   0.931   2.923  10.090  0.1633  0.0274 -0.0378
  582DPPI    C3 9217   0.857   3.292  10.226 -0.2171 -0.0743  0.0433
  582DPPI   PO4 9218   0.812   3.174   9.667 -0.0476  0.1038  0.1776
  582DPPI   GL1 9219   0.613   3.009   9.289  0.2410  0.1626  0.1733
  582DPPI   GL2 9220   0.451   2.743   9.252 -0.2521 -0.0001  0.0131
  582DPPI   C1A 9221   0.533   3.009   8.744  0.2058  0.1575 -0.3747
  582DPPI   C2A 9222   0.560   2.948   8.312 -0.0947 -0.0012  0.2181
  582DPPI   C3A 9223   0.466   2.541   8.139  0.0614 -0.1841  0.0109
  582DPPI   C4A 9224   0.370   2.429   7.678  0.0873  0.1199 -0.0100
  582DPPI   C1B 9225   0.214   2.652   8.812  0.5346  0.0918  0.1397
  582DPPI   C2B 9226   0.072   2.676   8.387  0.3423  0.0562  0.0218
  582DPPI   C3B 9227   0.083   2.938   8.041  0.1152  0.2848 -0.0741
  582DPPI   C4B 9228   0.242   3.045   7.676 -0.4503  0.1335 -0.0095
  583DPPI    C1 9229  18.873  15.417  10.036  0.1978 -0.1700  0.2759
  583DPPI    C2 9230  18.983  15.538  10.401  0.0352 -0.1066  0.3047
  583DPPI    C3 9231  18.802  15.185  10.354 -0.1768 -0.0018  0.3205
  583DPPI   PO4 9232  18.749  15.679  10.010  0.0685  0.2486  0.0754
  583DPPI   GL1 9233  18.624  15.981   9.723 -0.1566  0.2065  0.1332
  583DPPI   GL2 9234  18.835  16.088   9.606 -0.0180 -0.1882  0.0868
  583DPPI   C1A 9235  18.602  15.802   9.239  0.0346 -0.1504 -0.2795
  583DPPI   C2A 9236  18.722  15.826   8.790  0.4759  0.1638 -0.3371
  583DPPI   C3A 9237  18.866  15.982   8.413 -0.1130 -0.0400  0.2390
  583DPPI   C4A 9238  18.967  16.353   8.097 -0.2495 -0.0302  0.2999
  583DPPI   C1B 9239  18.922  16.251   9.260  0.1953 -0.0452 -0.2930
  583DPPI   C2B 9240  18.879  16.334   8.820 -0.0103  0.0382  0.2005
  583DPPI   C3B 9241  18.959  16.660   8.478  0.0246 -0.0640  0.2722
  583DPPI   C4B 9242  18.687  16.856   8.251  0.0827 -0.1297 -0.0493
  584DPPI    C1 9243   4.822   2.819   9.905  0.1658  0.2489  0.1259
  584DPPI    C2 9244   4.924   2.512  10.141 -0.1180  0.0628  0.0111
  584DPPI    C3 9245   5.094   2.870  10.194  0.0129 -0.0430  0.3264
  584DPPI   PO4 9246   4.581   2.851   9.862  0.0015  0.0410  0.4513
  584DPPI   GL1 9247   4.329   3.110   9.690 -0.0590 -0.1893  0.0213
  584DPPI   GL2 9248   4.110   3.218   9.409 -0.3162 -0.2760 -0.1519
  584DPPI   C1A 9249   4.422   2.867   9.239  0.0310 -0.1248  0.1311
  584DPPI   C2A 9250   4.398   2.763   8.769 -0.1255  0.1295 -0.1182
  584DPPI   C3A 9251   4.239   2.567   8.396  0.2121 -0.0572 -0.0029
  584DPPI   C4A 9252   4.208   2.549   8.001 -0.0615 -0.1062  0.0442
  584DPPI   C1B 9253   4.019   3.189   8.893  0.2332  0.3420 -0.0524
  584DPPI   C2B 9254   3.967   3.037   8.492  0.0671  0.3378  0.1075
  584DPPI   C3B 9255   3.945   3.092   8.040 -0.0496  0.0961  0.0239
  584DPPI   C4B 9256   3.629   3.155   7.776 -0.2921 -0.2452 -0.1948
  585DPPI    C1 9257  14.159   7.177   9.801  0.0537 -0.0749 -0.0321
  585DPPI    C2 9258  13.961   7.315  10.120  0.0222  0.1657 -0.1536
  585DPPI    C3 9259  14.356   7.251  10.141 -0.0060  0.0296 -0.0200
  585DPPI   PO4 9260  14.063   7.363   9.558 -0.4213 -0.0693 -0.0529
  585DPPI   GL1 9261  14.224   7.472   9.178 -0.0623  0.0944 -0.0707
  585DPPI   GL2 9262  14.340   7.280   9.121  0.0998 -0.0760  0.3416
  585DPPI   C1A 9263  14.323   7.644   8.811  0.0772  0.2449  0.2733
  585DPPI   C2A 9264  14.571   7.506   8.429  0.1804  0.0718  0.1290
  585DPPI   C3A 9265  14.859   7.479   8.112 -0.1890  0.4017  0.3974
  585DPPI   C4A 9266  15.059   7.472   7.649  0.0553  0.0796  0.0728
  585DPPI   C1B 9267  14.596   7.263   8.838  0.1385  0.2882  0.1484
  585DPPI   C2B 9268  14.624   6.897   8.597  0.1599 -0.0087  0.0012
  585DPPI   C3B 9269  14.314   6.670   8.274 -0.1618  0.0210 -0.2275
  585DPPI   C4B 9270  13.956   6.668   8.037 -0.0033  0.1565 -0.4321
  586DPPI    C1 9271  10.938   5.361   9.955 -0.0852  0.0819  0.0727
  586DPPI    C2 9272  11.154   5.140  10.209 -0.0526 -0.1778 -0.1765
  586DPPI    C3 9273  11.290   5.496  10.088  0.1907 -0.2945 -0.2524
  586DPPI   PO4 9274  10.887   5.169   9.705 -0.1097  0.2724 -0.1476
  586DPPI   GL1 9275  11.003   5.194   9.231 -0.0166 -0.2699  0.0293
  586DPPI   GL2 9276  11.287   5.356   9.208 -0.1312  0.0396 -0.0125
  586DPPI   C1A 9277  10.771   5.483   8.995  0.0620  0.2388  0.2314
  586DPPI   C2A 9278  10.655   5.497   8.513  0.2110 -0.0255  0.0726
  586DPPI   C3A 9279  10.620   5.552   7.988 -0.0043 -0.3894  0.1656
  586DPPI   C4A 9280  10.321   5.476   7.699 -0.0014  0.1753 -0.1928
  586DPPI   C1B 9281  11.105   5.220   8.755 -0.4421  0.0118 -0.1124
  586DPPI   C2B 9282  11.018   5.282   8.294  0.1629  0.2958  0.3137
  586DPPI   C3B 9283  11.094   5.339   7.917 -0.1700  0.1828 -0.3359
  586DPPI   C4B 9284  11.419   5.362   7.519 -0.1645  0.1842  0.1814
  587DPPI    C1 9285   5.199   1.511   9.794  0.1659  0.0359  0.0818
  587DPPI    C2 9286   5.091   1.557  10.176  0.0400  0.1108  0.0380
  587DPPI    C3 9287   5.477   1.511  10.081  0.0701  0.0742  0.1753
  587DPPI   PO4 9288   4.928   1.707   9.651  0.1051 -0.1930  0.2599
  587DPPI   GL1 9289   4.759   1.730   9.356 -0.3456  0.0028  0.0390
  587DPPI   GL2 9290   4.685   1.383   9.158 -0.0524  0.0342 -0.0306
  587DPPI   C1A 9291   4.858   1.826   8.990  0.2026  0.1373  0.2135
  587DPPI   C2A 9292   4.865   1.941   8.487  0.2144  0.3021 -0.1385
  587DPPI   C3A 9293   5.091   2.025   8.143 -0.2713 -0.0421 -0.2591
  587DPPI   C4A 9294   5.511   2.173   7.915  0.4017 -0.3422 -0.1776
  587DPPI   C1B 9295   4.573   1.193   8.779  0.1196  0.1429  0.0181
  587DPPI   C2B 9296   4.588   1.119   8.379  0.0317 -0.1134  0.3411
  587DPPI   C3B 9297   4.616   1.206   7.899  0.0285 -0.1400 -0.2713
  587DPPI   C4B 9298   4.372   1.341   7.511  0.0863  0.0641  0.1822
  588DPPI    C1 9299  11.251  14.736  10.211 -0.1533  0.0192  0.1083
  588DPPI    C2 9300  10.924  14.517  10.282 -0.1457  0.0505  0.2428
  588DPPI    C3 9301  11.198  14.565  10.569 -0.1095  0.1716  0.1886
  588DPPI   PO4 9302  11.090  14.898   9.993 -0.0041  0.2392 -0.0707
  588DPPI   GL1 9303  11.014  14.869   9.605 -0.0260 -0.1864  0.1134
  588DPPI   GL2 9304  10.987  14.660   9.413  0.1586  0.1278 -0.2956
  588DPPI   C1A 9305  11.365  14.984   9.338 -0.1795  0.3782  0.2008
  588DPPI   C2A 9306  11.410  14.986   8.828 -0.0508 -0.2209 -0.0746
  588DPPI   C3A 9307  11.480  15.043   8.391 -0.0055 -0.1872  0.1914
  588DPPI   C4A 9308  11.335  15.127   8.079 -0.2036 -0.2383  0.0189
  588DPPI   C1B 9309  10.880  15.005   9.053  0.0500 -0.1079 -0.0725
  588DPPI   C2B 9310  10.709  15.274   8.938 -0.2753  0.5790  0.1810
  588DPPI   C3B 9311  10.811  15.733   8.794  0.0043 -0.0338 -0.3213
  588DPPI   C4B 9312  10.976  15.988   8.516  0.2235  0.1926 -0.0079
  589DPPI    C1 9313  13.993   3.487  10.432  0.2336 -0.0531  0.1860
  589DPPI    C2 9314  13.791   3.807  10.303  0.0460 -0.1818  0.1576
  589DPPI    C3 9315  14.179   3.839  10.394 -0.0145  0.0964  0.3299
  589DPPI   PO4 9316  13.951   3.221  10.209 -0.0780 -0.0967  0.1111
  589DPPI   GL1 9317  14.297   2.907   9.885 -0.0317  0.1899  0.4011
  589DPPI   GL2 9318  14.197   3.119   9.628  0.0925 -0.1520 -0.1609
  589DPPI   C1A 9319  14.479   2.585   9.584 -0.1820  0.3339  0.0851
  589DPPI   C2A 9320  14.552   2.586   9.274 -0.0727  0.3047  0.1957
  589DPPI   C3A 9321  14.674   2.701   8.827 -0.0338 -0.0454  0.2167
  589DPPI   C4A 9322  14.746   2.837   8.352  0.1777  0.0677 -0.4246
  589DPPI   C1B 9323  14.190   3.018   9.231 -0.0372 -0.1916 -0.4046
  589DPPI   C2B 9324  14.237   2.857   8.721  0.1417  0.0462  0.0319
  589DPPI   C3B 9325  14.242   2.761   8.296 -0.1931  0.1756 -0.1769
  589DPPI   C4B 9326  14.123   2.672   7.878 -0.0429 -0.2002  0.2087
  590DPPI    C1 9327  10.140   9.358   9.547  0.0389  0.0337  0.0121
  590DPPI    C2 9328  10.150   9.261   9.935 -0.1890 -0.1626 -0.0283
  590DPPI    C3 9329   9.868   9.510   9.799 -0.1216 -0.1099 -0.0722
  590DPPI   PO4 9330  10.206   9.153   9.393 -0.1292 -0.0170  0.0266
  590DPPI   GL1 9331  10.490   9.177   9.014 -0.0667  0.0695  0.1036
  590DPPI   GL2 9332  10.793   9.089   8.912 -0.4820  0.0970  0.5971
  590DPPI   C1A 9333  10.445   9.147   8.594 -0.1137  0.0295  0.1359
  590DPPI   C2A 9334  10.605   9.169   8.157  0.2576 -0.1526 -0.2025
  590DPPI   C3A 9335  10.952   9.186   7.883  0.0796 -0.1157  0.1576
  590DPPI   C4A 9336  11.208   9.331   7.544  0.1206  0.0122 -0.0102
  590DPPI   C1B 9337  10.882   9.409   8.568  0.1327  0.0238 -0.0558
  590DPPI   C2B 9338  10.935   9.578   8.229 -0.0001 -0.0812  0.1488
  590DPPI   C3B 9339  10.857   9.787   7.878  0.1122 -0.0896 -0.4172
  590DPPI   C4B 9340  10.944   9.746   7.517  0.1016  0.1776 -0.4232
  591DPPI    C1 9341   7.973   0.734   9.944 -0.2560  0.0638  0.0345
  591DPPI    C2 9342   7.875   0.368   9.818  0.2235 -0.1956  0.3828
  591DPPI    C3 9343   7.607   0.589  10.015 -0.1858 -0.2055 -0.1406
  591DPPI   PO4 9344   8.165   0.860   9.724  0.3658  0.1349  0.2220
  591DPPI   GL1 9345   8.195   0.638   9.335 -0.4780  0.1407 -0.0091
  591DPPI   GL2 9346   8.106   0.989   9.192 -0.1486 -0.0014 -0.0370
  591DPPI   C1A 9347   8.321   0.502   8.881  0.1340 -0.0588 -0.1991
  591DPPI   C2A 9348   8.162   0.550   8.480  0.0275  0.0444 -0.1890
  591DPPI   C3A 9349   7.825   0.504   8.203  0.0325  0.1945 -0.1959
  591DPPI   C4A 9350   7.673   0.246   7.857 -0.0593  0.1797  0.1602
  591DPPI   C1B 9351   8.353   0.983   8.794 -0.1317 -0.0311 -0.0600
  591DPPI   C2B 9352   8.458   0.948   8.362  0.3154 -0.2201  0.4620
  591DPPI   C3B 9353   8.472   0.660   8.049 -0.1467  0.1850  0.3782
  591DPPI   C4B 9354   8.181   0.320   7.986  0.1614  0.0895 -0.3282
  592DPPI    C1 9355   3.001  10.381  10.129 -0.1354  0.0945 -0.0097
  592DPPI    C2 9356   2.973  10.693  10.379  0.1068  0.0023  0.1363
  592DPPI    C3 9357   2.654  10.461  10.311 -0.0735  0.2755  0.0315
  592DPPI   PO4 9358   3.187  10.470   9.907  0.0348  0.0488  0.1366
  592DPPI   GL1 9359   3.085  10.713   9.555 -0.0805 -0.0315 -0.0195
  592DPPI   GL2 9360   3.415  10.744   9.380 -0.1081 -0.0328  0.2950
  592DPPI   C1A 9361   3.059  11.032   9.130  0.3436  0.0610  0.2134
  592DPPI   C2A 9362   3.096  11.389   8.937  0.1852  0.0586  0.0476
  592DPPI   C3A 9363   3.126  11.511   8.541  0.5103 -0.1147 -0.0465
  592DPPI   C4A 9364   3.167  11.397   8.105 -0.2185  0.3959 -0.4217
  592DPPI   C1B 9365   3.465  10.753   8.980 -0.2088  0.2075 -0.0992
  592DPPI   C2B 9366   3.481  10.626   8.591 -0.1047  0.0299 -0.2887
  592DPPI   C3B 9367   3.275  10.567   8.197  0.1357 -0.3071 -0.1378
  592DPPI   C4B 9368   3.104  10.804   7.973  0.1530  0.0500  0.0038
  593DPPI    C1 9369   8.108   7.764   9.786  0.3052 -0.3747  0.1094
  593DPPI    C2 9370   8.098   8.087  10.021  0.0644 -0.1510 -0.1985
  593DPPI    C3 9371   8.432   7.869   9.994  0.1667 -0.0460  0.1652
  593DPPI   PO4 9372   8.013   7.773   9.529 -0.0542  0.0552  0.0826
  593DPPI   GL1 9373   7.959   7.923   9.170  0.0630 -0.0901  0.0713
  593DPPI   GL2 9374   7.949   7.642   9.051 -0.0085  0.2341  0.3426
  593DPPI   C1A 9375   8.148   8.051   8.826 -0.0689 -0.0792 -0.0948
  593DPPI   C2A 9376   8.035   7.967   8.332 -0.3706  0.2487  0.0092
  593DPPI   C3A 9377   7.892   7.984   7.925 -0.0963  0.2452 -0.2999
  593DPPI   C4A 9378   7.657   7.676   7.685  0.0919  0.2755  0.1769
  593DPPI   C1B 9379   7.851   7.602   8.657  0.2577  0.0253  0.1762
  593DPPI   C2B 9380   7.734   7.645   8.222  0.2730 -0.1231  0.0152
  593DPPI   C3B 9381   7.583   7.348   8.092 -0.0649  0.2139 -0.0204
  593DPPI   C4B 9382   7.322   7.248   7.705  0.4086  0.1290  0.0977
  594PYPI    C1 9383   8.082  18.217  10.331  0.0802  0.1298  0.0692
  594PYPI    C2 9384   8.170  18.495  10.605  0.0726  0.1796  0.0214
  594PYPI    C3 9385   7.788  18.419  10.512  0.0702  0.0752  0.1144
  594PYPI   PO4 9386   8.135  18.325  10.070 -0.0635 -0.1843  0.1311
  594PYPI   GL1 9387   8.162  18.250   9.667 -0.1333  0.0333 -0.1071
  594PYPI   GL2 9388   8.368  18.367   9.413  0.2369  0.1612 -0.3332
  594PYPI   C1A 9389   7.796  18.135   9.404  0.0264 -0.0727  0.0265
  594PYPI   C2A 9390   7.465  18.075   9.216 -0.1277  0.0377  0.2756
  594PYPI   D3A 9391   7.177  18.168   8.856 -0.0495  0.1032  0.0886
  594PYPI   C4A 9392   7.327  18.251   8.383 -0.0851  0.0941 -0.3654
  594PYPI   C1B 9393   8.092  18.383   9.062 -0.0979  0.0331 -0.0672
  594PYPI   C2B 9394   8.100  18.210   8.670 -0.3358 -0.1271  0.0920
  594PYPI   C3B 9395   8.193  18.425   8.182  0.2653 -0.0983 -0.0001
  594PYPI   C4B 9396   7.999  18.535   7.877 -0.1415 -0.0228 -0.1106
  595PYPI    C1 9397   5.668   4.442   9.942  0.1611 -0.1394  0.1917
  595PYPI    C2 9398   5.807   4.818   9.950 -0.1875 -0.0023  0.0206
  595PYPI    C3 9399   5.654   4.654  10.281  0.0983 -0.0483  0.1328
  595PYPI   PO4 9400   5.470   4.399   9.737  0.2040 -0.0560  0.0885
  595PYPI   GL1 9401   5.525   4.369   9.176 -0.1427  0.0113 -0.0057
  595PYPI   GL2 9402   5.796   4.267   9.328 -0.0299  0.0702  0.4027
  595PYPI   C1A 9403   5.600   4.246   8.816 -0.2235  0.3164 -0.1671
  595PYPI   C2A 9404   5.512   3.948   8.439  0.2095  0.1903  0.2058
  595PYPI   D3A 9405   5.326   3.744   8.161 -0.2130 -0.1660  0.2928
  595PYPI   C4A 9406   5.216   3.495   8.130  0.0238 -0.2280  0.0498
  595PYPI   C1B 9407   6.093   4.067   9.035 -0.0075  0.0639  0.0346
  595PYPI   C2B 9408   6.029   4.045   8.625  0.0133  0.3831  0.1736
  595PYPI   C3B 9409   5.923   4.213   8.260  0.0394  0.1465  0.0283
  595PYPI   C4B 9410   5.625   4.067   7.946  0.3410 -0.2697 -0.2805
  596PYPI    C1 9411   4.245   8.138  10.189  0.0738  0.1478  0.2028
  596PYPI    C2 9412   4.263   7.930  10.531 -0.2890  0.0317  0.1551
  596PYPI    C3 9413   4.495   8.252  10.481 -0.0713 -0.0794  0.4204
  596PYPI   PO4 9414   3.990   8.121  10.083  0.1712 -0.0194 -0.2239
  596PYPI   GL1 9415   3.784   8.024   9.703  0.2467 -0.2818  0.2924
  596PYPI   GL2 9416   3.772   8.323   9.580  0.0285 -0.0842  0.3535
  596PYPI   C1A 9417   3.958   7.871   9.351  0.0201  0.0234 -0.3261
  596PYPI   C2A 9418   4.232   7.618   8.977 -0.0592 -0.1016  0.0721
  596PYPI   D3A 9419   4.396   7.521   8.593 -0.1692 -0.1908  0.2060
  596PYPI   C4A 9420   4.359   7.929   8.405 -0.1548  0.0367  0.0237
  596PYPI   C1B 9421   3.637   8.457   9.233 -0.0569  0.2261  0.1130
  596PYPI   C2B 9422   3.752   8.506   8.843  0.3184 -0.1148 -0.1594
  596PYPI   C3B 9423   3.588   8.296   8.528 -0.0340  0.3983  0.1279
  596PYPI   C4B 9424   3.693   8.079   8.134 -0.2054 -0.3382 -0.0294
  597PYPI    C1 9425   5.085  10.817   9.794 -0.0448 -0.4191 -0.2727
  597PYPI    C2 9426   5.009  10.498  10.024 -0.2063 -0.1418  0.0692
  597PYPI    C3 9427   5.077  10.855  10.193  0.2302 -0.0419 -0.2975
  597PYPI   PO4 9428   4.890  10.888   9.549  0.2616 -0.1442 -0.1875
  597PYPI   GL1 9429   4.730  10.570   9.260 -0.2399  0.1260 -0.0519
  597PYPI   GL2 9430   4.503  10.620   9.181 -0.1186  0.1439 -0.0287
  597PYPI   C1A 9431   4.989  10.385   8.928  0.0045  0.2188 -0.2700
  597PYPI   C2A 9432   5.175  10.497   8.602 -0.3876 -0.2200  0.0075
  597PYPI   D3A 9433   5.545  10.734   8.460  0.3337 -0.0088  0.0055
  597PYPI   C4A 9434   5.973  10.723   8.651  0.0518 -0.0082  0.0083
  597PYPI   C1B 9435   4.606  10.770   8.758  0.1689 -0.0118  0.0085
  597PYPI   C2B 9436   4.724  10.692   8.360  0.1567  0.2852 -0.2223
  597PYPI   C3B 9437   5.116  10.566   8.066  0.2041 -0.2025 -0.1292
  597PYPI   C4B 9438   5.512  10.551   7.893  0.2577 -0.1298 -0.2163
  598PYPI    C1 9439   0.978  12.587  10.420 -0.0469 -0.0693  0.1841
  598PYPI    C2 9440   1.205  12.915  10.441  0.1008 -0.1501 -0.1030
  598PYPI    C3 9441   1.029  12.773  10.771  0.0719  0.1894  0.0324
  598PYPI   PO4 9442   1.022  12.413  10.182 -0.0054  0.3167 -0.3376
  598PYPI   GL1 9443   0.972  12.351   9.742 -0.0302 -0.2796 -0.2496
  598PYPI   GL2 9444   1.082  12.058   9.731 -0.1463  0.0545  0.0193
  598PYPI   C1A 9445   0.978  12.535   9.394  0.0999  0.0268  0.1103
  598PYPI   C2A 9446   1.032  12.619   8.981 -0.0553 -0.0719 -0.1691
  598PYPI   D3A 9447   1.353  12.658   8.607 -0.2311 -0.2440  0.3134
  598PYPI   C4A 9448   1.251  13.131   8.448 -0.0199  0.0017 -0.1072
  598PYPI   C1B 9449   1.311  12.194   9.325  0.0098 -0.1790 -0.0229
  598PYPI   C2B 9450   1.336  12.237   8.898  0.2984 -0.3862  0.1082
  598PYPI   C3B 9451   1.272  12.304   8.301  0.0299  0.0265  0.1113
  598PYPI   C4B 9452   1.294  12.104   7.811  0.1520 -0.0385  0.1977
  599PYPI    C1 9453  16.800   5.095   9.845  0.1007 -0.1753  0.1489
  599PYPI    C2 9454  16.862   5.404  10.092  0.1429 -0.1559  0.1143
  599PYPI    C3 9455  16.502   5.349   9.927  0.1584 -0.0757  0.0529
  599PYPI   PO4 9456  16.970   5.106   9.655 -0.1372  0.4996 -0.2150
  599PYPI   GL1 9457  16.924   5.426   9.362 -0.2826  0.2282 -0.0439
  599PYPI   GL2 9458  16.718   5.618   9.523 -0.2021  0.1645 -0.1775
  599PYPI   C1A 9459  17.069   5.401   8.948 -0.0969 -0.0713  0.1706
  599PYPI   C2A 9460  17.354   5.334   8.596 -0.2333  0.2358  0.0747
  599PYPI   D3A 9461  17.354   5.258   8.225  0.0758  0.3046  0.1156
  599PYPI   C4A 9462  17.653   5.169   7.976  0.1210  0.2265 -0.4108
  599PYPI   C1B 9463  16.446   5.525   9.115  0.1185  0.2263  0.1938
  599PYPI   C2B 9464  16.129   5.700   8.875 -0.1829  0.2326 -0.0640
  599PYPI   C3B 9465  16.124   5.705   8.454 -0.0765 -0.1017 -0.3075
  599PYPI   C4B 9466  16.034   5.878   8.039  0.2966  0.0540  0.1161
  600PYPI    C1 9467  16.967  18.630  10.362 -0.0697 -0.2148 -0.1276
  600PYPI    C2 9468  17.234  18.588  10.657  0.0266 -0.1810 -0.2097
  600PYPI    C3 9469  16.879  18.756  10.732  0.0487 -0.1776 -0.1118
  600PYPI   PO4 9470  17.115  18.763  10.140  0.0394  0.0860  0.3720
  600PYPI   GL1 9471  16.962  18.756   9.729 -0.3899 -0.1614 -0.1663
  600PYPI   GL2 9472  16.781  18.558   9.517 -0.0975 -0.1607 -0.1439
  600PYPI   C1A 9473  17.137  18.864   9.389  0.1742 -0.2301  0.0720
  600PYPI   C2A 9474  17.154  19.017   8.947  0.2986  0.4031  0.1213
  600PYPI   D3A 9475  17.055  19.129   8.511 -0.5377 -0.1487  0.1962
  600PYPI   C4A 9476  16.884  18.818   8.342 -0.1224  0.0103  0.1570
  600PYPI   C1B 9477  16.916  18.280   9.221 -0.0550  0.1760  0.0304
  600PYPI   C2B 9478  16.868  18.049   8.809 -0.0386  0.0281 -0.1340
  600PYPI   C3B 9479  16.902  17.773   8.535 -0.5308 -0.0184 -0.0791
  600PYPI   C4B 9480  16.863  17.351   8.453  0.3993  0.2672 -0.0429
  601PYPI    C1 9481  11.487   6.755   9.598 -0.0073  0.0166 -0.1833
  601PYPI    C2 9482  11.176   6.513   9.669 -0.0820  0.2352  0.2683
  601PYPI    C3 9483  11.219   6.852   9.878  0.3461  0.3162  0.0613
  601PYPI   PO4 9484  11.516   6.763   9.371 -0.1866 -0.1475  0.0536
  601PYPI   GL1 9485  11.669   6.650   9.002  0.0852 -0.1781 -0.1169
  601PYPI   GL2 9486  11.768   6.958   8.797 -0.1653 -0.0393 -0.3077
  601PYPI   C1A 9487  11.906   6.498   8.621  0.3133  0.1136 -0.2161
  601PYPI   C2A 9488  11.870   5.970   8.394 -0.0370 -0.0866 -0.0593
  601PYPI   D3A 9489  11.903   5.853   7.988 -0.2313  0.0397  0.0686
  601PYPI   C4A 9490  12.016   6.107   7.672 -0.3338 -0.1600 -0.0070
  601PYPI   C1B 9491  11.808   6.937   8.402 -0.2633 -0.1851  0.0289
  601PYPI   C2B 9492  11.899   6.970   7.985 -0.2060 -0.0076 -0.1401
  601PYPI   C3B 9493  11.861   7.066   7.584  0.2441  0.0898 -0.1484
  601PYPI   C4B 9494  11.759   6.976   7.242 -0.0132 -0.0370 -0.0009
  602PYPI    C1 9495   7.489   2.115   9.595  0.0586  0.0565 -0.0330
  602PYPI    C2 9496   7.334   2.078   9.962 -0.3006  0.2038 -0.1651
  602PYPI    C3 9497   7.594   2.372   9.883 -0.2562  0.1986 -0.0412
  602PYPI   PO4 9498   7.236   2.245   9.430 -0.1724  0.0582 -0.3608
  602PYPI   GL1 9499   7.001   2.313   9.054  0.3963 -0.1598  0.3088
  602PYPI   GL2 9500   7.140   2.023   9.013 -0.1745 -0.0317 -0.0019
  602PYPI   C1A 9501   6.882   2.339   8.611  0.0304  0.2228 -0.1289
  602PYPI   C2A 9502   6.611   2.442   8.366 -0.0360 -0.3235 -0.1131
  602PYPI   D3A 9503   6.334   2.208   8.160 -0.2912  0.2170  0.2983
  602PYPI   C4A 9504   6.251   1.881   8.260 -0.1599 -0.0971  0.1012
  602PYPI   C1B 9505   7.334   2.119   8.556 -0.4818  0.3660 -0.0533
  602PYPI   C2B 9506   7.124   2.201   8.174  0.2323  0.2849  0.1183
  602PYPI   C3B 9507   6.773   2.247   7.944  0.0515  0.1549 -0.1804
  602PYPI   C4B 9508   6.554   1.956   7.724 -0.2592  0.1621 -0.1134
  603PYPI    C1 9509   8.039  13.318   9.845  0.2714  0.0565  0.0340
  603PYPI    C2 9510   7.849  13.654   9.949  0.4029  0.2012 -0.1871
  603PYPI    C3 9511   8.096  13.477  10.208  0.2527  0.2154 -0.0321
  603PYPI   PO4 9512   8.074  13.369   9.603 -0.0704  0.1721 -0.1014
  603PYPI   GL1 9513   8.146  13.300   9.209  0.0455  0.0133  0.1946
  603PYPI   GL2 9514   8.335  13.066   9.239  0.1780  0.0905 -0.1844
  603PYPI   C1A 9515   7.893  13.496   8.899  0.0560  0.1097  0.1539
  603PYPI   C2A 9516   7.535  13.539   8.830  0.0464 -0.2263 -0.0257
  603PYPI   D3A 9517   7.256  13.852   8.572  0.2565  0.1409  0.1425
  603PYPI   C4A 9518   6.875  13.820   8.295 -0.2673  0.2097 -0.2138
  603PYPI   C1B 9519   8.587  12.831   8.791 -0.2790  0.2869 -0.1546
  603PYPI   C2B 9520   8.656  12.973   8.258 -0.2309  0.2637  0.1456
  603PYPI   C3B 9521   9.072  12.960   8.037 -0.2467 -0.1313  0.1725
  603PYPI   C4B 9522   9.349  12.961   7.724 -0.4784 -0.1345  0.4612
  604PYPI    C1 9523   0.508   5.568   9.717 -0.1975 -0.1861  0.0039
  604PYPI    C2 9524   0.711   5.841   9.928 -0.1604  0.0197 -0.2925
  604PYPI    C3 9525   0.417   5.633  10.101  0.1315 -0.0996  0.0701
  604PYPI   PO4 9526   0.345   5.635   9.511  0.2837 -0.1789  0.0716
  604PYPI   GL1 9527   0.402   5.981   9.332  0.0075 -0.2498  0.0019
  604PYPI   GL2 9528   0.680   6.143   9.517 -0.0850  0.3574 -0.0188
  604PYPI   C1A 9529   0.661   5.919   8.924  0.0145  0.2775  0.0884
  604PYPI   C2A 9530   0.763   5.739   8.536 -0.0738  0.0326  0.3147
  604PYPI   D3A 9531   0.889   5.729   8.122  0.1116  0.2104 -0.1455
  604PYPI   C4A 9532   0.476   5.906   7.937 -0.0242  0.0341  0.0935
  604PYPI   C1B 9533   0.925   6.306   9.159 -0.0583 -0.4222  0.1182
  604PYPI   C2B 9534   0.903   6.363   8.760  0.1154  0.1060 -0.0352
  604PYPI   C3B 9535   0.901   6.559   8.278 -0.3213  0.5594 -0.2485
  604PYPI   C4B 9536   0.858   6.713   7.758  0.1039  0.1546 -0.1511
  605PYPI    C1 9537   7.257  13.178  10.226  0.1924 -0.0249 -0.0264
  605PYPI    C2 9538   7.448  13.529  10.247  0.0115  0.0795 -0.1079
  605PYPI    C3 9539   7.657  13.189  10.230  0.1873  0.1694  0.1794
  605PYPI   PO4 9540   7.121  13.208  10.010  0.2208 -0.1478 -0.1620
  605PYPI   GL1 9541   7.074  13.326   9.498  0.1619  0.1801 -0.3830
  605PYPI   GL2 9542   7.429  13.459   9.343  0.1993  0.0762  0.0774
  605PYPI   C1A 9543   6.968  13.305   9.094  0.0503 -0.1766 -0.2830
  605PYPI   C2A 9544   7.070  13.217   8.739  0.2279 -0.1750 -0.1433
  605PYPI   D3A 9545   7.122  13.412   8.405 -0.1379 -0.1439 -0.1822
  605PYPI   C4A 9546   6.718  13.308   8.318  0.1920  0.0278  0.0921
  605PYPI   C1B 9547   7.167  13.735   9.073 -0.2215 -0.1022  0.2106
  605PYPI   C2B 9548   6.847  13.682   8.763 -0.2129  0.2009 -0.4583
  605PYPI   C3B 9549   6.495  13.718   8.634  0.2515  0.2632 -0.0800
  605PYPI   C4B 9550   6.321  13.630   8.237  0.0659 -0.1079 -0.0439
  606PYPI    C1 9551  15.178   6.482  10.093 -0.0552 -0.2437  0.2548
  606PYPI    C2 9552  15.157   6.880  10.127 -0.0265 -0.2193  0.0108
  606PYPI    C3 9553  15.460   6.681  10.295  0.2368 -0.0811 -0.2911
  606PYPI   PO4 9554  15.227   6.417   9.786  0.0943 -0.1267  0.1539
  606PYPI   GL1 9555  15.137   6.420   9.314 -0.1739  0.2698 -0.1071
  606PYPI   GL2 9556  14.852   6.327   9.391  0.3197 -0.0463 -0.1810
  606PYPI   C1A 9557  15.154   6.236   8.832 -0.1427 -0.0466  0.0728
  606PYPI   C2A 9558  15.358   6.250   8.490  0.2163  0.1675 -0.0594
  606PYPI   D3A 9559  15.419   6.152   8.026 -0.0445 -0.2374  0.0652
  606PYPI   C4A 9560  15.390   6.370   7.647  0.2551 -0.0024  0.3654
  606PYPI   C1B 9561  14.656   6.307   9.076 -0.0626  0.1376  0.2325
  606PYPI   C2B 9562  14.684   6.380   8.697 -0.1767  0.1787 -0.0232
  606PYPI   C3B 9563  14.892   6.305   8.378 -0.2097  0.0617 -0.0124
  606PYPI   C4B 9564  14.816   6.508   8.027  0.2023 -0.0056 -0.0375
  607ERGO   ROH 9565   9.216  14.053   9.063  0.0404 -0.0539 -0.0704
  607ERGO    R1 9566   9.173  14.232   8.848 -0.0891 -0.0616 -0.0506
  607ERGO    R2 9567   9.358  14.269   8.646 -0.1235  0.0837 -0.0498
  607ERGO    R3 9568   9.147  14.208   8.485 -0.0868 -0.0401 -0.0537
  607ERGO    R4 9569   9.317  14.381   8.322 -0.0041 -0.2160 -0.1732
  607ERGO    R5 9570   9.105  14.410   8.363 -0.0179 -0.1431 -0.2598
  607ERGO    C1 9571   9.096  14.390   7.982  0.1000 -0.5069 -0.2488
  607ERGO    C2 9572   9.173  14.486   7.592 -0.1458  0.0337  0.2836
  608ERGO   ROH 9573  13.942  18.670   9.511 -0.1991 -0.1068 -0.0016
  608ERGO    R1 9574  13.955  18.498   9.287 -0.2110 -0.1371  0.0190
  608ERGO    R2 9575  13.747  18.475   9.105 -0.1456 -0.0079 -0.0846
  608ERGO    R3 9576  13.942  18.535   8.925 -0.0114 -0.1547  0.0107
  608ERGO    R4 9577  13.701  18.496   8.763  0.0259  0.1246 -0.0998
  608ERGO    R5 9578  13.893  18.397   8.735 -0.0641 -0.0550 -0.0427
  608ERGO    C1 9579  13.856  18.565   8.395  0.2518  0.0643 -0.0192
  608ERGO    C2 9580  13.871  18.740   7.956  0.2306  0.1925  0.0135
  609ERGO   ROH 9581   7.366   2.649   9.055  0.0216 -0.3190  0.0286
  609ERGO    R1 9582   7.206   2.719   8.832 -0.0248 -0.0788  0.1345
  609ERGO    R2 9583   7.292   2.896   8.638  0.0774 -0.1385  0.1237
  609ERGO    R3 9584   7.230   2.691   8.470 -0.2668 -0.0327  0.1135
  609ERGO    R4 9585   7.311   2.910   8.293  0.1897 -0.1808  0.1279
  609ERGO    R5 9586   7.125   2.797   8.283 -0.0256  0.1637  0.0852
  609ERGO    C1 9587   7.264   2.727   7.935 -0.0681 -0.1061  0.1208
  609ERGO    C2 9588   7.231   2.830   7.671  0.1036 -0.0406  0.2314
  610ERGO   ROH 9589  13.922   7.141   8.938 -0.0100 -0.1358  0.1627
  610ERGO    R1 9590  13.977   7.246   8.681 -0.0841 -0.0696  0.1749
  610ERGO    R2 9591  14.203   7.178   8.537 -0.1462 -0.0576  0.0811
  610ERGO    R3 9592  14.022   7.114   8.345 -0.2163  0.0237  0.1177
  610ERGO    R4 9593  14.273   7.152   8.200 -0.1860 -0.2209  0.0838
  610ERGO    R5 9594  14.082   7.249   8.158 -0.1185 -0.0795  0.0684
  610ERGO    C1 9595  14.143   7.076   7.823 -0.2751 -0.2396  0.1198
  610ERGO    C2 9596  14.100   7.001   7.550  0.1993 -0.1388  0.3403
  611ERGO   ROH 9597   3.264   6.461   9.069 -0.0137  0.0048 -0.0440
  611ERGO    R1 9598   3.363   6.415   8.808  0.1218  0.1011 -0.0107
  611ERGO    R2 9599   3.203   6.323   8.602  0.2947 -0.1254 -0.0491
  611ERGO    R3 9600   3.297   6.544   8.474  0.0542 -0.0162 -0.0427
  611ERGO    R4 9601   3.127   6.409   8.276  0.1535 -0.1637 -0.0267
  611ERGO    R5 9602   3.335   6.470   8.249  0.0894  0.0461 -0.0565
  611ERGO    C1 9603   3.171   6.666   7.966 -0.1546 -0.0834 -0.0075
  611ERGO    C2 9604   2.876   6.730   7.650  0.1148 -0.0165  0.0673
  612ERGO   ROH 9605   3.617  14.719   9.354  0.2108  0.0918  0.2327
  612ERGO    R1 9606   3.794  14.881   9.203 -0.2668  0.1832 -0.2533
  612ERGO    R2 9607   4.058  14.811   9.159  0.0232  0.9385  0.2371
  612ERGO    R3 9608   3.989  14.845   8.898  0.0717 -0.2930 -0.0036
  612ERGO    R4 9609   4.283  14.853   8.900  0.1491  1.1506  0.3730
  612ERGO    R5 9610   4.149  15.003   8.815 -0.5731  0.2748 -0.3222
  612ERGO    C1 9611   4.349  14.910   8.504  0.2679  0.1180  0.2261
  612ERGO    C2 9612   4.623  15.095   8.376 -0.0861  0.0919  0.0057
  613ERGO   ROH 9613  19.132   5.861   9.328 -0.0598 -0.2577 -0.0463
  613ERGO    R1 9614  19.194   5.972   9.075  0.2134 -0.2384  0.0266
  613ERGO    R2 9615  19.377   5.857   8.902 -0.0339 -0.5574 -0.0319
  613ERGO    R3 9616  19.169   5.869   8.727 -0.0081  0.0296 -0.0402
  613ERGO    R4 9617  19.408   5.878   8.559  0.0264 -0.2587 -0.0101
  613ERGO    R5 9618  19.243   6.020   8.557  0.2968  0.0701  0.1226
  613ERGO    C1 9619  19.232   5.902   8.195  0.0858  0.4664 -0.0052
  613ERGO    C2 9620  19.204   5.971   7.896 -0.0688  0.2649  0.1502
  614ERGO   ROH 9621   0.799   7.836   9.473 -0.0101 -0.2606 -0.1178
  614ERGO    R1 9622   0.857   7.720   9.221 -0.4031 -0.1174 -0.2796
  614ERGO    R2 9623   0.716   7.784   8.991 -0.2165  0.6818 -0.1894
  614ERGO    R3 9624   0.963   7.840   8.894 -0.0088 -0.0047 -0.1204
  614ERGO    R4 9625   0.809   7.755   8.660 -0.3228  0.7123 -0.2246
  614ERGO    R5 9626   1.000   7.674   8.725 -0.5504  0.0173 -0.2942
  614ERGO    C1 9627   1.096   7.791   8.375 -0.1898  0.0856 -0.1804
  614ERGO    C2 9628   1.103   7.889   8.154 -0.1089  0.0599  0.1690
  615ERGO   ROH 9629  18.239  10.162   9.309  0.2328 -0.0126 -0.1326
  615ERGO    R1 9630  18.199  10.056   9.050 -0.0704 -0.2025 -0.0138
  615ERGO    R2 9631  17.963   9.934   8.974 -0.3251  0.1215  0.2165
  615ERGO    R3 9632  17.973  10.115   8.772 -0.1019 -0.0827  0.0390
  615ERGO    R4 9633  17.735   9.953   8.715 -0.2117  0.0682  0.1122
  615ERGO    R5 9634  17.901   9.993   8.579 -0.1329 -0.2048  0.1320
  615ERGO    C1 9635  17.612  10.134   8.374  0.0637 -0.1546 -0.1153
  615ERGO    C2 9636  17.403  10.337   8.292  0.0939  0.1962 -0.1583
  616ERGO   ROH 9637  10.227   4.197   9.198  0.0825 -0.1575  0.0941
  616ERGO    R1 9638  10.197   4.215   8.917 -0.0426 -0.0691  0.1115
  616ERGO    R2 9639  10.404   4.162   8.742 -0.0577  0.1950  0.0063
  616ERGO    R3 9640  10.225   3.989   8.633  0.0606  0.0713  0.0086
  616ERGO    R4 9641  10.405   4.058   8.412  0.0091  0.1976  0.0063
  616ERGO    R5 9642  10.187   4.073   8.412 -0.0013  0.0465  0.0102
  616ERGO    C1 9643  10.237   3.835   8.119  0.1590  0.0831  0.0085
  616ERGO    C2 9644  10.243   3.775   7.763 -0.0005  0.0093 -0.1574
  617ERGO   ROH 9645   7.233   6.807   9.015  0.0457 -0.2223  0.1267
  617ERGO    R1 9646   7.206   6.690   8.759 -0.0034 -0.1477  0.0971
  617ERGO    R2 9647   6.972   6.704   8.613  0.0149  0.0280  0.0781
  617ERGO    R3 9648   7.136   6.806   8.421  0.0959 -0.0252  0.1188
  617ERGO    R4 9649   6.894   6.723   8.277  0.0093  0.2891  0.0922
  617ERGO    R5 9650   7.099   6.665   8.231 -0.0539  0.1165  0.0440
  617ERGO    C1 9651   7.003   6.830   7.901  0.0822  0.3912  0.1388
  617ERGO    C2 9652   6.844   6.993   7.609  0.0297 -0.1151  0.0880
  618ERGO   ROH 9653   5.486   4.934   9.078 -0.0153 -0.2280  0.0024
  618ERGO    R1 9654   5.494   5.008   8.805 -0.0093 -0.1254  0.0299
  618ERGO    R2 9655   5.585   5.255   8.721 -0.0083 -0.0918  0.1238
  618ERGO    R3 9656   5.750   5.106   8.565 -0.0039 -0.0339  0.0732
  618ERGO    R4 9657   5.821   5.383   8.503  0.0247 -0.0135  0.2048
  618ERGO    R5 9658   5.766   5.228   8.360  0.0279  0.0561  0.1299
  618ERGO    C1 9659   6.113   5.317   8.229  0.0480  0.0864  0.2044
  618ERGO    C2 9660   6.398   5.467   7.978 -0.0529 -0.1998  0.1218
  619ERGO   ROH 9661   0.256  15.911   9.437  0.1884  0.1293  0.1273
  619ERGO    R1 9662   0.323  16.016   9.183  0.1467  0.0688  0.0927
  619ERGO    R2 9663   0.584  16.050   9.099  0.1273 -0.2120 -0.0627
  619ERGO    R3 9664   0.502  15.901   8.887 -0.1577 -0.1085 -0.0307
  619ERGO    R4 9665   0.729  16.055   8.786 -0.0879 -0.2621 -0.1661
  619ERGO    R5 9666   0.530  16.045   8.698 -0.1749 -0.0818 -0.0237
  619ERGO    C1 9667   0.736  15.918   8.404 -0.4808 -0.1943 -0.1960
  619ERGO    C2 9668   0.867  15.881   8.140 -0.4395  0.1083  0.1743
  620ERGO   ROH 9669  14.208  16.363   9.519  0.0249  0.2928  0.0714
  620ERGO    R1 9670  14.149  16.252   9.266  0.1631 -0.0175  0.1701
  620ERGO    R2 9671  14.027  16.396   9.064 -0.2194 -0.4092  0.1010
  620ERGO    R3 9672  14.243  16.316   8.920 -0.0930 -0.0620  0.0914
  620ERGO    R4 9673  14.031  16.353   8.722 -0.1319 -0.3149  0.0908
  620ERGO    R5 9674  14.152  16.174   8.751  0.1234 -0.1489  0.0493
  620ERGO    C1 9675  14.236  16.252   8.387  0.0378  0.0658  0.0757
  620ERGO    C2 9676  14.376  16.407   8.164 -0.1483  0.3777 -0.0124
  621ERGO   ROH 9677   6.336  15.551   9.446 -0.0127  0.0717 -0.0046
  621ERGO    R1 9678   6.330  15.522   9.165  0.2469  0.2708 -0.0335
  621ERGO    R2 9679   6.095  15.495   9.023  0.3939 -0.0896 -0.2188
  621ERGO    R3 9680   6.192  15.707   8.883  0.0814  0.2175  0.0111
  621ERGO    R4 9681   5.951  15.627   8.738  0.2991 -0.1153 -0.1833
  621ERGO    R5 9682   6.150  15.652   8.654  0.3076  0.3275 -0.0605
  621ERGO    C1 9683   5.958  15.903   8.441 -0.0495  0.1580  0.0531
  621ERGO    C2 9684   5.760  15.831   8.171  0.0386  0.1589 -0.1500
  622ERGO   ROH 9685  12.680   9.225   8.637 -0.1604 -0.2801  0.1467
  622ERGO    R1 9686  12.651   9.086   8.392 -0.0462 -0.2043  0.0881
  622ERGO    R2 9687  12.653   9.214   8.147 -0.1351 -0.0997  0.1346
  622ERGO    R3 9688  12.850   9.035   8.091  0.0066  0.0726  0.0756
  622ERGO    R4 9689  12.835   9.204   7.853 -0.3560 -0.0831 -0.0038
  622ERGO    R5 9690  12.822   8.987   7.858 -0.1273 -0.0876  0.1279
  622ERGO    C1 9691  13.124   9.030   7.629 -0.3514  0.0885 -0.1397
  622ERGO    C2 9692  13.203   8.891   7.321  0.0604  0.3557  0.3067
  623ERGO   ROH 9693  10.737   7.020   8.963 -0.0216  0.1462 -0.1391
  623ERGO    R1 9694  10.814   7.014   8.691 -0.0134  0.0729 -0.1359
  623ERGO    R2 9695  10.880   6.780   8.560  0.0300  0.0407 -0.0616
  623ERGO    R3 9696  10.689   6.861   8.385  0.0191 -0.0456 -0.0896
  623ERGO    R4 9697  10.900   6.745   8.217 -0.0392 -0.2135 -0.0417
  623ERGO    R5 9698  10.812   6.944   8.197  0.0026 -0.2102 -0.1724
  623ERGO    C1 9699  10.731   6.802   7.852 -0.0897 -0.4425 -0.0564
  623ERGO    C2 9700  10.796   6.742   7.620  0.3404 -0.0114  0.2523
  624ERGO   ROH 9701   7.359  17.071   9.472 -0.1993 -0.2375 -0.0128
  624ERGO    R1 9702   7.313  17.193   9.221 -0.0913 -0.0914  0.0376
  624ERGO    R2 9703   7.493  17.175   9.011 -0.0598 -0.0746  0.0644
  624ERGO    R3 9704   7.275  17.084   8.876 -0.0778  0.0972 -0.0254
  624ERGO    R4 9705   7.464  17.166   8.667  0.0839 -0.0601  0.0516
  624ERGO    R5 9706   7.257  17.230   8.687  0.1240  0.1097 -0.0392
  624ERGO    C1 9707   7.244  17.074   8.339  0.1506  0.1095 -0.0401
  624ERGO    C2 9708   7.139  17.055   8.031  0.3228 -0.1282  0.3686
  625ERGO   ROH 9709  16.347  15.248   9.387 -0.0358 -0.0348  0.1532
  625ERGO    R1 9710  16.143  15.228   9.192 -0.0103 -0.0182  0.1265
  625ERGO    R2 9711  16.064  15.443   9.037  0.1531 -0.0595 -0.0053
  625ERGO    R3 9712  16.116  15.272   8.832  0.0809 -0.2043  0.0938
  625ERGO    R4 9713  15.981  15.499   8.707  0.0319 -0.2781 -0.0147
  625ERGO    R5 9714  15.925  15.290   8.690  0.0229 -0.2978  0.1503
  625ERGO    C1 9715  15.981  15.372   8.322 -0.1062 -0.5412  0.0727
  625ERGO    C2 9716  16.107  15.538   8.094 -0.1414 -0.2270 -0.1266
  626ERGO   ROH 9717  13.063   4.163   9.067 -0.0399  0.0069  0.0585
  626ERGO    R1 9718  13.080   3.912   8.936  0.0600  0.0076  0.0688
  626ERGO    R2 9719  12.857   3.774   8.850  0.1139 -0.0938  0.0901
  626ERGO    R3 9720  12.986   3.777   8.611  0.0963 -0.0485  0.0813
  626ERGO    R4 9721  12.800   3.550   8.594  0.1467 -0.0926  0.0822
  626ERGO    R5 9722  13.015   3.545   8.557  0.1465 -0.0394  0.0664
  626ERGO    C1 9723  12.888   3.422   8.219  0.1492 -0.0495  0.0693
  626ERGO    C2 9724  12.695   3.263   7.972  0.0304 -0.0230 -0.0913
  627ERGO   ROH 9725   6.538   2.633   9.337  0.0391 -0.1138  0.0291
  627ERGO    R1 9726   6.579   2.802   9.114 -0.0576 -0.0751  0.0397
  627ERGO    R2 9727   6.771   2.752   8.923 -0.0107  0.0604  0.0479
  627ERGO    R3 9728   6.561   2.771   8.752 -0.0147 -0.0705  0.0378
  627ERGO    R4 9729   6.795   2.841   8.590 -0.0533  0.0711  0.0479
  627ERGO    R5 9730   6.614   2.959   8.614 -0.1259 -0.0407  0.0378
  627ERGO    C1 9731   6.612   2.911   8.235 -0.0818 -0.0454  0.0384
  627ERGO    C2 9732   6.786   2.715   7.904  0.4877  0.0434  0.0131
  628ERGO   ROH 9733   4.010  13.828   9.581 -0.0355  0.0187 -0.0555
  628ERGO    R1 9734   3.976  13.790   9.303  0.1767 -0.2248 -0.0508
  628ERGO    R2 9735   3.990  13.997   9.121 -0.2437 -0.2833 -0.1549
  628ERGO    R3 9736   4.176  13.837   9.003  0.2030  0.0869  0.0112
  628ERGO    R4 9737   4.077  14.010   8.787 -0.3228 -0.4105 -0.1822
  628ERGO    R5 9738   4.085  13.792   8.786  0.2880 -0.4148  0.0642
  628ERGO    C1 9739   4.302  13.868   8.481  0.0505 -0.1370 -0.0419
  628ERGO    C2 9740   4.290  13.765   8.098 -0.0382 -0.1897  0.0842
  629ERGO   ROH 9741  15.610   6.428   9.393 -0.2454 -0.0041 -0.0950
  629ERGO    R1 9742  15.663   6.415   9.115  0.0957 -0.0104 -0.0342
  629ERGO    R2 9743  15.529   6.571   8.930 -0.0156 -0.3437 -0.2460
  629ERGO    R3 9744  15.781   6.644   8.857 -0.0647  0.1297  0.0161
  629ERGO    R4 9745  15.616   6.704   8.623  0.0687 -0.2400 -0.1778
  629ERGO    R5 9746  15.796   6.583   8.626  0.3088  0.1066  0.0425
  629ERGO    C1 9747  15.902   6.850   8.376  0.0718  0.2649  0.1079
  629ERGO    C2 9748  16.004   6.894   8.087  0.2051  0.2646 -0.0720
  630ERGO   ROH 9749   5.303  14.563   9.438  0.1828 -0.1431 -0.1886
  630ERGO    R1 9750   5.289  14.735   9.213  0.1465 -0.0930 -0.1471
  630ERGO    R2 9751   5.492  14.752   9.026  0.0777 -0.1096 -0.2137
  630ERGO    R3 9752   5.291  14.697   8.852  0.0020 -0.0133 -0.1588
  630ERGO    R4 9753   5.465  14.884   8.708  0.1158 -0.1595 -0.2388
  630ERGO    R5 9754   5.251  14.905   8.740  0.1285 -0.0022 -0.1978
  630ERGO    C1 9755   5.259  14.909   8.359  0.0668 -0.0982 -0.2019
  630ERGO    C2 9756   5.150  14.752   8.201  0.1144  0.0573 -0.1890
  631ERGO   ROH 9757  13.793   3.329   9.200 -0.0846  0.0672 -0.2061
  631ERGO    R1 9758  13.861   3.412   8.938  0.0315  0.0401 -0.1855
  631ERGO    R2 9759  14.059   3.290   8.789 -0.0926 -0.1582 -0.1907
  631ERGO    R3 9760  13.860   3.264   8.606 -0.1085  0.0995 -0.2128
  631ERGO    R4 9761  14.108   3.230   8.453 -0.1292 -0.3076 -0.1698
  631ERGO    R5 9762  13.947   3.370   8.409  0.0837 -0.0711 -0.2246
  631ERGO    C1 9763  13.949   3.171   8.084 -0.1654 -0.1526 -0.1785
  631ERGO    C2 9764  13.792   3.075   7.882  0.1047 -0.2607  0.2086
  632ERGO   ROH 9765   6.370   1.849   9.089  0.0934  0.1402  0.0450
  632ERGO    R1 9766   6.478   1.942   8.844 -0.0641  0.1160 -0.0352
  632ERGO    R2 9767   6.736   1.885   8.763 -0.0699  0.2165 -0.1365
  632ERGO    R3 9768   6.611   1.793   8.540 -0.1310  0.0836 -0.0482
  632ERGO    R4 9769   6.886   1.852   8.454 -0.1900  0.1441 -0.1871
  632ERGO    R5 9770   6.702   1.926   8.362 -0.2525  0.0427 -0.1402
  632ERGO    C1 9771   6.856   1.747   8.063 -0.3173 -0.0228 -0.1336
  632ERGO    C2 9772   6.984   1.686   7.728  0.4939  0.1558  0.2085
  633ERGO   ROH 9773  11.346   3.628   9.274 -0.1687 -0.1060 -0.0183
  633ERGO    R1 9774  11.232   3.594   9.017 -0.0794 -0.2532 -0.0407
  633ERGO    R2 9775  11.259   3.783   8.816 -0.3353 -0.1835 -0.0160
  633ERGO    R3 9776  11.353   3.571   8.675  0.0156 -0.0287 -0.0237
  633ERGO    R4 9777  11.328   3.786   8.478 -0.4481 -0.0903 -0.0385
  633ERGO    R5 9778  11.242   3.586   8.463 -0.0842 -0.2558  0.0105
  633ERGO    C1 9779  11.457   3.589   8.148 -0.1843  0.1094 -0.0588
  633ERGO    C2 9780  11.656   3.606   7.805 -0.0817 -0.0030  0.2086
  634ERGO   ROH 9781   0.872   3.491   9.286 -0.0263  0.1015 -0.1828
  634ERGO    R1 9782   0.721   3.501   9.047 -0.0429 -0.1281 -0.1846
  634ERGO    R2 9783   0.802   3.645   8.825 -0.2704  0.0233 -0.1739
  634ERGO    R3 9784   0.769   3.406   8.699  0.1189 -0.0278 -0.1901
  634ERGO    R4 9785   0.809   3.599   8.483 -0.3737  0.0915 -0.1856
  634ERGO    R5 9786   0.644   3.460   8.503 -0.0984 -0.2363 -0.1122
  634ERGO    C1 9787   0.783   3.349   8.165 -0.0684  0.0833 -0.2077
  634ERGO    C2 9788   0.637   3.340   7.815 -0.3085  0.0371 -0.1158
  635ERGO   ROH 9789  14.076  11.375   9.119 -0.0938 -0.1466  0.0280
  635ERGO    R1 9790  14.029  11.455   8.852 -0.0581 -0.1255  0.0278
  635ERGO    R2 9791  14.183  11.645   8.724 -0.0106 -0.1521  0.0475
  635ERGO    R3 9792  14.212  11.449   8.538 -0.0369 -0.1491  0.0399
  635ERGO    R4 9793  14.342  11.684   8.419  0.1966 -0.2169  0.1459
  635ERGO    R5 9794  14.186  11.562   8.328  0.1629 -0.0996  0.0381
  635ERGO    C1 9795  14.462  11.522   8.067  0.2926 -0.2518  0.1962
  635ERGO    C2 9796  14.562  11.587   7.775 -0.1159 -0.2396  0.2878
  636ERGO   ROH 9797   1.755   5.320   9.578  0.1695  0.0062  0.0583
  636ERGO    R1 9798   1.877   5.165   9.375  0.2159  0.0267  0.0708
  636ERGO    R2 9799   1.754   5.114   9.133  0.1930 -0.1047  0.1105
  636ERGO    R3 9800   1.984   5.218   9.031  0.1117  0.0038  0.0340
  636ERGO    R4 9801   1.873   5.054   8.814  0.0884 -0.0093  0.0526
  636ERGO    R5 9802   2.074   5.041   8.897  0.1290  0.0587 -0.0291
  636ERGO    C1 9803   2.158   5.117   8.532 -0.0487  0.1482 -0.0528
  636ERGO    C2 9804   2.267   5.312   8.295  0.2334 -0.1871 -0.0421
  637ERGO   ROH 9805  12.694   1.991   9.664  0.1634 -0.1537 -0.0255
  637ERGO    R1 9806  12.581   1.986   9.404  0.0774 -0.0176  0.0098
  637ERGO    R2 9807  12.573   2.209   9.241  0.2237  0.0095  0.0490
  637ERGO    R3 9808  12.697   2.044   9.064  0.0202 -0.0739 -0.0214
  637ERGO    R4 9809  12.601   2.267   8.901  0.3276  0.1514  0.0796
  637ERGO    R5 9810  12.563   2.056   8.867  0.0441  0.2097 -0.0308
  637ERGO    C1 9811  12.734   2.145   8.538  0.1969  0.1558  0.0312
  637ERGO    C2 9812  12.883   2.414   8.336  0.1409  0.1055  0.2496
  638ERGO   ROH 9813  18.165  15.886   9.513  0.2423  0.4161  0.0492
  638ERGO    R1 9814  18.091  15.979   9.256  0.1123  0.2538  0.0257
  638ERGO    R2 9815  18.263  16.125   9.096 -0.0425  0.3421 -0.0641
  638ERGO    R3 9816  18.207  15.931   8.915  0.0908  0.2210  0.0232
  638ERGO    R4 9817  18.327  16.147   8.757 -0.0943  0.2492 -0.0797
  638ERGO    R5 9818  18.135  16.049   8.720 -0.0228  0.0832 -0.0202
  638ERGO    C1 9819  18.311  15.976   8.390  0.0006  0.0816 -0.0069
  638ERGO    C2 9820  18.339  15.928   8.055 -0.0705  0.1627  0.1759
  639ERGO   ROH 9821  15.155   9.202   9.353 -0.0417  0.1916 -0.0029
  639ERGO    R1 9822  15.135   9.356   9.116  0.1530  0.1142 -0.0725
  639ERGO    R2 9823  15.316   9.334   8.908  0.0045 -0.3834 -0.1672
  639ERGO    R3 9824  15.092   9.289   8.760 -0.1847  0.0056 -0.0149
  639ERGO    R4 9825  15.289   9.389   8.568 -0.2036 -0.1613 -0.1175
  639ERGO    R5 9826  15.089   9.468   8.601 -0.0715  0.0989  0.0885
  639ERGO    C1 9827  15.064   9.379   8.231 -0.5021  0.3333  0.0546
  639ERGO    C2 9828  15.088   9.249   7.943  0.1689  0.0548 -0.0366
  640ERGO   ROH 9829  10.278   5.183   9.447 -0.2700  0.0994 -0.1427
  640ERGO    R1 9830  10.127   5.206   9.209 -0.1111 -0.0251 -0.2553
  640ERGO    R2 9831  10.218   5.346   8.988  0.0115 -0.0988 -0.2427
  640ERGO    R3 9832  10.168   5.111   8.860  0.1421 -0.1560 -0.1949
  640ERGO    R4 9833  10.151   5.316   8.650  0.1000 -0.2050 -0.2530
  640ERGO    R5 9834  10.000   5.166   8.698  0.1493 -0.2633 -0.2474
  640ERGO    C1 9835  10.066   5.078   8.333  0.2741 -0.3205 -0.2140
  640ERGO    C2 9836   9.985   5.232   8.015 -0.1710 -0.1103 -0.1442
  641ERGO   ROH 9837  18.153   3.177   9.050  0.1247  0.0121  0.0967
  641ERGO    R1 9838  18.162   3.283   8.788  0.3073  0.0766  0.1272
  641ERGO    R2 9839  18.382   3.254   8.623  0.2629 -0.2593  0.1163
  641ERGO    R3 9840  18.198   3.152   8.450  0.0756  0.1068  0.0899
  641ERGO    R4 9841  18.444   3.175   8.292  0.0602 -0.1112  0.0413
  641ERGO    R5 9842  18.248   3.257   8.241  0.1545  0.1872  0.1513
  641ERGO    C1 9843  18.307   3.033   7.938 -0.2337  0.3186 -0.0270
  641ERGO    C2 9844  18.459   2.894   7.617  0.1157 -0.0781 -0.4314
  642ERGO   ROH 9845  15.866   2.833   9.235  0.0073 -0.1853  0.0033
  642ERGO    R1 9846  15.804   2.873   8.962 -0.0142 -0.1877  0.0081
  642ERGO    R2 9847  15.997   2.870   8.763 -0.0036 -0.0059  0.0145
  642ERGO    R3 9848  15.834   2.682   8.653  0.1446 -0.1149 -0.0233
  642ERGO    R4 9849  15.944   2.828   8.424 -0.0243  0.0682  0.0082
  642ERGO    R5 9850  15.733   2.793   8.466  0.0120 -0.1366  0.0334
  642ERGO    C1 9851  15.760   2.628   8.124  0.1028  0.0089 -0.0308
  642ERGO    C2 9852  15.916   2.447   7.878 -0.1985  0.3025 -0.1669
  643ERGO   ROH 9853  16.234   8.864   8.811  0.0346 -0.0272  0.0469
  643ERGO    R1 9854  16.046   8.855   8.600  0.0142 -0.1720  0.0702
  643ERGO    R2 9855  16.071   9.010   8.372 -0.1616 -0.1101  0.0927
  643ERGO    R3 9856  16.049   8.770   8.246  0.0497 -0.1122  0.0555
  643ERGO    R4 9857  16.029   8.969   8.032 -0.1788 -0.0891  0.0921
  643ERGO    R5 9858  15.888   8.809   8.073 -0.0187 -0.2361  0.0887
  643ERGO    C1 9859  15.984   8.721   7.715  0.0095 -0.0788  0.0568
  643ERGO    C2 9860  15.878   8.593   7.423  0.0210 -0.2053 -0.3424
  644ERGO   ROH 9861   6.609  11.857   9.158 -0.0980 -0.2034 -0.0040
  644ERGO    R1 9862   6.754  11.840   8.915 -0.0928 -0.2380  0.0013
  644ERGO    R2 9863   6.703  11.646   8.725 -0.2031 -0.1640 -0.0471
  644ERGO    R3 9864   6.677  11.860   8.560 -0.0588 -0.1080  0.0009
  644ERGO    R4 9865   6.798  11.652   8.393 -0.1460 -0.1314 -0.0304
  644ERGO    R5 9866   6.873  11.854   8.423 -0.0402 -0.1804  0.0316
  644ERGO    C1 9867   6.828  11.856   8.044  0.0227 -0.0599  0.0244
  644ERGO    C2 9868   6.869  11.921   7.653  0.2349  0.0716  0.1475
  645ERGO   ROH 9869   1.803   8.222   9.217  0.1061 -0.0121  0.1940
  645ERGO    R1 9870   1.996   8.271   9.016  0.0860  0.0538  0.1922
  645ERGO    R2 9871   2.050   8.090   8.814  0.0896  0.1076  0.1517
  645ERGO    R3 9872   1.998   8.304   8.654  0.0601  0.1374  0.1980
  645ERGO    R4 9873   2.239   8.182   8.540 -0.2353 -0.1451 -0.1688
  645ERGO    R5 9874   2.214   8.390   8.599  0.0777 -0.1017 -0.1566
  645ERGO    C1 9875   2.301   8.435   8.230 -0.4521 -0.2645 -0.3120
  645ERGO    C2 9876   2.192   8.540   7.848  0.1570  0.1660  0.0578
  646ERGO   ROH 9877  13.098  17.824   9.453  0.0153  0.0133  0.0142
  646ERGO    R1 9878  13.174  17.726   9.199 -0.0520  0.0472 -0.0193
  646ERGO    R2 9879  12.994  17.612   9.023 -0.0905  0.0267  0.0327
  646ERGO    R3 9880  13.092  17.799   8.852 -0.1834  0.0588  0.0139
  646ERGO    R4 9881  13.129  17.544   8.712 -0.1224  0.0716  0.0089
  646ERGO    R5 9882  13.282  17.694   8.751 -0.1660  0.1228 -0.0195
  646ERGO    C1 9883  13.299  17.680   8.371 -0.2282  0.1277 -0.0226
  646ERGO    C2 9884  13.458  17.684   8.018 -0.0386 -0.1944 -0.0548
  647ERGO   ROH 9885   8.190  16.548   9.685  0.0203  0.1124 -0.0301
  647ERGO    R1 9886   8.279  16.519   9.418  0.0006 -0.0558 -0.0198
  647ERGO    R2 9887   8.203  16.307   9.258 -0.0970 -0.1021  0.0834
  647ERGO    R3 9888   8.125  16.504   9.088 -0.0162 -0.1484 -0.0075
  647ERGO    R4 9889   8.115  16.259   8.928 -0.0302 -0.2033  0.0803
  647ERGO    R5 9890   8.222  16.442   8.878  0.0189 -0.2449  0.0377
  647ERGO    C1 9891   7.991  16.416   8.575  0.0846 -0.3057 -0.0067
  647ERGO    C2 9892   7.827  16.137   8.408  0.2510 -0.1950 -0.0206
  648ERGO   ROH 9893   3.039   4.778   9.593 -0.0105 -0.1061  0.0761
  648ERGO    R1 9894   3.191   4.764   9.354 -0.0821  0.1332  0.0135
  648ERGO    R2 9895   3.370   4.559   9.303  0.1661  0.3688 -0.0931
  648ERGO    R3 9896   3.224   4.533   9.075  0.1082  0.2228 -0.0398
  648ERGO    R4 9897   3.481   4.409   9.012  0.0142 -0.0124  0.0395
  648ERGO    R5 9898   3.382   4.565   8.899  0.0968 -0.0666 -0.1068
  648ERGO    C1 9899   3.409   4.297   8.630 -0.1286 -0.3714  0.1666
  648ERGO    C2 9900   3.207   4.161   8.338  0.0714 -0.0519 -0.2024
  649ERGO   ROH 9901  17.805   5.189   9.202 -0.0174 -0.0629  0.1210
  649ERGO    R1 9902  17.766   5.243   8.927 -0.0891  0.0635  0.1558
  649ERGO    R2 9903  17.825   5.488   8.814  0.1578  0.0253  0.1983
  649ERGO    R3 9904  17.974   5.338   8.643 -0.1117 -0.1138  0.0784
  649ERGO    R4 9905  17.871   5.558   8.479  0.2845  0.2181  0.2540
  649ERGO    R5 9906  17.853   5.345   8.437 -0.1054  0.2764  0.0792
  649ERGO    C1 9907  18.038   5.458   8.123  0.1052  0.1997  0.1739
  649ERGO    C2 9908  18.162   5.615   7.818  0.1974 -0.0102  0.1988
  650ERGO   ROH 9909  16.516   6.049   9.409  0.0333 -0.0493  0.0285
  650ERGO    R1 9910  16.453   6.098   9.138 -0.0275 -0.0648  0.0403
  650ERGO    R2 9911  16.646   6.156   8.948 -0.0707 -0.0848 -0.0058
  650ERGO    R3 9912  16.533   5.947   8.817 -0.1085 -0.0878  0.0300
  650ERGO    R4 9913  16.639   6.119   8.605 -0.2008 -0.0673 -0.0062
  650ERGO    R5 9914  16.435   6.045   8.621 -0.1922 -0.0830  0.0713
  650ERGO    C1 9915  16.529   5.901   8.281 -0.3120 -0.0600  0.0272
  650ERGO    C2 9916  16.525   5.878   7.867  0.0298 -0.0938 -0.2333
  651ERGO   ROH 9917  11.608   1.034   9.330  0.0696  0.0355 -0.0417
  651ERGO    R1 9918  11.498   1.007   9.071  0.0587 -0.0959 -0.0240
  651ERGO    R2 9919  11.475   1.220   8.896 -0.2128 -0.1234 -0.0253
  651ERGO    R3 9920  11.612   1.055   8.729 -0.0493  0.0289 -0.0432
  651ERGO    R4 9921  11.492   1.257   8.553 -0.3705 -0.1502 -0.0371
  651ERGO    R5 9922  11.475   1.041   8.533 -0.0947 -0.1798  0.0021
  651ERGO    C1 9923  11.632   1.125   8.196 -0.3087 -0.0228 -0.0607
  651ERGO    C2 9924  11.597   1.389   8.036  0.2496 -0.2781  0.0509
  652ERGO   ROH 9925   3.051  11.954   9.611 -0.2083 -0.1894 -0.1800
  652ERGO    R1 9926   3.200  12.030   9.383 -0.0092 -0.2350 -0.0675
  652ERGO    R2 9927   3.229  11.866   9.163 -0.0977 -0.1487 -0.1451
  652ERGO    R3 9928   3.134  12.083   9.029  0.2177  0.0412 -0.0723
  652ERGO    R4 9929   3.205  11.890   8.819 -0.2826 -0.0926 -0.1295
  652ERGO    R5 9930   3.273  12.097   8.834  0.1198 -0.2138 -0.1642
  652ERGO    C1 9931   3.102  12.108   8.493 -0.0942  0.1184 -0.0520
  652ERGO    C2 9932   3.010  11.891   8.260  0.0752  0.0551 -0.1807
  653ERGO   ROH 9933  14.982  10.403   9.298 -0.0653 -0.1817  0.1298
  653ERGO    R1 9934  15.150  10.522   9.104 -0.1107  0.0028  0.1997
  653ERGO    R2 9935  15.357  10.385   8.982  0.0705  0.2107  0.2512
  653ERGO    R3 9936  15.232  10.465   8.754  0.0629  0.1141  0.2227
  653ERGO    R4 9937  15.495  10.373   8.665  0.0348  0.0529  0.2417
  653ERGO    R5 9938  15.405  10.567   8.623  0.0532  0.0349  0.1578
  653ERGO    C1 9939  15.459  10.440   8.267  0.0066 -0.1297  0.2094
  653ERGO    C2 9940  15.519  10.150   7.974  0.0414  0.2852 -0.0278
  654ERGO   ROH 9941   2.523  14.084   9.365  0.2213  0.1624  0.0380
  654ERGO    R1 9942   2.534  13.874   9.175 -0.1509  0.1851 -0.0193
  654ERGO    R2 9943   2.410  13.891   8.928 -0.0960  0.4885 -0.0426
  654ERGO    R3 9944   2.659  13.832   8.836 -0.1831  0.0484 -0.0111
  654ERGO    R4 9945   2.495  13.858   8.595 -0.0156  0.7495 -0.0479
  654ERGO    R5 9946   2.621  13.688   8.648 -0.4230  0.3892 -0.2225
  654ERGO    C1 9947   2.778  13.784   8.314 -0.0505  0.4883 -0.0215
  654ERGO    C2 9948   2.839  13.794   7.919  0.1261 -0.1309  0.1561
  655ERGO   ROH 9949   7.512   8.270   9.234  0.0469 -0.0312 -0.0609
  655ERGO    R1 9950   7.609   8.294   8.969  0.0440  0.2313 -0.0418
  655ERGO    R2 9951   7.605   8.083   8.789  0.4028  0.2899 -0.1309
  655ERGO    R3 9952   7.471   8.261   8.633  0.1319  0.1447 -0.0689
  655ERGO    R4 9953   7.547   8.046   8.450  0.2973  0.2427 -0.1078
  655ERGO    R5 9954   7.588   8.258   8.425  0.0441  0.2892 -0.1182
  655ERGO    C1 9955   7.388   8.192   8.107 -0.0183  0.0787 -0.0361
  655ERGO    C2 9956   7.251   8.316   7.787  0.1192 -0.2412 -0.3107
  656ERGO   ROH 9957   2.508  15.211   9.623 -0.0436  0.1871  0.0134
  656ERGO    R1 9958   2.503  15.300   9.355 -0.0621  0.0423 -0.0349
  656ERGO    R2 9959   2.415  15.140   9.146 -0.2629 -0.0043  0.0840
  656ERGO    R3 9960   2.249  15.350   9.098 -0.1097  0.1048  0.0236
  656ERGO    R4 9961   2.282  15.221   8.838 -0.1086  0.0743  0.0368
  656ERGO    R5 9962   2.316  15.431   8.883  0.0155  0.0552  0.0418
  656ERGO    C1 9963   2.049  15.465   8.613  0.1250  0.2226 -0.0475
  656ERGO    C2 9964   2.081  15.524   8.431 -0.0274  0.2399 -0.1855
  657ERGO   ROH 9965  16.029   1.135   9.630 -0.0873  0.0091  0.1449
  657ERGO    R1 9966  16.013   1.298   9.399 -0.1607 -0.0056  0.1382
  657ERGO    R2 9967  16.181   1.514   9.358 -0.1471 -0.0283  0.0523
  657ERGO    R3 9968  16.233   1.386   9.123 -0.2606 -0.0560  0.0422
  657ERGO    R4 9969  16.239   1.671   9.056  0.1059 -0.0511  0.0879
  657ERGO    R5 9970  16.120   1.517   8.958 -0.0675  0.1113  0.0415
  657ERGO    C1 9971  16.322   1.643   8.660  0.1464 -0.0904  0.0991
  657ERGO    C2 9972  16.322   1.644   8.376  0.2465  0.1167  0.0680
  658ERGO   ROH 9973   3.408   9.733   9.600  0.0415 -0.3146 -0.0033
  658ERGO    R1 9974   3.403   9.765   9.319 -0.1086 -0.1337  0.0170
  658ERGO    R2 9975   3.633   9.757   9.164 -0.1739  0.0933 -0.1012
  658ERGO    R3 9976   3.496   9.565   9.029 -0.1327  0.1037 -0.1560
  658ERGO    R4 9977   3.612   9.733   8.820 -0.0710  0.1111 -0.1085
  658ERGO    R5 9978   3.402   9.679   8.841 -0.0742  0.1116 -0.1770
  658ERGO    C1 9979   3.471   9.538   8.493  0.0277  0.1312 -0.1642
  658ERGO    C2 9980   3.482   9.477   8.274 -0.1688 -0.2241 -0.1203
  659ERGO   ROH 9981  17.028   7.808   9.044 -0.3431 -0.3132  0.0203
  659ERGO    R1 9982  16.987   7.723   8.777 -0.0871 -0.2753 -0.0336
  659ERGO    R2 9983  17.020   7.892   8.561  0.0157 -0.2161  0.0322
  659ERGO    R3 9984  17.187   7.695   8.475  0.1741 -0.1234  0.1195
  659ERGO    R4 9985  17.144   7.866   8.240 -0.0734 -0.3232  0.0052
  659ERGO    R5 9986  17.114   7.650   8.251  0.1335 -0.3517  0.1726
  659ERGO    C1 9987  17.374   7.666   7.971  0.0232 -0.2985  0.0714
  659ERGO    C2 9988  17.575   7.484   7.854  0.1396 -0.1368 -0.2676
  660ERGO   ROH 9989   3.424   7.956   9.220 -0.1929  0.0456 -0.2517
  660ERGO    R1 9990   3.619   7.971   9.015 -0.0572 -0.1003 -0.1356
  660ERGO    R2 9991   3.761   7.751   8.929 -0.2990 -0.2443 -0.1727
  660ERGO    R3 9992   3.668   7.826   8.685 -0.0661  0.0115 -0.1874
  660ERGO    R4 9993   3.840   7.593   8.632 -0.1328 -0.0343 -0.2416
  660ERGO    R5 9994   3.854   7.790   8.538  0.0413  0.0450 -0.0662
  660ERGO    C1 9995   3.799   7.572   8.229  0.1826  0.3281 -0.2953
  660ERGO    C2 9996   3.941   7.481   7.821  0.0611  0.0572  0.0148
  661ERGO   ROH 9997  17.029   4.489   9.056 -0.1306 -0.0499 -0.0346
  661ERGO    R1 9998  17.069   4.418   8.785 -0.2946 -0.0324 -0.0640
  661ERGO    R2 9999  16.893   4.491   8.584 -0.1489  0.4383 -0.0308
  661ERGO    R310000  17.117   4.594   8.470  0.0837 -0.0040  0.0045
  661ERGO    R410001  16.932   4.553   8.247 -0.0630  0.5678  0.0020
  661ERGO    R510002  17.136   4.478   8.262 -0.2218  0.0778 -0.0752
  661ERGO    C110003  17.165   4.685   7.943  0.2056  0.2279  0.0541
  661ERGO    C210004  17.220   4.968   7.814  0.0733 -0.0307  0.0062
  662ERGO   ROH10005   1.611  12.011   9.669 -0.0193  0.1937 -0.0620
  662ERGO    R110006   1.773  12.057   9.441  0.0991 -0.0292 -0.0261
  662ERGO    R210007   1.821  11.863   9.251 -0.2129 -0.0707 -0.0687
  662ERGO    R310008   1.728  12.053   9.080  0.1411  0.1416 -0.0340
  662ERGO    R410009   1.764  11.814   8.913 -0.2166  0.1285 -0.0981
  662ERGO    R510010   1.847  12.012   8.876  0.1240  0.0072 -0.0173
  662ERGO    C110011   1.644  11.964   8.556  0.1135  0.4438 -0.0826
  662ERGO    C210012   1.579  11.897   8.161  0.2048 -0.1014 -0.3169
  663ERGO   ROH10013   2.709   1.483   9.425 -0.0978  0.1279 -0.1924
  663ERGO    R110014   2.803   1.626   9.199  0.1433  0.1089 -0.1081
  663ERGO    R210015   3.067   1.619   9.118  0.1469 -0.2641 -0.0960
  663ERGO    R310016   2.959   1.544   8.880  0.0344  0.0355 -0.1414
  663ERGO    R410017   3.218   1.663   8.810 -0.0063  0.1234 -0.1195
  663ERGO    R510018   3.023   1.718   8.729 -0.0430  0.2255  0.0438
  663ERGO    C110019   3.203   1.619   8.407 -0.2012  0.6303 -0.1758
  663ERGO    C210020   3.252   1.578   8.126  0.0063  0.1000 -0.0656
  664ERGO   ROH10021  16.484  18.954   9.552  0.0245 -0.0082  0.0192
  664ERGO    R110022  16.489  18.928   9.270  0.2141  0.0904  0.0115
  664ERGO    R210023  16.717  18.860   9.131  0.2184 -0.2671  0.1797
  664ERGO    R310024  16.558  18.663   9.030 -0.0563  0.0486 -0.0235
  664ERGO    R410025  16.779  18.686   8.839  0.0692 -0.1785  0.0942
  664ERGO    R510026  16.566  18.696   8.793  0.1019  0.1931  0.0010
  664ERGO    C110027  16.666  18.400   8.574 -0.2755  0.1692 -0.1463
  664ERGO    C210028  16.831  18.224   8.337  0.1630  0.0364 -0.2136
  665ERGO   ROH10029   0.962   2.169   9.323  0.2319 -0.1243 -0.0327
  665ERGO    R110030   1.059   2.072   9.075  0.0333 -0.1729 -0.0921
  665ERGO    R210031   0.919   1.889   8.922 -0.2867  0.1088 -0.1435
  665ERGO    R310032   0.949   2.077   8.729 -0.0280  0.1474 -0.0718
  665ERGO    R410033   0.998   1.823   8.592 -0.4267  0.1150 -0.1792
  665ERGO    R510034   1.129   1.997   8.594 -0.1600 -0.0759 -0.1247
  665ERGO    C110035   1.072   1.961   8.218 -0.2652  0.1547 -0.1330
  665ERGO    C210036   1.231   2.025   8.014 -0.0258 -0.1202 -0.0575
  666ERGO   ROH10037  17.628  13.480   9.297  0.0067  0.0237  0.0516
  666ERGO    R110038  17.470  13.566   9.078  0.0137 -0.1370 -0.0176
  666ERGO    R210039  17.538  13.784   8.923 -0.1073 -0.1063 -0.0250
  666ERGO    R310040  17.515  13.605   8.719  0.1087 -0.1552 -0.0086
  666ERGO    R410041  17.578  13.859   8.588 -0.5250 -0.0006 -0.0580
  666ERGO    R510042  17.410  13.728   8.543 -0.2956 -0.3606  0.0737
  666ERGO    C110043  17.581  13.734   8.202 -0.5656  0.0150 -0.0619
  666ERGO    C210044  17.835  13.675   7.973 -0.2228 -0.0031 -0.2131
  667ERGO   ROH10045   5.724  11.917   9.099  0.2515  0.1081 -0.0117
  667ERGO    R110046   5.750  11.768   8.860  0.1344  0.1014 -0.0216
  667ERGO    R210047   5.545  11.614   8.757  0.0373  0.2011  0.0109
  667ERGO    R310048   5.589  11.762   8.534  0.0679  0.1900  0.0105
  667ERGO    R410049   5.513  11.498   8.433 -0.2476  0.2881  0.0056
  667ERGO    R510050   5.692  11.609   8.380 -0.1657  0.1148 -0.0698
  667ERGO    C110051   5.536  11.569   8.035 -0.3848  0.3284  0.0022
  667ERGO    C210052   5.725  11.395   7.743 -0.0939 -0.1357 -0.1247
  668ERGO   ROH10053   6.854  18.800   9.443  0.0227 -0.0585 -0.0279
  668ERGO    R110054   6.888  18.785   9.162  0.0666 -0.0950 -0.0213
  668ERGO    R210055   6.920  18.545   9.029  0.0540 -0.1164  0.0095
  668ERGO    R310056   6.710  18.636   8.882  0.0904 -0.1013 -0.0324
  668ERGO    R410057   6.890  18.513   8.686  0.2094  0.0576 -0.0215
  668ERGO    R510058   6.809  18.715   8.679  0.1529  0.0362  0.0520
  668ERGO    C110059   6.675  18.580   8.349  0.3340  0.1730 -0.0788
  668ERGO    C210060   6.760  18.446   8.063 -0.2572  0.0418 -0.2111
  669ERGO   ROH10061   7.339  11.016   8.923  0.2349  0.1570 -0.0315
  669ERGO    R110062   7.401  11.034   8.648  0.2339  0.0540 -0.0391
  669ERGO    R210063   7.554  10.844   8.517  0.0445 -0.1167 -0.0216
  669ERGO    R310064   7.340  10.834   8.350  0.0201  0.0633 -0.0028
  669ERGO    R410065   7.567  10.745   8.187 -0.0127  0.2020 -0.1227
  669ERGO    R510066   7.427  10.905   8.138 -0.0058  0.2612  0.0519
  669ERGO    C110067   7.373  10.677   7.837 -0.0689  0.5568 -0.1640
  669ERGO    C210068   7.273  10.376   7.610  0.3372  0.0595 -0.1147
  670ERGO   ROH10069  11.872   2.659   9.647 -0.0015 -0.0782 -0.0283
  670ERGO    R110070  11.832   2.554   9.387  0.0216 -0.0160 -0.0577
  670ERGO    R210071  11.585   2.468   9.297  0.0527 -0.1152 -0.0563
  670ERGO    R310072  11.634   2.642   9.094 -0.0589 -0.0222 -0.0047
  670ERGO    R410073  11.455   2.440   8.978  0.1116 -0.1272 -0.0789
  670ERGO    R510074  11.649   2.503   8.900  0.0710  0.0433 -0.0404
  670ERGO    C110075  11.426   2.587   8.601  0.0413 -0.0469 -0.0436
  670ERGO    C210076  11.483   2.560   8.258 -0.1150  0.6169 -0.1379
  671ERGO   ROH10077   0.110   6.924   9.258  0.0990  0.1714  0.0885
  671ERGO    R110078   0.160   6.903   8.980  0.1212  0.1889  0.0907
  671ERGO    R210079  -0.031   6.961   8.790  0.0549 -0.0404  0.0825
  671ERGO    R310080   0.161   7.127   8.693 -0.1218  0.1559  0.0621
  671ERGO    R410081  -0.042   7.114   8.481  0.1050 -0.4671 -0.1379
  671ERGO    R510082   0.172   7.074   8.460  0.2009 -0.1420  0.1371
  671ERGO    C110083   0.133   7.359   8.210 -0.0318 -0.5312 -0.2853
  671ERGO    C210084   0.244   7.553   8.018  0.1148 -0.1752  0.0443
  672ERGO   ROH10085   4.146   1.797   9.234  0.1585 -0.0419  0.0976
  672ERGO    R110086   4.268   1.842   8.982  0.0233  0.1116  0.0586
  672ERGO    R210087   4.391   1.641   8.838  0.1842  0.2545 -0.0032
  672ERGO    R310088   4.222   1.723   8.642  0.0282  0.0976  0.0622
  672ERGO    R410089   4.461   1.631   8.500  0.0569  0.2986 -0.0318
  672ERGO    R510090   4.365   1.825   8.479 -0.1244  0.2166 -0.0024
  672ERGO    C110091   4.344   1.703   8.119 -0.1637  0.1769  0.0131
  672ERGO    C210092   4.254   1.708   7.761  0.2541  0.0171  0.5051
  673ERGO   ROH10093   6.331  16.561   9.356 -0.2503 -0.0704  0.1077
  673ERGO    R110094   6.179  16.570   9.117 -0.1160 -0.0115  0.0235
  673ERGO    R210095   5.916  16.655   9.111 -0.1157 -0.0208 -0.1019
  673ERGO    R310096   6.010  16.825   8.921 -0.0156  0.0351 -0.0038
  673ERGO    R410097   5.756  16.727   8.813 -0.0068  0.1339 -0.1245
  673ERGO    R510098   5.949  16.722   8.713  0.0259  0.1305 -0.0652
  673ERGO    C110099   5.750  16.929   8.462  0.1506  0.2763 -0.0455
  673ERGO    C210100   5.649  17.083   8.300  0.1748 -0.2517  0.2949
  674loPI    C110101  11.858  15.395   4.613 -0.0791  0.0255  0.2009
  674loPI    C210102  11.545  15.299   4.384  0.0098 -0.0484  0.1093
  674loPI    C310103  11.907  15.153   4.298  0.1154  0.2314  0.0695
  674loPI   PO410104  11.756  15.437   4.951 -0.0708  0.3258  0.0516
  674loPI   GL110105  11.614  15.543   5.394  0.0435  0.0693  0.0825
  674loPI   GL210106  11.937  15.410   5.420  0.1108 -0.0615 -0.1447
  674loPI   C1A10107  11.461  15.654   5.746  0.3896  0.1059 -0.0733
  674loPI   C2A10108  11.240  15.533   6.090  0.0160  0.2880  0.2509
  674loPI   C3A10109  11.181  15.468   6.482 -0.0133 -0.0126  0.1247
  674loPI   C4A10110  11.228  15.755   6.857  0.1731  0.1672 -0.0994
  674loPI   C5A10111  11.272  16.198   7.000  0.0030  0.0712  0.1708
  674loPI   C6A10112  11.178  16.639   7.022 -0.2140 -0.0409 -0.2292
  674loPI   C1B10113  11.670  15.190   5.781  0.0379 -0.0225 -0.0689
  674loPI   C2B10114  11.563  15.143   6.296  0.0354  0.1628  0.1959
  674loPI   C3B10115  11.691  15.470   6.726  0.1786 -0.0719 -0.2302
  674loPI   C4B10116  11.981  15.856   6.616 -0.2180  0.2707 -0.0096
  675loPI    C110117  12.146   8.871   4.403  0.1376 -0.3467 -0.0627
  675loPI    C210118  12.078   9.003   4.032 -0.1434  0.0528  0.1236
  675loPI    C310119  12.425   9.086   4.213 -0.0107 -0.1322 -0.0414
  675loPI   PO410120  12.016   8.932   4.543 -0.0929 -0.2001  0.4553
  675loPI   GL110121  12.006   8.944   4.924 -0.0096 -0.2891  0.2807
  675loPI   GL210122  11.863   8.819   5.137 -0.0527  0.1440  0.3670
  675loPI   C1A10123  12.290   9.104   5.190  0.1449  0.2169  0.0967
  675loPI   C2A10124  12.529   9.091   5.522 -0.0502 -0.2481 -0.0376
  675loPI   C3A10125  12.548   9.150   5.913 -0.1442 -0.4575 -0.2236
  675loPI   C4A10126  12.316   9.138   6.261  0.0080 -0.0392  0.2248
  675loPI   C5A10127  12.152   9.110   6.671  0.0618 -0.4042 -0.1179
  675loPI   C6A10128  12.348   9.207   7.119  0.2051  0.2031 -0.1495
  675loPI   C1B10129  12.107   8.690   5.467 -0.0338 -0.2525  0.0418
  675loPI   C2B10130  12.270   8.451   5.553  0.0082 -0.1608 -0.0999
  675loPI   C3B10131  12.232   8.337   5.930  0.2491 -0.0388 -0.0102
  675loPI   C4B10132  12.536   8.318   6.308 -0.1160 -0.1081 -0.1684
  676loPI    C110133  18.910   4.832   4.706 -0.0266 -0.1693 -0.1332
  676loPI    C210134  18.648   4.856   4.404 -0.1049 -0.1726 -0.0660
  676loPI    C310135  19.039   4.909   4.335 -0.1787  0.4379 -0.0707
  676loPI   PO410136  18.818   4.666   4.914  0.0594 -0.1069  0.0285
  676loPI   GL110137  18.717   4.838   5.303 -0.0856 -0.1049 -0.2395
  676loPI   GL210138  19.026   5.000   5.464 -0.1515 -0.2449 -0.2556
  676loPI   C1A10139  18.317   4.672   5.560  0.3161  0.0560  0.0691
  676loPI   C2A10140  18.095   4.995   5.783  0.2345 -0.1351 -0.1004
  676loPI   C3A10141  18.301   5.162   6.145  0.0990 -0.1286 -0.2442
  676loPI   C4A10142  18.491   5.359   6.504  0.1848 -0.0855 -0.0371
  676loPI   C5A10143  18.863   5.611   6.768 -0.0093  0.1608 -0.2734
  676loPI   C6A10144  18.932   6.019   6.882 -0.0982  0.2209 -0.1801
  676loPI   C1B10145  18.848   4.729   5.800  0.4481  0.0084  0.1186
  676loPI   C2B10146  18.637   4.800   6.203  0.0044 -0.0091 -0.1993
  676loPI   C3B10147  18.226   4.643   6.382 -0.3280  0.0760  0.2108
  676loPI   C4B10148  18.008   4.287   6.438  0.1356 -0.1586  0.3547
  677loPI    C110149  18.594   5.229   4.897  0.0012  0.0993  0.0977
  677loPI    C210150  18.320   5.070   5.142  0.0269 -0.1333 -0.0210
  677loPI    C310151  18.309   4.989   4.750  0.0433  0.1590 -0.0843
  677loPI   PO410152  18.595   5.470   5.016  0.1075  0.1156  0.0282
  677loPI   GL110153  18.532   5.601   5.345  0.1365  0.0235  0.1907
  677loPI   GL210154  18.616   5.827   5.389 -0.1567 -0.2273 -0.2181
  677loPI   C1A10155  18.640   5.215   5.632 -0.1912  0.4600  0.1212
  677loPI   C2A10156  18.936   5.204   6.038 -0.1506 -0.1225 -0.0981
  677loPI   C3A10157  18.988   5.271   6.425  0.2881  0.2020 -0.0400
  677loPI   C4A10158  19.155   5.118   6.884 -0.1197 -0.0090  0.0498
  677loPI   C5A10159  19.475   5.200   7.258  0.1877  0.3884  0.3493
  677loPI   C6A10160  19.483   5.107   7.660 -0.0285  0.0873 -0.1094
  677loPI   C1B10161  18.767   5.680   5.845  0.0572 -0.5116 -0.0713
  677loPI   C2B10162  18.927   5.916   6.101 -0.1395 -0.4987 -0.3416
  677loPI   C3B10163  19.267   6.173   6.053 -0.0732 -0.1782  0.1098
  677loPI   C4B10164  19.198   6.488   5.978  0.2666  0.2002  0.1372
  678loPI    C110165   0.339  14.966   4.819 -0.2865 -0.0070  0.1003
  678loPI    C210166  -0.031  15.113   4.778 -0.2702 -0.0328 -0.1528
  678loPI    C310167   0.084  14.798   4.560 -0.1239 -0.0738 -0.0179
  678loPI   PO410168   0.313  14.994   5.159  0.1066 -0.2607  0.2610
  678loPI   GL110169   0.417  15.270   5.523  0.1779  0.2553  0.0619
  678loPI   GL210170   0.652  15.453   5.483  0.2063 -0.2070 -0.3406
  678loPI   C1A10171   0.163  15.361   5.942 -0.1833  0.3239 -0.1413
  678loPI   C2A10172   0.128  15.428   6.277 -0.1372 -0.0366 -0.0721
  678loPI   C3A10173  -0.108  15.366   6.536 -0.1042  0.1348 -0.0496
  678loPI   C4A10174  -0.112  15.305   6.908 -0.3359 -0.1147  0.0866
  678loPI   C5A10175  -0.061  14.983   7.097  0.4005  0.0120 -0.2334
  678loPI   C6A10176   0.309  14.612   7.031 -0.2679 -0.0004  0.0126
  678loPI   C1B10177   0.722  15.294   5.933  0.2534  0.2004  0.3169
  678loPI   C2B10178   0.615  15.171   6.406  0.0474 -0.0926 -0.1197
  678loPI   C3B10179   0.339  15.025   6.735 -0.1570 -0.0112  0.4003
  678loPI   C4B10180  -0.114  14.896   6.597  0.0253 -0.1614  0.1244
  679loPI    C110181   9.496   1.182   4.705 -0.0058 -0.0897  0.1996
  679loPI    C210182   9.152   1.385   4.727 -0.0326 -0.1178  0.0488
  679loPI    C310183   9.223   1.145   4.415  0.2327  0.0878 -0.0527
  679loPI   PO410184   9.459   1.041   4.955  0.0670  0.1780  0.1676
  679loPI   GL110185   9.164   1.018   5.339 -0.1341 -0.3412 -0.0963
  679loPI   GL210186   9.093   1.273   5.278  0.2537  0.0917 -0.0264
  679loPI   C1A10187   8.964   0.902   5.667 -0.0647 -0.3573  0.1580
  679loPI   C2A10188   8.654   0.949   5.999  0.0747 -0.1145  0.0741
  679loPI   C3A10189   8.503   1.022   6.412 -0.1630  0.3327 -0.1710
  679loPI   C4A10190   8.186   1.213   6.520  0.1027  0.1549 -0.3365
  679loPI   C5A10191   7.944   1.203   6.778  0.1454 -0.0230 -0.1722
  679loPI   C6A10192   7.722   1.390   7.082  0.2247 -0.0787  0.0033
  679loPI   C1B10193   9.084   1.391   5.760  0.0890  0.1416  0.0142
  679loPI   C2B10194   9.072   1.365   6.144 -0.0383 -0.1584  0.0800
  679loPI   C3B10195   8.868   1.346   6.486  0.0109  0.2043  0.2357
  679loPI   C4B10196   8.856   1.428   6.885 -0.0723 -0.1526  0.1882
  680loPI    C110197  13.571  10.777   4.700 -0.0804  0.0293  0.0240
  680loPI    C210198  13.298  10.585   4.480 -0.0431  0.0903 -0.0762
  680loPI    C310199  13.647  10.694   4.316 -0.0356  0.1809 -0.0008
  680loPI   PO410200  13.546  10.642   4.933  0.2095  0.1161  0.1166
  680loPI   GL110201  13.231  10.478   5.276 -0.1833  0.0532 -0.1202
  680loPI   GL210202  13.252  10.268   4.999  0.0540  0.0994  0.0915
  680loPI   C1A10203  13.201  10.424   5.787 -0.2123  0.1181  0.1095
  680loPI   C2A10204  13.140  10.481   6.175 -0.0221 -0.0811 -0.2312
  680loPI   C3A10205  12.902  10.482   6.528  0.0821  0.0360 -0.1343
  680loPI   C4A10206  12.742  10.318   6.929 -0.3336 -0.1216  0.0193
  680loPI   C5A10207  12.800   9.932   7.078 -0.1688  0.1656  0.0139
  680loPI   C6A10208  13.140   9.760   7.269  0.4730  0.0284  0.0675
  680loPI   C1B10209  13.030   9.965   5.291 -0.1575  0.0423  0.2961
  680loPI   C2B10210  13.197   9.937   5.724 -0.1752  0.2307 -0.1646
  680loPI   C3B10211  12.981  10.027   6.144 -0.1185 -0.2994  0.0369
  680loPI   C4B10212  12.680  10.025   6.469 -0.3028 -0.0525  0.0324
  681loPI    C110213   3.911  15.629   5.048  0.1674  0.0313  0.0852
  681loPI    C210214   4.208  15.591   5.313  0.1095 -0.1650  0.1236
  681loPI    C310215   4.278  15.526   4.925  0.1231 -0.1842  0.1292
  681loPI   PO410216   3.801  15.879   5.159  0.0120  0.2338 -0.0113
  681loPI   GL110217   3.675  16.069   5.579  0.1615 -0.3534  0.0100
  681loPI   GL210218   3.995  16.041   5.576 -0.2809  0.2911 -0.0270
  681loPI   C1A10219   3.847  16.288   5.957  0.2335  0.0235  0.1041
  681loPI   C2A10220   4.012  16.275   6.368  0.0276  0.0124  0.0811
  681loPI   C3A10221   3.914  16.185   6.797 -0.3534  0.2039  0.1126
  681loPI   C4A10222   4.166  16.227   7.108 -0.0438  0.0811 -0.1192
  681loPI   C5A10223   4.436  16.039   7.307  0.0524  0.4261 -0.3652
  681loPI   C6A10224   4.853  16.151   7.520 -0.0624  0.3471  0.0128
  681loPI   C1B10225   4.272  15.932   6.002  0.2116 -0.0410  0.0874
  681loPI   C2B10226   4.476  15.965   6.348  0.1593  0.1194 -0.1646
  681loPI   C3B10227   4.587  16.002   6.742  0.1576 -0.0628  0.0433
  681loPI   C4B10228   4.949  15.895   7.073  0.0252 -0.1894 -0.2225
  682loPI    C110229   3.121  10.210   4.632 -0.1054  0.2622  0.1499
  682loPI    C210230   3.313  10.024   4.335  0.0232  0.1915  0.2759
  682loPI    C310231   3.107  10.358   4.261 -0.1907  0.0133  0.0520
  682loPI   PO410232   3.313  10.269   4.859  0.1967  0.1266  0.0722
  682loPI   GL110233   3.215  10.163   5.278 -0.0892 -0.5273  0.2004
  682loPI   GL210234   3.410  10.362   5.414  0.2237  0.0761 -0.0518
  682loPI   C1A10235   2.954  10.340   5.622  0.1126  0.1466 -0.3236
  682loPI   C2A10236   3.081  10.364   6.025  0.2060 -0.2370 -0.5118
  682loPI   C3A10237   3.236  10.275   6.408  0.0044 -0.3669  0.0650
  682loPI   C4A10238   3.321  10.112   6.877  0.1841  0.0084 -0.0041
  682loPI   C5A10239   3.443  10.234   7.300 -0.3125  0.2482  0.1025
  682loPI   C6A10240   3.298  10.476   7.641 -0.0632 -0.0984 -0.1374
  682loPI   C1B10241   3.266  10.744   5.559  0.2970 -0.1215  0.0976
  682loPI   C2B10242   2.982  10.884   5.744 -0.1090 -0.5130 -0.1905
  682loPI   C3B10243   3.000  10.814   6.251  0.1090  0.0808 -0.0493
  682loPI   C4B10244   2.959  10.650   6.607 -0.0000  0.0653  0.2416
  683loPI    C110245  10.590   1.722   4.889 -0.0084 -0.0106  0.0892
  683loPI    C210246  10.449   1.363   4.783  0.0428 -0.0188  0.0486
  683loPI    C310247  10.563   1.624   4.502  0.1161 -0.0154  0.0813
  683loPI   PO410248  10.802   1.640   5.071 -0.0079  0.1813  0.0305
  683loPI   GL110249  11.062   1.804   5.323 -0.1976 -0.1188 -0.0645
  683loPI   GL210250  11.388   1.840   5.385  0.0655  0.0729  0.0484
  683loPI   C1A10251  11.031   1.910   5.803  0.0001 -0.1805  0.0466
  683loPI   C2A10252  11.259   1.911   6.162  0.2762 -0.1061 -0.0251
  683loPI   C3A10253  11.342   2.070   6.561 -0.3165 -0.0955 -0.0438
  683loPI   C4A10254  11.473   2.426   6.815 -0.3858 -0.1431 -0.2432
  683loPI   C5A10255  11.239   2.774   7.076  0.2483 -0.0216 -0.1861
  683loPI   C6A10256  11.282   3.057   7.283  0.0502 -0.0404 -0.0527
  683loPI   C1B10257  11.512   1.549   5.677  0.2863  0.0370  0.0961
  683loPI   C2B10258  11.404   1.384   6.099 -0.0853 -0.0520 -0.1646
  683loPI   C3B10259  11.179   1.369   6.467  0.2393  0.3717 -0.1441
  683loPI   C4B10260  11.050   1.487   6.880 -0.4586  0.4461  0.3415
  684loPI    C110261   4.697   4.665   4.852  0.1360 -0.0550  0.1510
  684loPI    C210262   4.762   4.996   5.068  0.2485 -0.0823  0.1599
  684loPI    C310263   5.000   4.910   4.758  0.1886 -0.1290  0.1267
  684loPI   PO410264   4.684   4.416   5.051 -0.2197 -0.1638 -0.1422
  684loPI   GL110265   4.801   4.658   5.392  0.3289  0.1422  0.0099
  684loPI   GL210266   5.080   4.458   5.404  0.1187  0.2807 -0.2600
  684loPI   C1A10267   4.619   4.514   5.771  0.1396  0.0771  0.2131
  684loPI   C2A10268   4.374   4.429   6.119  0.1498  0.2620 -0.0144
  684loPI   C3A10269   4.528   4.394   6.540  0.0583  0.0168  0.1189
  684loPI   C4A10270   4.574   4.555   6.960 -0.2232 -0.1615 -0.3960
  684loPI   C5A10271   4.342   4.540   7.357 -0.0977  0.0739  0.2427
  684loPI   C6A10272   4.308   4.599   7.796 -0.0200 -0.1608 -0.0349
  684loPI   C1B10273   5.092   4.456   5.828 -0.0459 -0.1406 -0.1374
  684loPI   C2B10274   5.243   4.604   6.225 -0.2063  0.0003  0.0892
  684loPI   C3B10275   5.402   4.286   6.545 -0.1306  0.2340 -0.0437
  684loPI   C4B10276   5.087   4.361   6.933  0.0544  0.2498  0.1645
  685loPI    C110277  13.509  18.030   4.912  0.1655 -0.0048 -0.2820
  685loPI    C210278  13.294  18.357   4.992  0.1128 -0.1008 -0.0243
  685loPI    C310279  13.436  18.297   4.623  0.0460  0.1664 -0.0955
  685loPI   PO410280  13.656  18.038   5.124  0.3463  0.0123 -0.0566
  685loPI   GL110281  13.620  17.801   5.509  0.1168 -0.0309 -0.1100
  685loPI   GL210282  13.479  17.592   5.655  0.1793 -0.1901 -0.1016
  685loPI   C1A10283  13.841  17.967   5.889  0.1374 -0.5819 -0.0442
  685loPI   C2A10284  13.914  18.112   6.327 -0.0850  0.0574 -0.2132
  685loPI   C3A10285  13.984  18.296   6.725  0.0704 -0.1302  0.2559
  685loPI   C4A10286  13.679  18.312   7.135 -0.1313 -0.0866 -0.0550
  685loPI   C5A10287  13.323  18.286   7.373 -0.1175 -0.0268  0.1848
  685loPI   C6A10288  13.412  18.535   7.776 -0.1227  0.1082 -0.0698
  685loPI   C1B10289  13.400  17.716   6.053  0.0602  0.0441 -0.0603
  685loPI   C2B10290  13.522  17.647   6.534 -0.1678  0.1163 -0.4393
  685loPI   C3B10291  13.670  17.906   6.847 -0.3595 -0.1952  0.1458
  685loPI   C4B10292  13.914  17.834   7.177  0.0070 -0.0687 -0.3108
  686loPI    C110293   7.047   6.605   4.603  0.0642 -0.1387 -0.1393
  686loPI    C210294   7.432   6.698   4.547  0.0534 -0.0561 -0.0778
  686loPI    C310295   7.153   6.845   4.301  0.0711 -0.1943 -0.1812
  686loPI   PO410296   7.006   6.706   4.797 -0.2310 -0.3454  0.0023
  686loPI   GL110297   6.875   6.553   5.206  0.2684 -0.3548  0.1823
  686loPI   GL210298   6.672   6.365   5.312  0.0052 -0.2250  0.3858
  686loPI   C1A10299   6.929   6.807   5.481 -0.1559 -0.0362  0.1349
  686loPI   C2A10300   6.969   7.079   5.789 -0.1684 -0.2319  0.0162
  686loPI   C3A10301   7.164   7.091   6.220  0.0723 -0.1957  0.1970
  686loPI   C4A10302   7.522   6.819   6.496  0.1986  0.1441 -0.0398
  686loPI   C5A10303   7.554   6.910   6.902  0.0352  0.0607 -0.3830
  686loPI   C6A10304   7.632   6.536   7.215 -0.2047  0.0094  0.0975
  686loPI   C1B10305   6.704   6.493   5.762 -0.0770  0.0573  0.2081
  686loPI   C2B10306   6.864   6.711   6.079  0.1045 -0.0832 -0.1327
  686loPI   C3B10307   6.666   6.574   6.461 -0.0145 -0.0318 -0.3014
  686loPI   C4B10308   6.773   6.442   6.898  0.0634 -0.0796 -0.0522
  687loPI    C110309   8.015  18.129   4.577 -0.2178  0.3726  0.0147
  687loPI    C210310   8.339  18.352   4.508  0.0559  0.0613  0.2610
  687loPI    C310311   8.223  18.079   4.239  0.0318  0.1307  0.2005
  687loPI   PO410312   8.024  18.068   4.912  0.1169 -0.1516  0.2173
  687loPI   GL110313   8.211  18.092   5.399  0.1985 -0.0879 -0.0906
  687loPI   GL210314   8.555  17.809   5.520  0.1063  0.0261  0.0614
  687loPI   C1A10315   8.009  18.061   5.748 -0.0045  0.0872  0.2387
  687loPI   C2A10316   8.053  18.239   6.146 -0.1129 -0.1727 -0.4832
  687loPI   C3A10317   7.810  18.338   6.594 -0.1183  0.0170  0.1193
  687loPI   C4A10318   7.633  18.399   7.044 -0.1671 -0.1054  0.0163
  687loPI   C5A10319   7.293  18.596   7.350  0.0461 -0.2384  0.0043
  687loPI   C6A10320   6.870  18.823   7.189 -0.0146 -0.2255 -0.2809
  687loPI   C1B10321   8.390  17.852   5.999  0.0886  0.1403 -0.0952
  687loPI   C2B10322   8.313  17.944   6.433 -0.0206  0.0670  0.0054
  687loPI   C3B10323   8.404  17.885   6.883  0.1149  0.2582  0.1194
  687loPI   C4B10324   8.254  17.849   7.325 -0.3664  0.0516  0.2613
  688loPI    C110325  15.687   6.159   5.248 -0.0798  0.2192  0.0552
  688loPI    C210326  15.498   6.506   5.185 -0.0197  0.2067 -0.2049
  688loPI    C310327  15.564   6.255   4.880 -0.2278 -0.1205  0.0126
  688loPI   PO410328  15.685   6.010   5.364  0.0630  0.4305  0.1217
  688loPI   GL110329  15.303   5.753   5.601  0.0317  0.1079  0.1061
  688loPI   GL210330  15.013   5.577   5.562 -0.1223  0.2559  0.2876
  688loPI   C1A10331  15.420   5.670   6.055  0.1249 -0.2552 -0.0466
  688loPI   C2A10332  15.534   5.546   6.453  0.2951 -0.0659  0.0666
  688loPI   C3A10333  15.877   5.425   6.770  0.1932 -0.3004  0.2216
  688loPI   C4A10334  16.288   5.670   6.990 -0.0059 -0.2633  0.0272
  688loPI   C5A10335  16.473   5.779   7.369 -0.0152  0.0646 -0.1222
  688loPI   C6A10336  16.840   5.774   7.534 -0.1254 -0.2115 -0.1373
  688loPI   C1B10337  14.973   5.452   5.895 -0.0350  0.0522 -0.1813
  688loPI   C2B10338  14.944   5.401   6.289 -0.1368 -0.2584  0.1786
  688loPI   C3B10339  15.028   5.408   6.723 -0.3460  0.2063 -0.0542
  688loPI   C4B10340  15.397   5.261   6.878 -0.2218 -0.0992  0.1798
  689loPI    C110341  18.869  15.455   5.038  0.2669 -0.1088  0.1115
  689loPI    C210342  18.521  15.387   5.222  0.1087  0.2584 -0.0414
  689loPI    C310343  18.626  15.166   4.906  0.0358  0.1176  0.0320
  689loPI   PO410344  19.069  15.433   5.175  0.2547  0.0995 -0.1375
  689loPI   GL110345  19.026  15.489   5.561 -0.1385 -0.2420 -0.0697
  689loPI   GL210346  19.404  15.686   5.548  0.0040  0.1034 -0.1292
  689loPI   C1A10347  18.868  15.605   6.034 -0.0596  0.0959 -0.1276
  689loPI   C2A10348  18.744  15.677   6.366  0.2225  0.0086  0.1624
  689loPI   C3A10349  18.594  15.434   6.897 -0.2281 -0.0327 -0.0819
  689loPI   C4A10350  18.661  15.224   7.305  0.2080 -0.1196 -0.2913
  689loPI   C5A10351  18.449  14.992   7.568 -0.0571 -0.0335 -0.2872
  689loPI   C6A10352  18.081  15.002   7.724  0.0469  0.0135 -0.2376
  689loPI   C1B10353  19.633  15.748   5.931 -0.1202  0.0707  0.0641
  689loPI   C2B10354  19.689  15.775   6.382 -0.1554 -0.1187  0.0911
  689loPI   C3B10355  19.642  15.503   6.742 -0.0257  0.0719  0.0289
  689loPI   C4B10356  19.563  15.340   7.167  0.0776 -0.2041 -0.3005
  690loPI    C110357  10.299  10.629   4.574  0.0044 -0.1016  0.0330
  690loPI    C210358  10.028  10.551   4.290 -0.2071 -0.1463  0.2441
  690loPI    C310359  10.198  10.250   4.492 -0.0486 -0.1151  0.1586
  690loPI   PO410360  10.182  10.802   4.778 -0.1202  0.1134  0.0975
  690loPI   GL110361  10.081  10.929   5.206  0.3729 -0.0152 -0.0930
  690loPI   GL210362   9.833  10.745   5.152  0.2136 -0.3305 -0.2369
  690loPI   C1A10363  10.159  11.116   5.618  0.0033  0.0083 -0.1726
  690loPI   C2A10364  10.191  11.153   6.128 -0.1565  0.0109  0.0286
  690loPI   C3A10365  10.514  11.316   6.332  0.0262  0.0375 -0.0088
  690loPI   C4A10366  10.588  11.389   6.766 -0.1339 -0.1607 -0.1857
  690loPI   C5A10367  10.484  11.547   7.227  0.0308 -0.0631  0.1495
  690loPI   C6A10368  10.388  11.642   7.610  0.0253 -0.4025  0.1758
  690loPI   C1B10369   9.893  10.655   5.580 -0.0636 -0.1141  0.1815
  690loPI   C2B10370   9.835  10.332   5.822 -0.3824  0.2297 -0.0439
  690loPI   C3B10371   9.994   9.981   5.905  0.3369 -0.0208 -0.5266
  690loPI   C4B10372  10.046   9.970   6.342 -0.1378 -0.4295  0.1497
  691loPI    C110373   1.506   6.455   4.407 -0.0457  0.1478  0.1539
  691loPI    C210374   1.448   6.845   4.476 -0.1020  0.1689 -0.0094
  691loPI    C310375   1.387   6.695   4.110  0.0408  0.0297  0.0227
  691loPI   PO410376   1.334   6.325   4.545  0.1260  0.0756  0.0579
  691loPI   GL110377   1.112   6.258   4.921 -0.0781 -0.2714 -0.1286
  691loPI   GL210378   1.069   6.050   5.193  0.1156  0.0851  0.0204
  691loPI   C1A10379   1.398   6.456   5.388  0.3163 -0.0831  0.2902
  691loPI   C2A10380   1.613   6.304   5.811  0.0714 -0.1918  0.1510
  691loPI   C3A10381   1.675   6.380   6.176  0.1467  0.2472 -0.0246
  691loPI   C4A10382   1.363   6.229   6.567 -0.3295  0.0302 -0.1486
  691loPI   C5A10383   1.288   6.546   6.798  0.0763  0.1031  0.0930
  691loPI   C6A10384   1.370   6.977   6.767  0.2507 -0.0427 -0.1330
  691loPI   C1B10385   1.501   5.927   5.447  0.0645 -0.3201  0.0821
  691loPI   C2B10386   1.581   5.599   5.669 -0.5140 -0.0066  0.0116
  691loPI   C3B10387   1.950   5.486   5.956  0.2005  0.0731  0.1407
  691loPI   C4B10388   2.185   5.458   6.268 -0.2877 -0.1993 -0.0673
  692loPI    C110389  15.795   7.676   4.989  0.0610  0.0655 -0.1535
  692loPI    C210390  15.715   7.422   4.691  0.4897  0.0584 -0.2688
  692loPI    C310391  16.053   7.383   4.902  0.2403  0.1277  0.1544
  692loPI   PO410392  15.689   7.661   5.171 -0.0511  0.0766  0.3453
  692loPI   GL110393  15.753   7.473   5.667  0.0024  0.3081 -0.2253
  692loPI   GL210394  15.938   7.238   5.452 -0.2451  0.2109  0.1234
  692loPI   C1A10395  15.543   7.257   6.067 -0.0452  0.1401 -0.2564
  692loPI   C2A10396  15.469   7.122   6.418 -0.1202  0.0060  0.3314
  692loPI   C3A10397  15.594   6.719   6.605 -0.1073 -0.1493 -0.1690
  692loPI   C4A10398  15.881   6.619   6.799 -0.0676  0.0027  0.4401
  692loPI   C5A10399  16.243   6.702   6.621  0.2433 -0.1694  0.2556
  692loPI   C6A10400  16.594   6.717   6.417 -0.2468 -0.4479 -0.1098
  692loPI   C1B10401  15.975   7.068   5.907  0.1093  0.0472  0.2250
  692loPI   C2B10402  15.912   6.994   6.314 -0.3113  0.1108 -0.1036
  692loPI   C3B10403  16.067   7.165   6.731  0.0876  0.0775 -0.2457
  692loPI   C4B10404  15.913   6.953   7.189  0.1214  0.1219 -0.3613
  693loPI    C110405  11.080  18.986   4.829 -0.3135 -0.1635  0.2732
  693loPI    C210406  11.230  18.664   4.646 -0.0940  0.0789  0.0170
  693loPI    C310407  11.017  18.931   4.438 -0.0515  0.2329  0.1690
  693loPI   PO410408  11.255  19.110   4.986 -0.2228 -0.3191 -0.3373
  693loPI   GL110409  11.594  19.256   5.240  0.1041 -0.0776  0.2336
  693loPI   GL210410  11.669  19.026   5.509  0.0399  0.3463 -0.1759
  693loPI   C1A10411  11.485  19.606   5.595  0.2559 -0.0600 -0.1345
  693loPI   C2A10412  11.405  19.841   5.947 -0.2310  0.3533 -0.1077
  693loPI   C3A10413  11.317  20.122   6.249  0.3344  0.0133 -0.0589
  693loPI   C4A10414  11.284  20.151   6.663 -0.1082 -0.0327  0.0647
  693loPI   C5A10415  11.201  20.308   7.082  0.0260 -0.0732 -0.1605
  693loPI   C6A10416  10.848  20.097   7.386 -0.1839 -0.1206 -0.0068
  693loPI   C1B10417  11.334  19.131   5.733  0.1346  0.4012  0.2844
  693loPI   C2B10418  11.193  19.392   6.094  0.0984  0.2799  0.1702
  693loPI   C3B10419  10.718  19.456   6.291  0.2048 -0.0769 -0.0378
  693loPI   C4B10420  10.690  19.460   6.739  0.1587  0.1289 -0.0652
  694loPI    C110421  12.683   7.278   4.662  0.3698 -0.0975  0.0789
  694loPI    C210422  12.940   7.111   4.405  0.4012  0.0840 -0.0085
  694loPI    C310423  12.791   7.475   4.332  0.2717  0.0620  0.1412
  694loPI   PO410424  12.825   7.315   4.861 -0.2197  0.3733  0.2109
  694loPI   GL110425  12.821   7.455   5.267 -0.0335 -0.1836  0.4820
  694loPI   GL210426  12.449   7.669   5.281  0.0861 -0.0700  0.1094
  694loPI   C1A10427  12.751   7.478   5.671  0.1595 -0.3474 -0.4777
  694loPI   C2A10428  12.579   7.499   6.168 -0.1288 -0.2447 -0.2800
  694loPI   C3A10429  12.793   7.430   6.563  0.0815 -0.0404 -0.0823
  694loPI   C4A10430  12.807   7.376   7.011 -0.1878  0.0332  0.1240
  694loPI   C5A10431  12.684   7.697   7.259 -0.0897  0.2802  0.0716
  694loPI   C6A10432  12.663   7.707   7.747  0.0321  0.0037  0.1759
  694loPI   C1B10433  12.355   7.836   5.686  0.1699 -0.1214  0.1330
  694loPI   C2B10434  12.330   7.887   6.204 -0.0632 -0.1051  0.1369
  694loPI   C3B10435  12.449   7.788   6.645 -0.2795  0.0518 -0.2201
  694loPI   C4B10436  12.222   7.794   7.019  0.0473 -0.1362 -0.3345
  695loPI    C110437  15.676  17.930   4.726  0.1751 -0.1169  0.0815
  695loPI    C210438  15.346  17.888   4.948  0.0851 -0.4202 -0.1038
  695loPI    C310439  15.321  18.039   4.578  0.2201 -0.0177  0.0457
  695loPI   PO410440  15.818  18.093   5.010 -0.0987 -0.1040  0.0565
  695loPI   GL110441  16.018  17.976   5.318 -0.2914 -0.0925  0.1303
  695loPI   GL210442  16.150  17.626   5.419 -0.0774 -0.2205 -0.0629
  695loPI   C1A10443  16.041  18.060   5.730 -0.1339 -0.5666  0.1024
  695loPI   C2A10444  15.983  18.096   6.218  0.3649  0.1242  0.1994
  695loPI   C3A10445  16.054  18.023   6.595  0.0644  0.1454 -0.0652
  695loPI   C4A10446  15.839  17.980   6.974  0.0505  0.3206  0.1932
  695loPI   C5A10447  15.742  17.734   7.412 -0.1776  0.1345  0.1215
  695loPI   C6A10448  15.507  17.778   7.773 -0.2211 -0.0661 -0.0737
  695loPI   C1B10449  15.881  17.607   5.774 -0.0745 -0.0634  0.2557
  695loPI   C2B10450  15.614  17.387   6.013 -0.2769  0.0982  0.3725
  695loPI   C3B10451  15.670  17.257   6.455 -0.1261 -0.2040  0.2649
  695loPI   C4B10452  15.825  16.995   6.800  0.3230 -0.1161 -0.3079
  696loPI    C110453  17.855  11.225   5.126  0.0621  0.0498  0.0584
  696loPI    C210454  17.676  11.482   4.877 -0.2311  0.0148  0.2287
  696loPI    C310455  17.909  11.192   4.731 -0.1724  0.1675  0.0144
  696loPI   PO410456  17.922  11.291   5.449  0.0209 -0.0913  0.1470
  696loPI   GL110457  18.116  11.137   5.710  0.1333 -0.1642 -0.1229
  696loPI   GL210458  18.187  10.909   5.845 -0.0363 -0.2418  0.2711
  696loPI   C1A10459  18.142  11.477   5.998  0.1758  0.0288 -0.0508
  696loPI   C2A10460  18.402  11.586   6.440 -0.1502  0.2356 -0.0275
  696loPI   C3A10461  18.517  11.353   6.833 -0.0740  0.0480  0.0852
  696loPI   C4A10462  18.659  11.475   7.189 -0.0298 -0.1747  0.0254
  696loPI   C5A10463  18.913  11.630   7.613 -0.0241  0.0204 -0.0787
  696loPI   C6A10464  19.165  11.757   7.930 -0.0806  0.0185  0.2499
  696loPI   C1B10465  18.221  11.028   6.315 -0.1518  0.1752  0.1914
  696loPI   C2B10466  18.246  10.878   6.742 -0.1008  0.2085  0.1202
  696loPI   C3B10467  18.098  10.851   7.217 -0.1787 -0.2175  0.1234
  696loPI   C4B10468  17.752  10.875   7.472 -0.1155  0.1410  0.2434
  697loPI    C110469   3.362  12.968   4.701  0.0726  0.0156 -0.1144
  697loPI    C210470   3.018  12.938   4.500  0.0832 -0.2428 -0.0973
  697loPI    C310471   3.366  12.937   4.302  0.0721  0.1605 -0.1260
  697loPI   PO410472   3.321  12.842   4.909 -0.0407 -0.5237 -0.0576
  697loPI   GL110473   3.205  12.715   5.323  0.0238  0.0692  0.1792
  697loPI   GL210474   2.947  12.680   5.475  0.1289  0.2503  0.0367
  697loPI   C1A10475   3.526  12.679   5.694 -0.0097 -0.1597 -0.0919
  697loPI   C2A10476   3.723  12.376   5.827  0.1353  0.2338  0.0664
  697loPI   C3A10477   4.016  12.201   6.129 -0.0973 -0.0982  0.1895
  697loPI   C4A10478   3.841  12.078   6.459 -0.0665 -0.0316  0.1984
  697loPI   C5A10479   3.776  11.727   6.776  0.0192  0.1360 -0.0774
  697loPI   C6A10480   3.841  11.420   7.099  0.2817  0.1541  0.2674
  697loPI   C1B10481   2.882  12.690   5.780 -0.0971 -0.4296 -0.0145
  697loPI   C2B10482   2.779  12.726   6.274 -0.1788  0.0262 -0.1338
  697loPI   C3B10483   2.686  12.866   6.652 -0.1643 -0.1156 -0.6580
  697loPI   C4B10484   2.600  12.950   7.090  0.0621 -0.0502 -0.1214
  698loPI    C110485   6.904   2.384   5.296  0.1569  0.1025  0.0007
  698loPI    C210486   6.964   2.549   4.936  0.5708 -0.0981 -0.0285
  698loPI    C310487   7.176   2.674   5.251  0.4508 -0.1559  0.0761
  698loPI   PO410488   6.754   2.177   5.217 -0.4134 -0.0408  0.2298
  698loPI   GL110489   6.454   2.055   5.440 -0.2786 -0.3735 -0.2917
  698loPI   GL210490   6.511   1.748   5.495 -0.0270 -0.1914 -0.2480
  698loPI   C1A10491   6.207   2.042   5.879 -0.0387 -0.2169  0.2835
  698loPI   C2A10492   6.171   1.957   6.290  0.1056 -0.0393 -0.2522
  698loPI   C3A10493   6.284   1.671   6.584  0.4338 -0.0270 -0.0247
  698loPI   C4A10494   6.655   1.684   6.841 -0.0689  0.0162 -0.0718
  698loPI   C5A10495   6.999   1.463   7.069 -0.0207 -0.4367  0.2350
  698loPI   C6A10496   7.360   1.345   6.803  0.0037 -0.1216 -0.3358
  698loPI   C1B10497   6.557   1.700   5.945  0.1149 -0.3470 -0.0371
  698loPI   C2B10498   6.707   1.693   6.345 -0.1796  0.1966  0.0854
  698loPI   C3B10499   6.966   1.414   6.494 -0.0436  0.0205 -0.1042
  698loPI   C4B10500   7.149   0.938   6.414 -0.4134  0.1253  0.6098
  699loPI    C110501   0.126  14.478   4.978  0.2018 -0.2160  0.1713
  699loPI    C210502   0.061  14.086   4.929  0.1286 -0.2203  0.3002
  699loPI    C310503   0.238  14.297   4.639  0.0757 -0.3283  0.1887
  699loPI   PO410504   0.101  14.500   5.244 -0.0792  0.2004  0.0296
  699loPI   GL110505   0.128  14.288   5.631  0.0502  0.1663 -0.1541
  699loPI   GL210506   0.399  14.096   5.702 -0.0120  0.3044 -0.1954
  699loPI   C1A10507   0.031  14.597   5.962  0.1756 -0.2176 -0.1843
  699loPI   C2A10508  -0.243  15.001   6.083  0.0541 -0.0146 -0.1793
  699loPI   C3A10509  -0.523  15.131   6.450 -0.4721  0.0263 -0.1336
  699loPI   C4A10510  -0.486  14.938   6.931  0.2066  0.0603 -0.0893
  699loPI   C5A10511  -0.442  14.694   7.330 -0.1311 -0.2278  0.4048
  699loPI   C6A10512  -0.530  14.298   7.574 -0.1196  0.0555  0.0058
  699loPI   C1B10513   0.590  14.215   6.086  0.0549 -0.1545  0.2794
  699loPI   C2B10514   0.624  14.445   6.471 -0.0032 -0.0470 -0.1862
  699loPI   C3B10515   0.721  14.378   6.848 -0.0860 -0.1101  0.0722
  699loPI   C4B10516   1.049  14.302   7.104  0.3978  0.1219  0.1709
  700loPI    C110517   9.508   9.649   4.658  0.0269  0.1190  0.0814
  700loPI    C210518   9.164   9.797   4.518 -0.1300 -0.0896  0.2397
  700loPI    C310519   9.351   9.979   4.822 -0.2581 -0.1451  0.3525
  700loPI   PO410520   9.461   9.339   4.655  0.0602  0.2593 -0.0708
  700loPI   GL110521   9.577   9.085   4.952  0.0353  0.2373  0.0180
  700loPI   GL210522   9.444   8.966   5.218  0.2005  0.1029  0.0299
  700loPI   C1A10523   9.669   9.340   5.440  0.3311 -0.2236 -0.3737
  700loPI   C2A10524   9.831   9.422   5.832 -0.0953  0.0732 -0.2621
  700loPI   C3A10525   9.892   9.547   6.199  0.2177  0.2334 -0.1834
  700loPI   C4A10526   9.683   9.618   6.553 -0.1135  0.1265 -0.0759
  700loPI   C5A10527   9.815   9.772   6.946  0.1177  0.2845  0.0454
  700loPI   C6A10528   9.833  10.079   7.331 -0.1527 -0.1083  0.0605
  700loPI   C1B10529   9.209   9.276   5.485  0.1759 -0.0998 -0.0106
  700loPI   C2B10530   8.939   9.321   5.822 -0.0164  0.5051  0.3648
  700loPI   C3B10531   8.856   9.171   6.175 -0.1260  0.2483 -0.0860
  700loPI   C4B10532   8.887   9.391   6.597  0.0436 -0.0063  0.0618
  701loPI    C110533  13.215   1.461   4.630  0.2994 -0.2510  0.0444
  701loPI    C210534  13.511   1.728   4.603 -0.0542  0.1390 -0.0864
  701loPI    C310535  13.320   1.607   4.273 -0.1137 -0.0261  0.0076
  701loPI   PO410536  13.160   1.330   5.003  0.1924 -0.2292  0.1236
  701loPI   GL110537  13.417   1.268   5.367  0.0197 -0.0242  0.2082
  701loPI   GL210538  13.180   1.097   5.478 -0.1087  0.0247 -0.2106
  701loPI   C1A10539  13.593   1.324   5.644  0.2549 -0.0273 -0.1406
  701loPI   C2A10540  13.583   1.200   6.070 -0.2115  0.1629 -0.3189
  701loPI   C3A10541  13.292   1.165   6.385  0.1366  0.2591 -0.1439
  701loPI   C4A10542  13.283   1.151   6.865  0.1617 -0.1062 -0.2897
  701loPI   C5A10543  13.280   0.994   7.266  0.0375 -0.0395 -0.2562
  701loPI   C6A10544  13.264   1.036   7.666 -0.2004  0.1380 -0.2773
  701loPI   C1B10545  12.830   1.113   5.785 -0.1297  0.2380  0.0025
  701loPI   C2B10546  12.760   1.067   6.171  0.1904 -0.0764  0.0442
  701loPI   C3B10547  12.857   0.883   6.618 -0.0905  0.0900  0.2894
  701loPI   C4B10548  12.552   0.707   6.888 -0.1929 -0.0881  0.0332
  702loPI    C110549  11.377   2.288   4.659  0.1155 -0.1140  0.2012
  702loPI    C210550  11.513   1.951   4.492  0.0456  0.0386 -0.1718
  702loPI    C310551  11.338   2.230   4.266  0.1630  0.3574  0.1220
  702loPI   PO410552  11.325   2.209   4.901  0.2040  0.0027 -0.1663
  702loPI   GL110553  11.248   2.336   5.388 -0.3757 -0.0437  0.1410
  702loPI   GL210554  11.482   2.308   5.592 -0.1925 -0.1774 -0.0219
  702loPI   C1A10555  10.964   2.448   5.655  0.1083  0.0297  0.0089
  702loPI   C2A10556  10.880   2.308   6.065 -0.2303  0.1548  0.0252
  702loPI   C3A10557  10.609   2.398   6.444 -0.0942  0.1249  0.3276
  702loPI   C4A10558  10.378   2.526   6.783  0.3136 -0.1507  0.0174
  702loPI   C5A10559  10.072   2.366   7.077 -0.0295  0.1279  0.0073
  702loPI   C6A10560   9.744   2.415   7.453 -0.0557  0.0058 -0.0403
  702loPI   C1B10561  11.750   2.323   5.938 -0.0350 -0.0659 -0.1172
  702loPI   C2B10562  11.784   2.183   6.340  0.0881  0.0668 -0.2672
  702loPI   C3B10563  11.821   2.070   6.704  0.0213 -0.1116  0.0142
  702loPI   C4B10564  11.644   2.017   7.033 -0.2373  0.1143 -0.0279
  703loPI    C110565  14.575  14.283   4.494 -0.0934  0.0037 -0.1197
  703loPI    C210566  14.797  14.615   4.513 -0.0345 -0.0321 -0.1773
  703loPI    C310567  14.453  14.615   4.308 -0.0648  0.0103 -0.1267
  703loPI   PO410568  14.617  14.230   4.807  0.1146  0.2149  0.0558
  703loPI   GL110569  14.905  14.280   5.123 -0.1284 -0.1790  0.3246
  703loPI   GL210570  14.925  13.944   5.139 -0.0092  0.2280  0.1134
  703loPI   C1A10571  14.912  14.629   5.444 -0.1650  0.0049 -0.2912
  703loPI   C2A10572  15.102  14.465   5.800  0.0488 -0.2541  0.0611
  703loPI   C3A10573  15.231  14.637   6.275  0.3804 -0.0734  0.2648
  703loPI   C4A10574  15.282  14.861   6.731  0.0788 -0.1115 -0.2426
  703loPI   C5A10575  15.152  14.771   7.094  0.1462  0.1131 -0.0917
  703loPI   C6A10576  15.187  14.412   7.394  0.2500 -0.3346  0.0656
  703loPI   C1B10577  14.918  13.860   5.596  0.2516 -0.0897 -0.0722
  703loPI   C2B10578  14.834  14.070   6.020 -0.1957  0.0535 -0.1370
  703loPI   C3B10579  15.079  13.980   6.372  0.0989  0.0772  0.0492
  703loPI   C4B10580  15.417  13.674   6.625  0.1152  0.1969 -0.3032
  704loPI    C110581  10.773  12.840   4.916  0.0534  0.2615 -0.1363
  704loPI    C210582  11.155  12.914   4.826  0.1068 -0.0955 -0.2157
  704loPI    C310583  10.910  12.764   4.548 -0.0192 -0.1302 -0.0869
  704loPI   PO410584  10.788  12.766   5.248  0.1875  0.0575  0.1059
  704loPI   GL110585  10.491  12.888   5.686  0.1382 -0.2246 -0.1953
  704loPI   GL210586  10.354  12.666   5.595 -0.0813 -0.2975  0.2208
  704loPI   C1A10587  10.628  13.256   5.925 -0.2912  0.1430  0.1600
  704loPI   C2A10588  10.686  13.486   6.286 -0.0910 -0.3622  0.0318
  704loPI   C3A10589  10.885  13.765   6.583 -0.1867  0.0938 -0.0713
  704loPI   C4A10590  11.202  13.933   6.960  0.5181 -0.1689  0.3820
  704loPI   C5A10591  11.486  13.977   7.298 -0.3075  0.4512 -0.1494
  704loPI   C6A10592  11.505  14.153   7.713  0.0590  0.2364  0.3013
  704loPI   C1B10593  10.326  12.573   6.101  0.2475  0.1321  0.0449
  704loPI   C2B10594  10.344  12.439   6.594 -0.0745  0.0443 -0.3234
  704loPI   C3B10595  10.236  12.188   6.873 -0.2007  0.0417 -0.1698
  704loPI   C4B10596  10.602  12.109   7.246 -0.1909  0.2414  0.3096
  705loPI    C110597   2.314   9.848   4.736  0.1469 -0.1963 -0.0290
  705loPI    C210598   2.096   9.562   4.561 -0.3422 -0.0062  0.2508
  705loPI    C310599   2.026   9.946   4.476  0.1765  0.0468  0.0279
  705loPI   PO410600   2.281   9.820   4.980 -0.1450  0.1028 -0.2193
  705loPI   GL110601   2.210   9.739   5.424 -0.3553 -0.4950 -0.2596
  705loPI   GL210602   2.563   9.851   5.516  0.1781  0.0545 -0.0470
  705loPI   C1A10603   2.081   9.949   5.797  0.3274  0.0973 -0.1702
  705loPI   C2A10604   2.151  10.389   6.004  0.0582  0.1065 -0.2555
  705loPI   C3A10605   2.066  10.683   6.370 -0.3752 -0.2891 -0.1297
  705loPI   C4A10606   2.071  10.656   6.846 -0.2666 -0.3294 -0.1100
  705loPI   C5A10607   2.129  10.757   7.274 -0.1794  0.2664 -0.1381
  705loPI   C6A10608   2.196  11.134   7.473  0.1398 -0.2476  0.1405
  705loPI   C1B10609   2.623  10.045   5.939 -0.0774 -0.0449  0.1716
  705loPI   C2B10610   2.837   9.999   6.314  0.1879 -0.5143  0.2596
  705loPI   C3B10611   2.856   9.782   6.675  0.0876 -0.2733 -0.0226
  705loPI   C4B10612   2.646   9.564   6.847  0.3913  0.2352  0.2436
  706loPI    C110613  10.372   8.977   4.750 -0.0894 -0.0231  0.1961
  706loPI    C210614  10.667   9.086   4.503  0.0663 -0.3544  0.2303
  706loPI    C310615  10.347   9.322   4.548  0.2670 -0.0502  0.0991
  706loPI   PO410616  10.503   8.772   4.849 -0.0682 -0.4676 -0.0436
  706loPI   GL110617  10.624   8.787   5.241 -0.2002 -0.2272  0.1390
  706loPI   GL210618  10.337   8.433   5.278  0.5051  0.0247  0.2100
  706loPI   C1A10619  10.525   8.651   5.687 -0.0599 -0.0048  0.2918
  706loPI   C2A10620  10.183   8.618   5.967 -0.0594 -0.0323 -0.1682
  706loPI   C3A10621  10.040   8.610   6.362 -0.0695 -0.2187 -0.2396
  706loPI   C4A10622   9.879   8.729   6.699 -0.0318 -0.1427  0.2339
  706loPI   C5A10623   9.516   8.853   6.917 -0.1266  0.3552  0.0128
  706loPI   C6A10624   9.242   8.994   7.294 -0.1221  0.1152  0.0595
  706loPI   C1B10625   9.954   8.318   5.621 -0.1426  0.0135 -0.1211
  706loPI   C2B10626   9.630   8.503   5.949  0.2557 -0.4671 -0.2733
  706loPI   C3B10627   9.762   8.995   6.092  0.1887  0.1838  0.0553
  706loPI   C4B10628   9.770   9.121   6.376  0.2445  0.0307 -0.0539
  707loPI    C110629  19.121   0.627   4.732  0.0708 -0.2556  0.0550
  707loPI    C210630  18.837   0.596   4.452 -0.0940  0.1365  0.1722
  707loPI    C310631  19.217   0.662   4.345 -0.1094  0.0026  0.0311
  707loPI   PO410632  19.046   0.851   4.851 -0.2160  0.3616 -0.3804
  707loPI   GL110633  18.925   1.072   5.256  0.4374  0.1197  0.0797
  707loPI   GL210634  18.589   0.973   5.342  0.0150 -0.2554 -0.2598
  707loPI   C1A10635  19.189   1.382   5.591  0.0469  0.0046 -0.0718
  707loPI   C2A10636  19.328   1.467   6.067  0.0875 -0.1146  0.0521
  707loPI   C3A10637  19.395   1.257   6.433 -0.2285  0.0467 -0.0430
  707loPI   C4A10638  19.531   1.519   6.793 -0.1925  0.0634  0.0071
  707loPI   C5A10639  19.585   1.690   7.191 -0.0463  0.0747  0.1310
  707loPI   C6A10640  19.743   1.790   7.550  0.1157  0.1343 -0.0786
  707loPI   C1B10641  18.490   0.805   5.845  0.3403  0.1209  0.0657
  707loPI   C2B10642  18.590   0.662   6.205 -0.1597 -0.1737 -0.0031
  707loPI   C3B10643  18.616   0.688   6.688  0.1546 -0.0260 -0.0582
  707loPI   C4B10644  18.440   0.598   7.178  0.2996 -0.0015  0.4729
  708loPI    C110645   3.177   5.799   4.948  0.3038 -0.0608 -0.0144
  708loPI    C210646   3.547   5.664   4.881  0.2468 -0.1643 -0.1251
  708loPI    C310647   3.419   5.995   4.697  0.3635  0.0053  0.0940
  708loPI   PO410648   3.112   5.837   5.187  0.0509  0.0170 -0.1615
  708loPI   GL110649   3.266   5.877   5.556  0.0716 -0.1544  0.0067
  708loPI   GL210650   3.195   6.161   5.685  0.0952  0.0031  0.0622
  708loPI   C1A10651   3.695   6.091   5.658  0.0224  0.2641 -0.2200
  708loPI   C2A10652   3.990   6.359   5.798  0.0643  0.2872  0.1688
  708loPI   C3A10653   3.934   6.625   6.142  0.2470 -0.1010  0.1358
  708loPI   C4A10654   3.894   6.807   6.549  0.0535  0.1386  0.1881
  708loPI   C5A10655   4.080   6.777   6.964 -0.1638 -0.2450 -0.1997
  708loPI   C6A10656   4.485   6.898   7.109  0.3064 -0.2488  0.0438
  708loPI   C1B10657   3.229   6.104   6.100  0.1876 -0.1705  0.1649
  708loPI   C2B10658   3.400   6.086   6.473  0.1258 -0.2528 -0.1213
  708loPI   C3B10659   3.215   6.457   6.766 -0.0598  0.0122 -0.4226
  708loPI   C4B10660   3.103   6.632   7.193  0.3735 -0.1927  0.0702
  709loPI    C110661  16.872  13.837   4.961  0.1365  0.0407 -0.2926
  709loPI    C210662  16.550  14.069   4.915  0.0167 -0.0395  0.1096
  709loPI    C310663  16.595  13.743   4.688  0.0394  0.2111 -0.2542
  709loPI   PO410664  16.949  13.810   5.189 -0.0838  0.0597  0.3304
  709loPI   GL110665  16.759  13.841   5.530 -0.0495 -0.1975  0.0057
  709loPI   GL210666  16.909  13.570   5.662  0.0762  0.2714 -0.1807
  709loPI   C1A10667  16.624  13.925   5.874 -0.0093 -0.0561 -0.2465
  709loPI   C2A10668  16.547  13.867   6.253  0.1607 -0.1673 -0.2498
  709loPI   C3A10669  16.582  13.881   6.714  0.0424 -0.0788 -0.0730
  709loPI   C4A10670  16.601  13.962   7.123 -0.1184  0.1447  0.0120
  709loPI   C5A10671  16.481  13.879   7.532  0.1263 -0.1510  0.4271
  709loPI   C6A10672  16.321  13.516   7.737  0.0724 -0.2143 -0.1662
  709loPI   C1B10673  16.988  13.624   6.053 -0.0917  0.1005 -0.0002
  709loPI   C2B10674  17.082  13.513   6.455 -0.0711 -0.2090 -0.2054
  709loPI   C3B10675  17.196  13.299   6.750  0.2842  0.0294 -0.0354
  709loPI   C4B10676  17.193  13.144   7.205  0.1183  0.2791  0.3022
  710loPI    C110677  15.623  18.878   5.058  0.2315 -0.0650  0.2931
  710loPI    C210678  16.007  18.816   4.968  0.0875 -0.2561 -0.2231
  710loPI    C310679  15.729  18.553   4.852 -0.2018 -0.1267  0.1566
  710loPI   PO410680  15.627  18.887   5.351  0.1335 -0.2383  0.2559
  710loPI   GL110681  15.407  18.474   5.598 -0.0247 -0.0927 -0.2072
  710loPI   GL210682  15.420  18.702   5.737  0.0929 -0.0687  0.0343
  710loPI   C1A10683  15.485  18.187   5.862 -0.0975 -0.1121 -0.2396
  710loPI   C2A10684  15.483  17.907   6.206  0.0756  0.1344  0.2481
  710loPI   C3A10685  15.660  17.734   6.567  0.3963  0.2657  0.1539
  710loPI   C4A10686  15.601  17.494   6.957  0.0916  0.0903 -0.1159
  710loPI   C5A10687  15.269  17.228   7.075 -0.3679 -0.3189  0.2131
  710loPI   C6A10688  14.967  17.141   7.392  0.3899 -0.2414  0.0428
  710loPI   C1B10689  15.532  18.594   6.094 -0.3197  0.3245  0.4635
  710loPI   C2B10690  15.685  18.357   6.466  0.1276 -0.2415  0.0601
  710loPI   C3B10691  15.509  18.409   6.949 -0.0617  0.0115 -0.4457
  710loPI   C4B10692  15.555  18.181   7.385  0.1077  0.1290  0.0933
  711loPI    C110693   0.480   7.564   4.973  0.0788 -0.0209  0.0363
  711loPI    C210694   0.116   7.717   4.904  0.0771  0.0261  0.1473
  711loPI    C310695   0.295   7.493   4.625 -0.0606 -0.0433  0.1138
  711loPI   PO410696   0.494   7.594   5.224 -0.0811  0.2568  0.0561
  711loPI   GL110697   0.281   7.782   5.479  0.1443  0.0258  0.0435
  711loPI   GL210698   0.040   7.891   5.350 -0.1300  0.0602  0.3144
  711loPI   C1A10699   0.184   7.715   5.833  0.1859  0.2664 -0.0321
  711loPI   C2A10700   0.025   7.496   6.170 -0.1543  0.2135  0.1805
  711loPI   C3A10701   0.086   7.475   6.587  0.0050  0.1851 -0.5121
  711loPI   C4A10702  -0.196   7.348   7.049 -0.2057 -0.0118  0.1772
  711loPI   C5A10703  -0.157   7.011   7.228  0.0254  0.0753  0.1445
  711loPI   C6A10704  -0.114   6.810   7.544  0.3365 -0.0826 -0.1408
  711loPI   C1B10705  -0.402   7.888   5.401  0.0688 -0.0850  0.2157
  711loPI   C2B10706  -0.680   7.770   5.882 -0.1019 -0.1522  0.1561
  711loPI   C3B10707  -0.849   7.782   6.306  0.2308  0.3833  0.1333
  711loPI   C4B10708  -0.801   7.995   6.592  0.0734 -0.2533  0.4826
  712loPI    C110709  16.938  10.229   4.576 -0.2474 -0.0586 -0.0847
  712loPI    C210710  17.125  10.174   4.925 -0.0558  0.0891 -0.1625
  712loPI    C310711  17.269  10.005   4.593 -0.0197  0.2587 -0.2345
  712loPI   PO410712  16.818  10.441   4.654  0.0300  0.0515 -0.0383
  712loPI   GL110713  16.690  10.530   5.024  0.0357  0.0275  0.0746
  712loPI   GL210714  16.499  10.809   5.199 -0.1199 -0.1457  0.0286
  712loPI   C1A10715  16.622  10.218   5.363  0.5704 -0.1466  0.0667
  712loPI   C2A10716  16.630  10.255   5.816  0.0104  0.0393 -0.1039
  712loPI   C3A10717  16.460  10.120   6.253  0.0774 -0.0494 -0.0539
  712loPI   C4A10718  16.605  10.108   6.838 -0.1994 -0.0990 -0.3411
  712loPI   C5A10719  16.683   9.979   7.291 -0.0863 -0.0569 -0.0754
  712loPI   C6A10720  16.936   9.940   7.478  0.1565 -0.0897  0.0003
  712loPI   C1B10721  16.520  10.673   5.576  0.0706  0.0253  0.1833
  712loPI   C2B10722  16.535  10.712   6.010  0.0101  0.0667  0.2360
  712loPI   C3B10723  16.499  10.768   6.416 -0.0860  0.2943  0.1146
  712loPI   C4B10724  16.473  10.683   6.830 -0.2547 -0.0747 -0.0954
  713loPI    C110725  13.091   3.788   4.470 -0.0006  0.0977  0.0284
  713loPI    C210726  12.929   3.886   4.118 -0.1903 -0.0812  0.0644
  713loPI    C310727  13.277   3.690   4.130 -0.1073  0.0594 -0.0192
  713loPI   PO410728  13.065   3.972   4.632 -0.0640  0.0872  0.2862
  713loPI   GL110729  12.972   3.966   5.027 -0.1292 -0.0401 -0.3598
  713loPI   GL210730  13.225   3.708   5.089 -0.1418 -0.0566  0.0362
  713loPI   C1A10731  12.820   4.165   5.397 -0.0270 -0.1636  0.0631
  713loPI   C2A10732  12.939   4.131   5.811 -0.1087 -0.2520 -0.0659
  713loPI   C3A10733  12.762   3.877   6.191  0.0870  0.0246 -0.2223
  713loPI   C4A10734  12.873   3.713   6.599  0.0812 -0.2036  0.0317
  713loPI   C5A10735  12.862   3.813   7.076 -0.1139 -0.1888 -0.0878
  713loPI   C6A10736  12.885   4.008   7.350 -0.0671 -0.0755 -0.1185
  713loPI   C1B10737  13.195   3.787   5.495  0.0047 -0.1335 -0.0258
  713loPI   C2B10738  13.253   3.720   5.967 -0.0967  0.2961  0.1100
  713loPI   C3B10739  13.272   3.844   6.411  0.0530  0.2437  0.3935
  713loPI   C4B10740  13.302   3.756   6.787  0.1222 -0.5512  0.0265
  714loPI    C110741   3.269   4.799   5.260 -0.2071 -0.2066 -0.0014
  714loPI    C210742   3.101   4.880   4.906 -0.0677  0.3388  0.0488
  714loPI    C310743   3.498   4.903   4.950 -0.0482 -0.1018  0.1493
  714loPI   PO410744   3.174   4.942   5.431  0.2118  0.4142 -0.3692
  714loPI   GL110745   2.988   4.974   5.752 -0.1256  0.0291  0.2157
  714loPI   GL210746   2.729   4.739   5.801 -0.1549  0.0707 -0.2170
  714loPI   C1A10747   3.020   5.118   6.099 -0.0899 -0.0551 -0.2961
  714loPI   C2A10748   3.057   5.294   6.469  0.1558 -0.2066  0.0760
  714loPI   C3A10749   3.237   5.639   6.766 -0.1519  0.3505 -0.1314
  714loPI   C4A10750   3.350   6.023   7.030  0.0057 -0.0876  0.2300
  714loPI   C5A10751   3.637   6.363   6.948 -0.1184  0.0370  0.0576
  714loPI   C6A10752   3.841   6.331   6.535  0.3556 -0.2127  0.1977
  714loPI   C1B10753   2.808   4.689   6.193  0.0476  0.0683  0.0276
  714loPI   C2B10754   2.728   4.931   6.562  0.0791  0.0655  0.2390
  714loPI   C3B10755   3.053   4.919   6.830  0.2030  0.0222  0.0645
  714loPI   C4B10756   3.370   5.164   6.932  0.2507 -0.0019 -0.0211
  715loPI    C110757  16.326   7.840   4.721 -0.0109  0.2606 -0.2443
  715loPI    C210758  16.003   7.747   4.505 -0.0360 -0.1373 -0.0450
  715loPI    C310759  16.323   7.907   4.327 -0.3146  0.2021 -0.2546
  715loPI   PO410760  16.255   7.891   4.948  0.0984  0.1924 -0.1810
  715loPI   GL110761  16.303   7.990   5.319  0.1067  0.1458 -0.0285
  715loPI   GL210762  16.259   7.600   5.465  0.0209 -0.0965  0.0458
  715loPI   C1A10763  16.498   8.184   5.695  0.1493  0.2382 -0.3150
  715loPI   C2A10764  16.701   8.253   6.113 -0.2487 -0.0536  0.1107
  715loPI   C3A10765  16.547   8.505   6.520  0.2079  0.0661 -0.0309
  715loPI   C4A10766  16.596   8.777   6.940 -0.0809 -0.1775  0.2062
  715loPI   C5A10767  16.442   9.244   6.898 -0.1259  0.0323 -0.0425
  715loPI   C6A10768  16.256   9.592   7.143 -0.1402  0.0576  0.0644
  715loPI   C1B10769  16.328   7.679   5.853  0.1373  0.0952  0.0428
  715loPI   C2B10770  16.469   7.842   6.166  0.1062  0.0289  0.1453
  715loPI   C3B10771  16.754   7.914   6.473  0.0539  0.1392 -0.0553
  715loPI   C4B10772  16.752   7.725   6.914  0.3576  0.0301  0.0716
  716loPI    C110773  15.371  10.309   4.402 -0.1500  0.0057  0.1125
  716loPI    C210774  15.235  10.681   4.345 -0.3084 -0.0706 -0.0162
  716loPI    C310775  15.378  10.471   4.036  0.2765  0.0718  0.1452
  716loPI   PO410776  15.301  10.220   4.619  0.1153  0.2102  0.4006
  716loPI   GL110777  15.405   9.864   4.901 -0.2008 -0.1421  0.4177
  716loPI   GL210778  15.670   9.899   4.955  0.1961 -0.1258 -0.0990
  716loPI   C1A10779  15.328   9.951   5.302 -0.3813  0.2130 -0.1068
  716loPI   C2A10780  15.128  10.053   5.725 -0.2057  0.1226 -0.0938
  716loPI   C3A10781  15.148  10.035   6.123 -0.0268  0.0282  0.1133
  716loPI   C4A10782  15.166   9.993   6.585 -0.3422 -0.1294 -0.0572
  716loPI   C5A10783  15.227  10.240   7.033 -0.0082 -0.0520 -0.1153
  716loPI   C6A10784  14.869  10.529   7.167 -0.3158  0.0037 -0.0273
  716loPI   C1B10785  15.822   9.738   5.379  0.0173  0.1072 -0.1943
  716loPI   C2B10786  15.566   9.721   5.817 -0.0681  0.0325 -0.4099
  716loPI   C3B10787  15.553   9.767   6.203  0.0678 -0.0826  0.1530
  716loPI   C4B10788  15.649   9.704   6.599 -0.2129  0.1049 -0.2239
  717loPI    C110789   2.457  15.155   5.077  0.0060  0.0116  0.1169
  717loPI    C210790   2.336  14.802   4.934  0.1144  0.0008  0.0501
  717loPI    C310791   2.680  14.961   4.808 -0.0615  0.2553 -0.1188
  717loPI   PO410792   2.424  15.129   5.317 -0.0695 -0.0887  0.5229
  717loPI   GL110793   2.516  15.214   5.675  0.1323  0.1414 -0.1084
  717loPI   GL210794   2.881  15.229   5.714  0.3551 -0.2535  0.1190
  717loPI   C1A10795   2.583  15.387   6.100 -0.0837  0.0209 -0.0026
  717loPI   C2A10796   2.857  15.479   6.463 -0.0737  0.0696 -0.1154
  717loPI   C3A10797   2.866  15.287   6.887  0.0032 -0.0138  0.0007
  717loPI   C4A10798   2.738  14.935   7.154 -0.0117 -0.1846  0.2161
  717loPI   C5A10799   2.682  14.485   7.262 -0.2031 -0.0520 -0.0470
  717loPI   C6A10800   2.215  14.322   7.436  0.3237 -0.0047  0.1460
  717loPI   C1B10801   3.006  15.086   6.167  0.2358  0.0138  0.4068
  717loPI   C2B10802   3.129  14.977   6.578  0.1671  0.1013  0.1396
  717loPI   C3B10803   3.530  14.936   6.793  0.0580  0.2616  0.3247
  717loPI   C4B10804   3.681  15.234   7.147 -0.5531 -0.0873  0.0553
  718loPI    C110805   5.070   7.798   4.502  0.0696 -0.1206  0.1045
  718loPI    C210806   5.454   7.792   4.389  0.0616  0.0820  0.0629
  718loPI    C310807   5.179   7.595   4.175  0.1020  0.1620 -0.0641
  718loPI   PO410808   5.048   7.794   4.846 -0.2111  0.1111 -0.0238
  718loPI   GL110809   4.846   7.746   5.193  0.1087 -0.0506  0.2272
  718loPI   GL210810   4.591   7.787   5.375 -0.0132 -0.0497  0.0508
  718loPI   C1A10811   4.913   7.423   5.423 -0.2951  0.0282 -0.0613
  718loPI   C2A10812   5.054   7.358   5.802 -0.0343  0.0301 -0.2810
  718loPI   C3A10813   5.359   7.222   6.184 -0.1590  0.0540 -0.1232
  718loPI   C4A10814   5.383   6.799   6.490 -0.2839 -0.1757  0.3895
  718loPI   C5A10815   5.447   6.740   6.883 -0.2510 -0.0124 -0.3514
  718loPI   C6A10816   5.370   6.499   7.255 -0.0997  0.1947  0.1939
  718loPI   C1B10817   4.686   7.801   5.730 -0.3129 -0.2933  0.1437
  718loPI   C2B10818   4.800   7.793   6.213  0.4316  0.0030  0.2204
  718loPI   C3B10819   5.051   7.619   6.640 -0.0153  0.0454  0.1705
  718loPI   C4B10820   5.325   7.684   6.888  0.2153 -0.0431  0.0483
  719loPI    C110821   4.918  10.969   4.575  0.1113  0.2317 -0.0237
  719loPI    C210822   4.549  11.081   4.469  0.1451  0.2998 -0.0706
  719loPI    C310823   4.863  11.196   4.251  0.1880  0.1807 -0.0727
  719loPI   PO410824   4.858  10.724   4.770  0.0608 -0.0310  0.4221
  719loPI   GL110825   5.057  10.448   5.095  0.3300 -0.1007  0.2305
  719loPI   GL210826   4.931  10.117   5.101 -0.0991  0.0972  0.2473
  719loPI   C1A10827   4.995  10.336   5.518 -0.1615 -0.2372 -0.0438
  719loPI   C2A10828   4.887  10.036   5.777  0.0622  0.4984 -0.1589
  719loPI   C3A10829   4.957   9.880   6.248  0.3663 -0.0334 -0.1763
  719loPI   C4A10830   5.117   9.932   6.687 -0.0289 -0.0300  0.1013
  719loPI   C5A10831   5.240   9.947   7.079  0.2580 -0.0318 -0.1567
  719loPI   C6A10832   5.503   9.995   7.347 -0.0782 -0.2651 -0.1359
  719loPI   C1B10833   4.979   9.810   5.333  0.1654 -0.3122  0.0923
  719loPI   C2B10834   4.992   9.515   5.728  0.0741 -0.0360 -0.3511
  719loPI   C3B10835   5.297   9.371   6.012 -0.0540  0.2902  0.0934
  719loPI   C4B10836   5.236   9.502   6.434 -0.0898  0.3018 -0.0878
  720loPI    C110837   8.641  18.047   4.837  0.0274 -0.0577  0.2299
  720loPI    C210838   9.011  17.941   4.730  0.0021  0.2030 -0.1372
  720loPI    C310839   8.716  17.936   4.460 -0.2626  0.0114  0.1487
  720loPI   PO410840   8.597  18.209   5.013  0.1137  0.3727  0.2539
  720loPI   GL110841   8.680  18.285   5.339 -0.0655 -0.1688 -0.0468
  720loPI   GL210842   8.423  18.542   5.473  0.0654  0.0106 -0.0650
  720loPI   C1A10843   8.904  18.122   5.747 -0.1262 -0.1884  0.2234
  720loPI   C2A10844   8.875  17.973   6.194 -0.2798 -0.0159 -0.0858
  720loPI   C3A10845   8.824  17.970   6.586  0.3114  0.0709 -0.1292
  720loPI   C4A10846   8.852  18.171   7.010 -0.0292 -0.0072 -0.2561
  720loPI   C5A10847   8.491  18.276   7.369  0.0325 -0.0531  0.1109
  720loPI   C6A10848   8.445  18.323   7.790  0.0800 -0.0091 -0.2105
  720loPI   C1B10849   8.451  18.276   5.805  0.1696  0.2841  0.1867
  720loPI   C2B10850   8.531  18.361   6.160  0.0275  0.5721 -0.3628
  720loPI   C3B10851   8.380  18.391   6.647 -0.0458 -0.2850  0.2248
  720loPI   C4B10852   8.128  18.297   6.998  0.1782  0.0445 -0.1357
  721loPI    C110853  11.663   9.750   4.594 -0.0177  0.1221 -0.0664
  721loPI    C210854  11.314   9.696   4.407  0.0234 -0.0017 -0.1084
  721loPI    C310855  11.605   9.906   4.230 -0.0032  0.0384 -0.1049
  721loPI   PO410856  11.571   9.900   4.821  0.1112 -0.2982  0.1236
  721loPI   GL110857  11.336   9.910   5.206 -0.2235  0.0246  0.1192
  721loPI   GL210858  11.609  10.127   5.274  0.1702  0.2032  0.2494
  721loPI   C1A10859  11.406   9.733   5.543 -0.1841 -0.2572  0.0751
  721loPI   C2A10860  11.440   9.825   5.917  0.2719  0.2150 -0.3181
  721loPI   C3A10861  11.568   9.884   6.373 -0.0510  0.3222  0.0793
  721loPI   C4A10862  11.435  10.032   6.757  0.0020 -0.0748 -0.1088
  721loPI   C5A10863  11.370   9.925   7.234 -0.2033 -0.1466  0.0054
  721loPI   C6A10864  11.589   9.559   7.362 -0.0231  0.0828 -0.0532
  721loPI   C1B10865  11.681  10.189   5.743 -0.2151  0.0822  0.2020
  721loPI   C2B10866  11.999   9.953   6.163 -0.0400  0.0969 -0.1841
  721loPI   C3B10867  12.119   9.815   6.587  0.1225 -0.0350 -0.2876
  721loPI   C4B10868  12.364  10.022   6.829 -0.0406 -0.0570 -0.2791
  722loPI    C110869  11.538   8.691   4.609 -0.0826 -0.0703  0.0121
  722loPI    C210870  11.750   8.500   4.328  0.1678  0.1305  0.0606
  722loPI    C310871  11.619   8.873   4.262 -0.1963  0.0004  0.0221
  722loPI   PO410872  11.466   8.483   4.757  0.1807 -0.0502 -0.1689
  722loPI   GL110873  11.266   8.237   5.150 -0.3229  0.1954 -0.1539
  722loPI   GL210874  10.940   8.178   5.152  0.3481 -0.1020  0.3016
  722loPI   C1A10875  11.192   7.863   5.437  0.0022 -0.0051 -0.1866
  722loPI   C2A10876  10.930   7.553   5.671 -0.2402 -0.1944 -0.0188
  722loPI   C3A10877  10.918   7.495   6.042 -0.0212  0.1143 -0.0172
  722loPI   C4A10878  10.914   7.425   6.543 -0.2774 -0.0809 -0.2572
  722loPI   C5A10879  10.814   7.463   6.917 -0.1983  0.0022 -0.2657
  722loPI   C6A10880  10.472   7.384   7.229  0.0436 -0.3320  0.2945
  722loPI   C1B10881  10.999   8.363   5.512  0.0769 -0.0250  0.2977
  722loPI   C2B10882  11.237   8.266   5.837 -0.0822 -0.1749  0.1456
  722loPI   C3B10883  11.257   8.058   6.032 -0.5026 -0.0926 -0.0359
  722loPI   C4B10884  11.322   7.738   6.348 -0.2375 -0.0373 -0.2070
  723loPI    C110885   2.793   3.145   4.923  0.1262  0.0467  0.0149
  723loPI    C210886   2.665   3.147   4.544 -0.0032 -0.1688  0.0558
  723loPI    C310887   2.655   3.483   4.761  0.1028 -0.0367 -0.1410
  723loPI   PO410888   2.678   2.813   5.029 -0.1410  0.1899  0.2474
  723loPI   GL110889   2.688   2.659   5.367  0.3455 -0.2833 -0.2855
  723loPI   GL210890   2.993   2.529   5.482  0.1000 -0.2359  0.0310
  723loPI   C1A10891   2.646   2.506   5.809 -0.3889 -0.4730 -0.0045
  723loPI   C2A10892   2.740   2.710   6.217 -0.0626  0.0024 -0.1188
  723loPI   C3A10893   2.760   2.753   6.702 -0.0747  0.1587 -0.0267
  723loPI   C4A10894   2.503   2.869   7.183  0.0311 -0.0299 -0.0003
  723loPI   C5A10895   2.081   2.697   7.262  0.2422 -0.0538  0.0788
  723loPI   C6A10896   1.717   2.442   7.233  0.1525  0.2090  0.4292
  723loPI   C1B10897   2.894   2.953   5.734 -0.2717 -0.2242  0.2728
  723loPI   C2B10898   2.738   3.199   6.051  0.2299 -0.1628  0.1511
  723loPI   C3B10899   2.866   3.143   6.440 -0.0581 -0.0938 -0.1988
  723loPI   C4B10900   3.226   3.205   6.665 -0.1676 -0.2438  0.0554
  724loPI    C110901   1.463  14.749   4.891 -0.1944 -0.1546  0.3575
  724loPI    C210902   1.151  14.791   4.643  0.4323 -0.1282 -0.4694
  724loPI    C310903   1.248  14.429   4.783 -0.0485 -0.1143 -0.0723
  724loPI   PO410904   1.423  14.933   5.048  0.1111 -0.1316  0.0890
  724loPI   GL110905   1.353  14.961   5.528  0.0548  0.1539  0.1227
  724loPI   GL210906   1.212  15.239   5.396 -0.2592 -0.0063  0.4519
  724loPI   C1A10907   1.561  15.050   5.807 -0.2816  0.1826  0.1264
  724loPI   C2A10908   1.484  15.089   6.239  0.1455 -0.3106 -0.1203
  724loPI   C3A10909   1.403  15.050   6.514 -0.0869 -0.1340 -0.1815
  724loPI   C4A10910   1.292  15.076   6.886  0.1940  0.1666 -0.1608
  724loPI   C5A10911   1.128  14.965   7.268 -0.0152  0.0301 -0.0315
  724loPI   C6A10912   1.042  14.914   7.722 -0.3024  0.0310 -0.0627
  724loPI   C1B10913   1.233  15.445   5.883  0.2951  0.0946 -0.1863
  724loPI   C2B10914   1.063  15.324   6.295  0.3763  0.1379  0.3439
  724loPI   C3B10915   0.917  15.451   6.640  0.0364 -0.2883 -0.1327
  724loPI   C4B10916   0.845  15.439   7.046 -0.0555  0.1395  0.0017
  725loPI    C110917  10.387   3.656   4.636  0.2075 -0.2073  0.2737
  725loPI    C210918  10.724   3.451   4.569  0.1488 -0.2174 -0.0043
  725loPI    C310919  10.387   3.348   4.380  0.0625 -0.0137  0.0364
  725loPI   PO410920  10.456   3.629   5.014 -0.3133 -0.1896  0.0981
  725loPI   GL110921  10.731   3.738   5.351  0.1028  0.1912  0.1651
  725loPI   GL210922  10.507   3.863   5.453  0.1120 -0.2544  0.1109
  725loPI   C1A10923  11.049   3.486   5.557  0.0364  0.1571 -0.0058
  725loPI   C2A10924  11.265   3.302   5.897 -0.0958  0.0168 -0.0915
  725loPI   C3A10925  11.449   3.118   6.246  0.3996  0.0493  0.0377
  725loPI   C4A10926  11.504   2.962   6.647  0.0785 -0.1001 -0.1333
  725loPI   C5A10927  11.697   2.965   7.012 -0.0059  0.1945 -0.1575
  725loPI   C6A10928  12.048   3.069   7.262 -0.0401  0.2570  0.4783
  725loPI   C1B10929  10.703   3.772   5.808  0.2076 -0.1629 -0.0645
  725loPI   C2B10930  10.988   3.651   6.113  0.0939 -0.1432 -0.3685
  725loPI   C3B10931  11.008   3.654   6.591 -0.1774  0.1863 -0.2140
  725loPI   C4B10932  11.046   3.704   6.988 -0.1143 -0.1286  0.1019
  726loPI    C110933  16.699  18.058   5.030  0.1624  0.0879  0.0862
  726loPI    C210934  16.807  17.745   4.805 -0.1620  0.0484 -0.0203
  726loPI    C310935  16.599  18.046   4.642  0.0050  0.2432  0.1204
  726loPI   PO410936  16.592  17.983   5.181  0.5399  0.1221  0.0401
  726loPI   GL110937  16.574  18.004   5.571  0.0745 -0.0011 -0.2604
  726loPI   GL210938  16.938  17.952   5.698 -0.1055  0.0578 -0.2450
  726loPI   C1A10939  16.321  17.840   6.021  0.3754 -0.0318  0.0392
  726loPI   C2A10940  16.093  17.533   6.315  0.1833 -0.0523  0.2430
  726loPI   C3A10941  16.049  17.560   6.764  0.0905  0.0544 -0.1315
  726loPI   C4A10942  16.197  17.671   7.154 -0.3343 -0.0858 -0.2303
  726loPI   C5A10943  16.530  17.727   7.453  0.2091  0.1562  0.0241
  726loPI   C6A10944  16.760  17.477   7.547 -0.1302 -0.1893 -0.3914
  726loPI   C1B10945  16.980  17.770   6.070  0.2441  0.0751  0.3429
  726loPI   C2B10946  16.682  17.787   6.378 -0.0840  0.2515 -0.1089
  726loPI   C3B10947  16.500  17.719   6.676 -0.0132  0.1922  0.0441
  726loPI   C4B10948  16.655  17.483   7.003 -0.3747  0.0309 -0.2296
  727loPI    C110949   5.396  18.065   4.978  0.0400  0.0474 -0.0583
  727loPI    C210950   5.728  18.133   4.765  0.1537  0.1446  0.1467
  727loPI    C310951   5.583  17.761   4.796  0.0340  0.1540 -0.2451
  727loPI   PO410952   5.463  18.172   5.202  0.0513  0.1946 -0.2212
  727loPI   GL110953   5.398  18.014   5.625  0.0454  0.0564 -0.0944
  727loPI   GL210954   5.657  17.848   5.616 -0.0392 -0.0759  0.0923
  727loPI   C1A10955   5.450  18.098   6.106  0.2479 -0.2551  0.0058
  727loPI   C2A10956   5.455  18.061   6.671  0.1807 -0.0791 -0.0431
  727loPI   C3A10957   5.592  18.126   7.082  0.3181  0.2654  0.0483
  727loPI   C4A10958   5.921  18.288   7.402 -0.1410  0.0404  0.0382
  727loPI   C5A10959   6.294  18.359   7.674  0.1984 -0.3726  0.0226
  727loPI   C6A10960   6.655  18.532   7.562  0.0073 -0.1131  0.1165
  727loPI   C1B10961   5.939  18.045   5.933 -0.2242  0.1016 -0.1436
  727loPI   C2B10962   6.337  18.051   6.333 -0.2964  0.2702 -0.1568
  727loPI   C3B10963   6.602  18.296   6.500  0.0980 -0.0245  0.0440
  727loPI   C4B10964   6.698  18.493   6.124 -0.0068 -0.1530  0.0418
  728loPI    C110965   9.461  15.177   4.591  0.0702 -0.0094 -0.1890
  728loPI    C210966   9.714  15.210   4.283  0.1784  0.0578 -0.0936
  728loPI    C310967   9.350  15.054   4.227  0.2466 -0.0549 -0.2283
  728loPI   PO410968   9.603  15.027   4.801 -0.0310 -0.0358  0.0982
  728loPI   GL110969   9.715  14.956   5.227 -0.0349 -0.0325  0.0948
  728loPI   GL210970   9.942  15.137   5.376  0.2292 -0.2232 -0.0848
  728loPI   C1A10971   9.799  14.685   5.526 -0.0725 -0.0380  0.1053
  728loPI   C2A10972   9.786  14.491   5.955  0.0506  0.3087  0.0759
  728loPI   C3A10973   9.783  14.110   6.255 -0.1076  0.0430  0.0221
  728loPI   C4A10974   9.947  13.850   6.440 -0.1606  0.0652 -0.0086
  728loPI   C5A10975  10.242  13.630   6.768 -0.1304 -0.0918  0.2024
  728loPI   C6A10976  10.326  13.381   7.091 -0.4638 -0.2168  0.1636
  728loPI   C1B10977   9.795  15.285   5.764  0.0821  0.2604  0.1454
  728loPI   C2B10978   9.431  15.339   5.962 -0.0385 -0.1518  0.0756
  728loPI   C3B10979   9.106  15.313   6.338  0.0785  0.0298  0.0405
  728loPI   C4B10980   8.925  15.544   6.651  0.1441  0.1042  0.1563
  729loPI    C110981  19.067  18.562   5.085  0.1095  0.0386 -0.0043
  729loPI    C210982  19.002  18.776   5.417 -0.0818  0.0933 -0.0759
  729loPI    C310983  18.786  18.847   5.087 -0.0824 -0.1472 -0.1287
  729loPI   PO410984  19.107  18.299   5.242 -0.1378 -0.1266  0.1946
  729loPI   GL110985  19.083  18.130   5.672  0.4293 -0.2209 -0.0347
  729loPI   GL210986  18.927  18.413   5.757 -0.2979  0.0026  0.3415
  729loPI   C1A10987  19.178  17.974   6.163 -0.2138  0.0416  0.2962
  729loPI   C2A10988  19.428  17.712   6.452 -0.0961  0.0970 -0.1156
  729loPI   C3A10989  19.477  17.668   6.888  0.1629 -0.0311 -0.2269
  729loPI   C4A10990  19.519  17.338   7.201 -0.1094 -0.1453 -0.0822
  729loPI   C5A10991  19.536  17.062   7.581 -0.2621 -0.1897  0.1939
  729loPI   C6A10992  19.578  16.711   7.911  0.1339  0.2326 -0.0430
  729loPI   C1B10993  18.852  18.368   6.208  0.1909 -0.1969 -0.0368
  729loPI   C2B10994  18.955  18.252   6.610 -0.0331 -0.2428  0.2643
  729loPI   C3B10995  19.101  18.034   6.937 -0.0497  0.3277  0.2220
  729loPI   C4B10996  19.326  17.865   7.282 -0.0806  0.0894  0.2254
  730loPI    C110997   1.918   0.431   4.628  0.0255  0.2836 -0.0889
  730loPI    C210998   1.696   0.733   4.489  0.1304  0.3598 -0.0918
  730loPI    C310999   1.808   0.438   4.244 -0.2803  0.1262 -0.0078
  730loPI   PO411000   2.148   0.561   4.782  0.3201 -0.2306 -0.2487
  730loPI   GL111001   2.383   0.452   5.195 -0.0269  0.0711  0.1671
  730loPI   GL211002   2.044   0.555   5.278  0.3604 -0.1166 -0.1436
  730loPI   C1A11003   2.402   0.474   5.568  0.2688  0.1211  0.2706
  730loPI   C2A11004   2.430   0.629   5.998 -0.1749 -0.1172 -0.0696
  730loPI   C3A11005   2.653   0.681   6.308  0.1669  0.2711  0.1808
  730loPI   C4A11006   2.978   0.917   6.557  0.4215  0.1001  0.0603
  730loPI   C5A11007   3.005   1.171   6.960 -0.2211 -0.2065  0.1731
  730loPI   C6A11008   2.989   1.277   7.378  0.0292 -0.3147 -0.0445
  730loPI   C1B11009   1.875   0.448   5.701 -0.0728 -0.0260  0.1781
  730loPI   C2B11010   1.917   0.473   6.093  0.0619  0.1029  0.2833
  730loPI   C3B11011   1.983   0.559   6.585 -0.2964 -0.0540  0.1553
  730loPI   C4B11012   2.236   0.505   6.981 -0.1409  0.1738 -0.0252
  731loPI    C111013   4.758  16.065   5.082  0.0520 -0.1853  0.0346
  731loPI    C211014   4.845  16.110   4.694  0.0553 -0.1217  0.0425
  731loPI    C311015   4.477  15.999   4.805 -0.0432  0.1902  0.0359
  731loPI   PO411016   4.721  16.320   5.234  0.2134 -0.0600  0.1623
  731loPI   GL111017   4.808  16.519   5.679 -0.0277  0.0335  0.1313
  731loPI   GL211018   4.702  16.361   5.952  0.1072  0.1502 -0.1298
  731loPI   C1A11019   5.076  16.736   6.010  0.4041  0.0830  0.0740
  731loPI   C2A11020   5.251  16.699   6.467 -0.0684 -0.1895  0.2110
  731loPI   C3A11021   5.380  16.713   6.828  0.1294 -0.1644 -0.2058
  731loPI   C4A11022   5.627  16.677   7.258  0.2321  0.0543 -0.0211
  731loPI   C5A11023   5.656  16.522   7.596  0.2940 -0.0692 -0.1467
  731loPI   C6A11024   5.636  16.253   7.843 -0.2715  0.0976 -0.2150
  731loPI   C1B11025   4.462  16.479   6.278 -0.1725 -0.2646 -0.5055
  731loPI   C2B11026   4.388  16.474   6.704 -0.0398 -0.1988 -0.0234
  731loPI   C3B11027   4.604  16.440   7.096 -0.1610  0.1327  0.2341
  731loPI   C4B11028   4.690  16.560   7.566 -0.0662 -0.1203 -0.0823
  732loPI    C111029   0.553   4.438   4.853 -0.2076  0.1693  0.0264
  732loPI    C211030   0.903   4.416   4.660 -0.0844  0.1739  0.2461
  732loPI    C311031   0.629   4.685   4.547 -0.1451 -0.0385 -0.1278
  732loPI   PO411032   0.593   4.188   4.964 -0.4036 -0.1505  0.0368
  732loPI   GL111033   0.485   4.191   5.417 -0.1748 -0.1171 -0.2302
  732loPI   GL211034   0.246   3.985   5.363 -0.0238 -0.1613  0.2382
  732loPI   C1A11035   0.498   4.180   5.816 -0.0879 -0.1847  0.1159
  732loPI   C2A11036   0.498   4.198   6.161 -0.2323  0.1816  0.1355
  732loPI   C3A11037   0.486   4.144   6.508  0.0667 -0.0913 -0.0728
  732loPI   C4A11038   0.545   4.048   6.983  0.0589  0.2111  0.1622
  732loPI   C5A11039   0.483   4.327   7.263  0.2856  0.0659  0.2148
  732loPI   C6A11040   0.417   4.662   7.519 -0.1787  0.0664 -0.0693
  732loPI   C1B11041   0.161   3.791   5.723 -0.0452  0.1461 -0.1389
  732loPI   C2B11042   0.201   3.827   6.118 -0.4174 -0.1021  0.0032
  732loPI   C3B11043   0.334   3.635   6.439 -0.1598 -0.3727 -0.5808
  732loPI   C4B11044   0.159   3.711   6.915  0.2345 -0.2357  0.0256
  733loPI    C111045  18.928  10.881   5.241 -0.0385 -0.0618  0.1154
  733loPI    C211046  18.593  10.870   5.460 -0.1610  0.1314 -0.0593
  733loPI    C311047  18.573  10.926   5.064  0.0764  0.1049 -0.0770
  733loPI   PO411048  19.057  10.746   5.402 -0.1750  0.0503 -0.0662
  733loPI   GL111049  19.048  10.810   5.800  0.2243 -0.4777  0.1173
  733loPI   GL211050  19.103  10.468   5.907  0.3412 -0.0545 -0.0749
  733loPI   C1A11051  18.947  10.888   6.249  0.1442  0.1162  0.1517
  733loPI   C2A11052  18.934  10.829   6.682 -0.0320 -0.1252 -0.0613
  733loPI   C3A11053  18.674  10.866   7.094  0.0918 -0.1074 -0.0750
  733loPI   C4A11054  18.520  11.040   7.418 -0.0769  0.2618  0.2850
  733loPI   C5A11055  18.193  11.039   7.663  0.1263 -0.0965  0.0176
  733loPI   C6A11056  17.844  11.355   7.594 -0.1383  0.1453 -0.0681
  733loPI   C1B11057  18.888  10.280   6.377  0.1908  0.2016 -0.1473
  733loPI   C2B11058  19.042  10.246   6.769 -0.1947  0.0327 -0.1962
  733loPI   C3B11059  18.991  10.495   7.144 -0.1972 -0.2362  0.4086
  733loPI   C4B11060  18.931  10.668   7.569 -0.1736 -0.0618 -0.1607
  734loPI    C111061  15.393   9.288   4.483 -0.2523 -0.0697  0.1577
  734loPI    C211062  15.086   9.122   4.286 -0.1913  0.0887 -0.0749
  734loPI    C311063  15.253   9.459   4.149  0.0982 -0.0048  0.0401
  734loPI   PO411064  15.320   9.366   4.763  0.1153  0.0187  0.3419
  734loPI   GL111065  15.200   9.408   5.104  0.0281 -0.1961  0.1097
  734loPI   GL211066  14.937   9.641   5.044  0.0356  0.1705  0.1395
  734loPI   C1A11067  15.152   9.519   5.529 -0.0927  0.2163  0.1794
  734loPI   C2A11068  15.109   9.487   5.948  0.0332 -0.1704 -0.1912
  734loPI   C3A11069  15.184   9.478   6.354  0.0490 -0.0707 -0.0534
  734loPI   C4A11070  15.002   9.559   6.676 -0.2470  0.1824 -0.0041
  734loPI   C5A11071  14.887   9.881   7.037 -0.0507  0.0239  0.3019
  734loPI   C6A11072  14.658  10.100   7.310 -0.1767  0.0132  0.4401
  734loPI   C1B11073  14.760   9.905   5.411  0.0022 -0.2727 -0.1125
  734loPI   C2B11074  14.708   9.736   5.849 -0.0773  0.0403 -0.3332
  734loPI   C3B11075  14.670   9.755   6.314 -0.3722  0.0199 -0.0030
  734loPI   C4B11076  14.461   9.763   6.732  0.0108  0.3943 -0.1086
  735loPI    C111077   8.280  13.252   4.929 -0.0727  0.3394 -0.0566
  735loPI    C211078   8.337  13.216   4.535  0.0632 -0.2599  0.0072
  735loPI    C311079   8.624  13.373   4.765  0.1018 -0.1808 -0.0942
  735loPI   PO411080   8.211  13.078   5.078  0.2424  0.1717  0.2132
  735loPI   GL111081   8.180  13.040   5.494 -0.4150 -0.0169 -0.0197
  735loPI   GL211082   7.931  13.260   5.547  0.0944 -0.0463  0.0341
  735loPI   C1A11083   8.273  13.108   5.892  0.1249 -0.0173  0.0270
  735loPI   C2A11084   8.394  13.103   6.324  0.2030 -0.0662  0.0791
  735loPI   C3A11085   8.431  13.127   6.746  0.1072  0.0589  0.0657
  735loPI   C4A11086   8.777  13.186   7.098 -0.1166  0.1092 -0.2262
  735loPI   C5A11087   9.224  13.438   7.374 -0.0546  0.0949  0.3485
  735loPI   C6A11088   9.607  13.417   7.641  0.0937  0.1865  0.1321
  735loPI   C1B11089   7.806  13.133   6.051  0.0091 -0.0521  0.0543
  735loPI   C2B11090   7.910  13.162   6.496 -0.0176  0.0029 -0.2227
  735loPI   C3B11091   7.992  13.219   6.968  0.2982  0.0773 -0.0278
  735loPI   C4B11092   7.775  13.164   7.313  0.3572  0.4446  0.3980
  736loPI    C111093  12.578   8.649   4.316 -0.1125 -0.0519  0.0403
  736loPI    C211094  12.841   8.723   4.024 -0.0042 -0.0339  0.1415
  736loPI    C311095  12.458   8.649   3.935 -0.0242  0.2148  0.0104
  736loPI   PO411096  12.574   8.671   4.559 -0.5032 -0.1073 -0.0748
  736loPI   GL111097  12.460   8.624   4.990  0.1564 -0.0457 -0.0312
  736loPI   GL211098  12.789   8.675   5.353  0.2992  0.0179  0.2379
  736loPI   C1A11099  12.614   8.214   5.228  0.2325 -0.4126  0.0677
  736loPI   C2A11100  12.759   8.057   5.557 -0.0880 -0.1523 -0.1508
  736loPI   C3A11101  12.780   7.959   5.958  0.1101  0.2496 -0.1059
  736loPI   C4A11102  12.890   7.914   6.325  0.0788  0.0981 -0.3785
  736loPI   C5A11103  12.899   8.055   6.718 -0.2700  0.1301 -0.0061
  736loPI   C6A11104  12.674   8.175   7.106  0.2950 -0.2443 -0.0160
  736loPI   C1B11105  12.728   8.548   5.835  0.1524 -0.2990  0.1454
  736loPI   C2B11106  12.688   8.787   6.193 -0.1191  0.3315  0.0241
  736loPI   C3B11107  12.798   9.102   6.409 -0.0414 -0.0985  0.1386
  736loPI   C4B11108  13.190   9.202   6.547 -0.2150  0.1856 -0.1093
  737loPI    C111109   7.156   9.373   4.591  0.0644  0.1249  0.2458
  737loPI    C211110   7.150   9.742   4.744  0.1564  0.1538  0.1810
  737loPI    C311111   7.332   9.674   4.395 -0.1040  0.1003  0.0532
  737loPI   PO411112   6.899   9.281   4.822 -0.2919  0.0320 -0.0051
  737loPI   GL111113   6.958   8.849   5.022  0.0920  0.1185  0.2467
  737loPI   GL211114   7.233   8.746   5.133  0.1407 -0.0411 -0.1877
  737loPI   C1A11115   6.710   8.938   5.452  0.0817  0.1453  0.1373
  737loPI   C2A11116   6.789   9.170   5.933 -0.1033 -0.2093  0.0689
  737loPI   C3A11117   6.598   9.198   6.281 -0.2314 -0.3491 -0.2720
  737loPI   C4A11118   6.269   9.567   6.561 -0.1558  0.0126  0.2455
  737loPI   C5A11119   6.474   9.901   6.801 -0.0601  0.4593  0.2745
  737loPI   C6A11120   6.617  10.220   7.020  0.0849 -0.1950 -0.0814
  737loPI   C1B11121   7.301   8.929   5.550  0.0917 -0.1055 -0.2364
  737loPI   C2B11122   7.362   8.947   6.042  0.3436  0.2230 -0.0335
  737loPI   C3B11123   7.562   8.980   6.528  0.1858  0.1762  0.0642
  737loPI   C4B11124   7.447   9.111   6.981  0.0724  0.0394 -0.3043
  738loPI    C111125   5.941   2.584   4.829  0.3192  0.0242 -0.2307
  738loPI    C211126   5.650   2.343   4.700  0.2799 -0.0862  0.0557
  738loPI    C311127   5.887   2.530   4.437 -0.0891  0.0583 -0.1830
  738loPI   PO411128   5.854   2.632   5.078  0.0242 -0.2822 -0.1532
  738loPI   GL111129   6.056   2.574   5.404 -0.2129 -0.1308 -0.4075
  738loPI   GL211130   5.875   2.266   5.402 -0.2246  0.1290 -0.0980
  738loPI   C1A11131   6.358   2.451   5.702 -0.1891  0.3394  0.3213
  738loPI   C2A11132   6.625   2.469   6.024 -0.3229  0.0386 -0.2023
  738loPI   C3A11133   6.598   2.209   6.326  0.1400  0.1438 -0.0042
  738loPI   C4A11134   6.551   2.118   6.621 -0.2895  0.2677  0.0621
  738loPI   C5A11135   6.266   2.037   6.935 -0.0566 -0.0082  0.0588
  738loPI   C6A11136   6.134   1.602   7.089  0.2654 -0.0570 -0.0037
  738loPI   C1B11137   5.884   2.423   5.864  0.0041 -0.0176  0.0833
  738loPI   C2B11138   6.047   2.616   6.194 -0.1115  0.2950  0.1400
  738loPI   C3B11139   6.162   2.472   6.529 -0.4099 -0.1654 -0.0579
  738loPI   C4B11140   6.346   2.527   6.894  0.0615 -0.1005  0.1021
  739loPI    C111141  15.699  16.823   5.099 -0.1999 -0.1478 -0.0957
  739loPI    C211142  15.543  17.092   5.351  0.0026 -0.1463  0.0305
  739loPI    C311143  15.496  17.136   4.956  0.1711  0.1633  0.0424
  739loPI   PO411144  15.738  16.589   5.183 -0.0425  0.2640  0.0703
  739loPI   GL111145  15.674  16.430   5.504  0.0589  0.0273  0.1556
  739loPI   GL211146  15.499  16.316   5.630 -0.3075 -0.0195  0.0107
  739loPI   C1A11147  15.984  16.420   5.865  0.1461  0.4127 -0.1982
  739loPI   C2A11148  16.262  16.563   6.156  0.1682  0.1322 -0.3033
  739loPI   C3A11149  16.119  16.643   6.549 -0.0596  0.1077  0.0201
  739loPI   C4A11150  16.095  16.562   6.976 -0.1449 -0.1779 -0.1927
  739loPI   C5A11151  16.138  16.767   7.329  0.1144 -0.1273  0.2051
  739loPI   C6A11152  16.292  17.276   7.498 -0.1160  0.0097  0.0261
  739loPI   C1B11153  15.487  16.247   6.043 -0.2901  0.0610 -0.2037
  739loPI   C2B11154  15.477  16.022   6.511  0.1774  0.3470  0.5029
  739loPI   C3B11155  15.325  15.801   6.846 -0.0932  0.1257 -0.2998
  739loPI   C4B11156  15.484  15.373   7.048  0.1216  0.0578  0.0446
  740loPI    C111157   3.215  16.194   4.952 -0.0330 -0.2088  0.0203
  740loPI    C211158   3.035  16.396   4.658  0.0885  0.0444  0.1163
  740loPI    C311159   3.421  16.298   4.626  0.0550 -0.0887  0.1129
  740loPI   PO411160   3.047  16.365   5.153 -0.1006 -0.1613 -0.3644
  740loPI   GL111161   3.021  16.261   5.583 -0.2125  0.0892  0.3471
  740loPI   GL211162   2.839  16.522   5.606 -0.2343  0.0452  0.0825
  740loPI   C1A11163   3.312  16.132   5.967 -0.1264 -0.2173  0.2097
  740loPI   C2A11164   3.547  16.107   6.279 -0.1467 -0.3099 -0.1379
  740loPI   C3A11165   3.498  15.983   6.789 -0.1799 -0.0910 -0.2269
  740loPI   C4A11166   3.675  15.980   7.202 -0.0577  0.0383  0.0197
  740loPI   C5A11167   3.684  15.860   7.655 -0.0299  0.0105  0.0107
  740loPI   C6A11168   3.903  15.940   8.048  0.0294  0.0724 -0.3440
  740loPI   C1B11169   2.876  16.386   6.032 -0.3649  0.1419  0.0671
  740loPI   C2B11170   3.043  16.244   6.467 -0.1868  0.3178 -0.2237
  740loPI   C3B11171   3.089  16.430   6.798  0.0684  0.1243 -0.0084
  740loPI   C4B11172   3.416  16.392   7.041 -0.4093  0.1372  0.0216
  741loPI    C111173   1.026  17.621   5.006 -0.0953  0.1304  0.1686
  741loPI    C211174   1.221  17.278   5.074 -0.0995  0.0670 -0.1259
  741loPI    C311175   0.844  17.271   4.941 -0.0358  0.1832 -0.3169
  741loPI   PO411176   1.090  17.761   5.201  0.0187  0.1019 -0.0945
  741loPI   GL111177   1.361  17.514   5.498 -0.0681 -0.1370 -0.1084
  741loPI   GL211178   1.634  17.487   5.550  0.2516 -0.0956  0.0324
  741loPI   C1A11179   1.267  17.183   5.762 -0.1528  0.2503 -0.1297
  741loPI   C2A11180   1.366  16.805   6.058  0.2566 -0.2564  0.1529
  741loPI   C3A11181   1.551  16.672   6.491  0.1859  0.1369  0.1427
  741loPI   C4A11182   1.616  16.625   6.828  0.0727 -0.3948 -0.5224
  741loPI   C5A11183   1.489  16.662   7.239 -0.0201 -0.2336 -0.4373
  741loPI   C6A11184   1.259  16.875   7.507 -0.1174 -0.0996 -0.3006
  741loPI   C1B11185   1.606  17.435   5.964 -0.5165  0.2447  0.4749
  741loPI   C2B11186   1.667  17.474   6.384 -0.0618  0.1309 -0.1233
  741loPI   C3B11187   1.520  17.548   6.834  0.1100  0.1164  0.0228
  741loPI   C4B11188   1.437  17.420   7.296  0.1952 -0.2819 -0.0856
  742loPI    C111189  18.250   6.876   4.667  0.2805 -0.1657  0.0965
  742loPI    C211190  18.576   6.777   4.458  0.0946 -0.2384 -0.1645
  742loPI    C311191  18.239   6.877   4.267 -0.0022 -0.0442  0.1018
  742loPI   PO411192  18.247   6.712   4.885 -0.1853 -0.1538 -0.1878
  742loPI   GL111193  18.565   6.731   5.331  0.0427 -0.0729  0.3101
  742loPI   GL211194  18.532   7.048   5.358 -0.1853  0.1776 -0.2118
  742loPI   C1A11195  18.649   6.857   5.820  0.3185  0.1637 -0.0673
  742loPI   C2A11196  18.484   6.929   6.284  0.1317 -0.0674  0.3487
  742loPI   C3A11197  18.279   6.769   6.608  0.0858 -0.0851 -0.1322
  742loPI   C4A11198  17.951   6.624   6.874 -0.0386 -0.0742  0.0850
  742loPI   C5A11199  17.656   6.861   7.146  0.0712 -0.1217 -0.0250
  742loPI   C6A11200  17.608   7.327   7.208 -0.5240  0.1479  0.2271
  742loPI   C1B11201  18.431   7.267   5.655 -0.1111  0.0319  0.1822
  742loPI   C2B11202  18.175   7.373   5.962  0.3153  0.0624 -0.1771
  742loPI   C3B11203  17.797   7.425   6.123 -0.1753  0.1358 -0.0239
  742loPI   C4B11204  17.828   7.629   6.556 -0.2454 -0.0814 -0.1461
  743loPI    C111205  15.386  11.733   4.883  0.2805  0.1882  0.0820
  743loPI    C211206  15.721  11.796   4.673  0.1185 -0.1253 -0.2822
  743loPI    C311207  15.440  11.548   4.532 -0.2268  0.0580  0.0651
  743loPI   PO411208  15.484  11.862   5.144  0.0201  0.0633 -0.0366
  743loPI   GL111209  15.249  12.209   5.424 -0.0947 -0.1391  0.1769
  743loPI   GL211210  15.593  12.160   5.535  0.0389 -0.2525  0.0883
  743loPI   C1A11211  15.021  11.990   5.883  0.1191 -0.0167  0.0949
  743loPI   C2A11212  14.927  11.806   6.296  0.1294 -0.2816  0.1826
  743loPI   C3A11213  15.077  11.942   6.704 -0.1037  0.0033  0.1606
  743loPI   C4A11214  15.386  11.720   6.995  0.0933  0.1276  0.3040
  743loPI   C5A11215  15.619  11.695   7.332  0.0612 -0.0095  0.0798
  743loPI   C6A11216  15.744  11.472   7.708 -0.2218 -0.2001  0.2397
  743loPI   C1B11217  15.438  12.285   5.921 -0.1715 -0.0260  0.0032
  743loPI   C2B11218  15.169  12.279   6.319  0.3798 -0.1831 -0.0678
  743loPI   C3B11219  15.160  12.488   6.784 -0.0512  0.3016 -0.0158
  743loPI   C4B11220  15.115  12.268   7.142 -0.0338 -0.0539 -0.2995
  744loPI    C111221  17.945   0.760   4.782  0.0435 -0.3250  0.0069
  744loPI    C211222  17.765   1.115   4.816  0.3670 -0.1649  0.0865
  744loPI    C311223  17.839   0.962   4.454  0.4431 -0.0378  0.0477
  744loPI   PO411224  18.168   0.908   5.006 -0.1057 -0.1234  0.1883
  744loPI   GL111225  18.047   1.013   5.405  0.2622  0.2646  0.0485
  744loPI   GL211226  17.876   0.832   5.490  0.1624  0.0876  0.0470
  744loPI   C1A11227  18.222   1.203   5.756  0.1409 -0.2674 -0.2835
  744loPI   C2A11228  18.366   1.168   6.208  0.2935  0.0377  0.1770
  744loPI   C3A11229  18.746   1.160   6.492  0.2732  0.0942  0.0683
  744loPI   C4A11230  19.055   1.287   6.782  0.0213 -0.2307 -0.4154
  744loPI   C5A11231  19.277   1.264   7.186  0.3447  0.1334  0.1819
  744loPI   C6A11232  19.470   1.069   7.487 -0.1584  0.1668  0.1840
  744loPI   C1B11233  17.902   0.860   5.964  0.4430  0.1712 -0.1251
  744loPI   C2B11234  18.110   0.762   6.397  0.1392  0.2013 -0.0689
  744loPI   C3B11235  18.070   0.712   6.791  0.1117 -0.0265  0.0887
  744loPI   C4B11236  17.975   0.477   7.218 -0.0008  0.1213  0.1012
  745loPI    C111237   4.801   3.579   4.685 -0.0008  0.0376 -0.0875
  745loPI    C211238   4.678   3.254   4.487  0.0132  0.0137 -0.0571
  745loPI    C311239   4.550   3.617   4.376  0.2670  0.0293 -0.3096
  745loPI   PO411240   4.690   3.494   4.998 -0.0839 -0.0553 -0.0902
  745loPI   GL111241   4.596   3.877   5.364 -0.0847  0.4230 -0.1665
  745loPI   GL211242   4.754   4.099   5.584  0.0269 -0.1377  0.1622
  745loPI   C1A11243   4.307   4.019   5.762  0.0429 -0.1689  0.2718
  745loPI   C2A11244   4.276   3.926   6.110 -0.1941 -0.1149 -0.0783
  745loPI   C3A11245   4.557   3.859   6.499 -0.0738 -0.0169  0.0718
  745loPI   C4A11246   4.518   3.708   6.917  0.0535 -0.2581  0.0304
  745loPI   C5A11247   4.542   3.679   7.444 -0.0053  0.0625 -0.1051
  745loPI   C6A11248   4.790   3.653   7.798 -0.1964 -0.1402  0.1508
  745loPI   C1B11249   4.731   4.100   6.041 -0.3305 -0.3173  0.1474
  745loPI   C2B11250   5.004   3.999   6.374  0.1069  0.3847 -0.0414
  745loPI   C3B11251   5.002   3.801   6.858  0.1652 -0.0688  0.4562
  745loPI   C4B11252   5.134   3.928   7.233  0.0154 -0.0112  0.0696
  746loPI    C111253  12.939   9.710   4.395 -0.1108  0.0686 -0.0367
  746loPI    C211254  12.585   9.607   4.239 -0.1217 -0.0396  0.0579
  746loPI    C311255  12.909   9.630   4.004 -0.1526 -0.1291  0.0061
  746loPI   PO411256  12.977   9.498   4.679 -0.1274  0.3093 -0.0043
  746loPI   GL111257  13.175   9.555   5.083 -0.1508  0.5280  0.0259
  746loPI   GL211258  12.892   9.543   5.152  0.0858  0.1651  0.3448
  746loPI   C1A11259  13.424   9.426   5.287 -0.3121  0.0425 -0.1281
  746loPI   C2A11260  13.363   9.452   5.680  0.1942  0.3676  0.1667
  746loPI   C3A11261  13.436   9.209   6.091  0.0455 -0.1172 -0.0054
  746loPI   C4A11262  13.656   9.381   6.474 -0.0812  0.2347  0.2243
  746loPI   C5A11263  13.605   9.268   6.928  0.0857  0.0313  0.2376
  746loPI   C6A11264  13.387   9.330   7.271 -0.0626 -0.2085  0.0480
  746loPI   C1B11265  13.005   9.188   5.391 -0.1816 -0.4371 -0.2791
  746loPI   C2B11266  13.005   8.971   5.800 -0.0426 -0.1065 -0.0410
  746loPI   C3B11267  13.182   8.785   6.206 -0.2343 -0.0082 -0.0878
  746loPI   C4B11268  12.968   8.516   6.586  0.2354  0.2001 -0.0341
  747loPI    C111269  15.075   1.562   4.801  0.2120  0.0321  0.3688
  747loPI    C211270  15.150   1.930   4.663  0.0487 -0.0390  0.0812
  747loPI    C311271  15.246   1.610   4.443 -0.4233 -0.1499  0.0245
  747loPI   PO411272  15.053   1.642   5.089 -0.2832 -0.4655  0.0117
  747loPI   GL111273  14.986   1.946   5.363 -0.4083 -0.2030 -0.1823
  747loPI   GL211274  14.679   2.044   5.476  0.1208 -0.1298 -0.1285
  747loPI   C1A11275  15.280   2.282   5.691 -0.1558  0.1160  0.1383
  747loPI   C2A11276  15.240   2.293   6.104  0.3749  0.0595 -0.0356
  747loPI   C3A11277  15.275   2.034   6.522  0.2022  0.3092 -0.5189
  747loPI   C4A11278  15.425   2.167   6.920 -0.1494 -0.1489  0.0640
  747loPI   C5A11279  15.647   2.340   7.311 -0.0307  0.3378  0.0360
  747loPI   C6A11280  15.978   2.598   7.392 -0.1602 -0.0281 -0.1805
  747loPI   C1B11281  14.996   1.857   5.860  0.0272 -0.1803  0.1756
  747loPI   C2B11282  14.915   1.945   6.220 -0.0011  0.0055  0.1127
  747loPI   C3B11283  14.841   2.315   6.477 -0.2369  0.1881 -0.1272
  747loPI   C4B11284  14.606   2.416   6.769  0.3715  0.1415  0.1181
  748loPI    C111285  15.084  18.782   5.015  0.2030 -0.0419 -0.0732
  748loPI    C211286  15.300  18.896   4.698 -0.0304  0.0362 -0.2065
  748loPI    C311287  15.132  18.534   4.705 -0.0245  0.0339 -0.1708
  748loPI   PO411288  15.161  18.785   5.247 -0.0748  0.3247 -0.0740
  748loPI   GL111289  15.181  19.118   5.572  0.2997 -0.0353  0.2597
  748loPI   GL211290  15.070  19.414   5.579  0.3109  0.0694  0.2508
  748loPI   C1A11291  15.166  19.099   5.990  0.0202 -0.0948  0.0985
  748loPI   C2A11292  15.251  18.937   6.330  0.0586  0.0307  0.2066
  748loPI   C3A11293  15.518  18.848   6.651  0.2449  0.0558 -0.3537
  748loPI   C4A11294  15.581  19.012   7.095  0.0890  0.1549  0.0743
  748loPI   C5A11295  15.641  19.357   7.425 -0.2527 -0.0510 -0.2027
  748loPI   C6A11296  15.762  19.450   7.845 -0.0256  0.2836 -0.0371
  748loPI   C1B11297  14.964  19.606   5.885 -0.0079 -0.1255 -0.2574
  748loPI   C2B11298  14.896  19.967   5.854 -0.0323 -0.5119 -0.1125
  748loPI   C3B11299  14.624  20.338   5.911 -0.0199 -0.1461  0.3353
  748loPI   C4B11300  14.538  20.799   5.869 -0.1414 -0.3118  0.1114
  749loPI    C111301   7.120  10.991   4.490 -0.2052 -0.1819 -0.0852
  749loPI    C211302   6.933  10.687   4.672 -0.0290 -0.3143 -0.1228
  749loPI    C311303   7.047  10.653   4.290  0.0052 -0.2065 -0.1227
  749loPI   PO411304   7.111  11.278   4.654  0.2285 -0.1405  0.0347
  749loPI   GL111305   6.891  11.021   5.050 -0.0955  0.1940 -0.1686
  749loPI   GL211306   6.558  11.078   4.987 -0.1760 -0.0141  0.0280
  749loPI   C1A11307   6.855  10.910   5.510  0.1018  0.2326  0.0831
  749loPI   C2A11308   6.817  10.776   5.928 -0.0916  0.0690  0.1412
  749loPI   C3A11309   6.745  10.684   6.399  0.2629  0.1820 -0.0061
  749loPI   C4A11310   6.665  10.695   6.818 -0.3020 -0.0638  0.1489
  749loPI   C5A11311   6.387  10.722   7.135 -0.1413 -0.0523 -0.1028
  749loPI   C6A11312   6.049  11.062   7.301  0.1719 -0.1321  0.0369
  749loPI   C1B11313   6.417  10.768   5.294 -0.1809 -0.2509 -0.0747
  749loPI   C2B11314   6.383  10.672   5.701 -0.3266  0.2027 -0.4306
  749loPI   C3B11315   6.364  10.531   6.123 -0.2853 -0.1322 -0.0030
  749loPI   C4B11316   6.276  10.404   6.598  0.0810 -0.1098 -0.0861
  750loPI    C111317  15.940   6.836   5.049  0.1392 -0.2002  0.1148
  750loPI    C211318  15.935   6.514   4.811 -0.2552  0.0232 -0.1907
  750loPI    C311319  16.125   6.847   4.695 -0.2171  0.0446 -0.0688
  750loPI   PO411320  15.927   6.751   5.294 -0.0979  0.0058  0.1887
  750loPI   GL111321  15.751   6.558   5.653  0.1400  0.2620  0.4067
  750loPI   GL211322  15.544   6.871   5.626  0.1493 -0.2816 -0.1488
  750loPI   C1A11323  15.532   6.228   5.905 -0.1105  0.0221 -0.2719
  750loPI   C2A11324  15.416   6.061   6.339  0.0014  0.0213  0.1288
  750loPI   C3A11325  15.317   5.840   6.751 -0.1110  0.0681 -0.1078
  750loPI   C4A11326  15.589   5.671   7.076 -0.3667 -0.2060 -0.0802
  750loPI   C5A11327  15.989   5.633   7.395  0.0615 -0.5644  0.0501
  750loPI   C6A11328  16.034   5.434   7.791  0.2539 -0.1366 -0.1758
  750loPI   C1B11329  15.542   6.804   6.036 -0.4075 -0.1744 -0.1993
  750loPI   C2B11330  15.844   6.528   6.220 -0.1602 -0.1765 -0.1207
  750loPI   C3B11331  16.266   6.663   6.103  0.1722 -0.1593  0.4830
  750loPI   C4B11332  16.760   6.696   5.958 -0.1803  0.2352 -0.1126
  751loPI    C111333   1.405   2.529   4.964 -0.0424 -0.0668 -0.0608
  751loPI    C211334   1.793   2.452   5.021 -0.0206  0.0889  0.0044
  751loPI    C311335   1.618   2.351   4.676 -0.0004 -0.2773  0.0982
  751loPI   PO411336   1.311   2.467   5.065 -0.2023  0.0554  0.3000
  751loPI   GL111337   1.153   2.263   5.408  0.1074  0.3918  0.0209
  751loPI   GL211338   0.919   2.395   5.583  0.0419 -0.1487  0.5177
  751loPI   C1A11339   1.251   1.990   5.689 -0.1263  0.2136 -0.0338
  751loPI   C2A11340   1.493   1.826   6.025  0.0731 -0.0814 -0.3683
  751loPI   C3A11341   1.449   1.931   6.388 -0.0088  0.2911 -0.1530
  751loPI   C4A11342   1.589   1.849   6.761 -0.1163  0.1731 -0.0332
  751loPI   C5A11343   1.659   1.811   7.237  0.2030  0.1113 -0.1123
  751loPI   C6A11344   1.590   1.880   7.756  0.1493 -0.0796  0.0374
  751loPI   C1B11345   0.989   2.388   6.018 -0.0077  0.0536 -0.2082
  751loPI   C2B11346   1.083   2.327   6.514 -0.1760  0.1313  0.2684
  751loPI   C3B11347   1.248   2.293   6.853 -0.1103  0.1830  0.2702
  751loPI   C4B11348   1.170   2.660   7.179  0.0619 -0.2144  0.1292
  752loPI    C111349   8.401   5.785   4.374  0.0643 -0.0620  0.2230
  752loPI    C211350   8.727   5.864   4.155 -0.0388 -0.0821  0.0608
  752loPI    C311351   8.652   5.490   4.274 -0.0396 -0.0890  0.0384
  752loPI   PO411352   8.411   5.956   4.566 -0.0120 -0.2815 -0.1247
  752loPI   GL111353   8.568   6.003   5.007  0.4350 -0.1497  0.1776
  752loPI   GL211354   8.308   6.156   5.069  0.0329  0.1643 -0.1016
  752loPI   C1A11355   8.480   5.748   5.400  0.2070  0.3185  0.0331
  752loPI   C2A11356   8.338   5.359   5.715 -0.0469 -0.0592  0.1332
  752loPI   C3A11357   8.332   5.417   6.169 -0.0062  0.1702  0.3687
  752loPI   C4A11358   8.294   5.672   6.512 -0.3294 -0.2904  0.2163
  752loPI   C5A11359   8.102   5.957   6.796 -0.0833  0.0913  0.0799
  752loPI   C6A11360   7.675   5.952   6.980  0.0357  0.0049 -0.1737
  752loPI   C1B11361   7.996   6.398   5.285 -0.0971 -0.3491  0.4471
  752loPI   C2B11362   7.662   6.399   5.558  0.0955  0.2817  0.0441
  752loPI   C3B11363   7.606   6.136   5.913 -0.4236  0.0611  0.0741
  752loPI   C4B11364   7.694   6.134   6.436 -0.1354 -0.0537 -0.2487
  753loPI    C111365  17.948  18.778   5.103  0.3388  0.0588  0.0216
  753loPI    C211366  18.138  18.633   4.781 -0.0259 -0.0609 -0.1445
  753loPI    C311367  17.792  18.830   4.738 -0.0623 -0.0496  0.1722
  753loPI   PO411368  18.120  18.597   5.318 -0.1057  0.1964  0.0650
  753loPI   GL111369  18.224  18.557   5.643 -0.1844 -0.0772 -0.0111
  753loPI   GL211370  18.067  18.368   5.879 -0.1467 -0.2509  0.0240
  753loPI   C1A11371  18.542  18.729   6.033 -0.3423  0.3898  0.1369
  753loPI   C2A11372  18.629  18.685   6.497  0.1880  0.0428  0.0664
  753loPI   C3A11373  18.662  18.653   6.837  0.0572  0.2609  0.1113
  753loPI   C4A11374  18.638  18.225   7.168 -0.0536 -0.2249 -0.0250
  753loPI   C5A11375  18.396  18.086   7.619 -0.0098  0.0589  0.0727
  753loPI   C6A11376  18.252  17.660   7.805 -0.0704  0.0684  0.2713
  753loPI   C1B11377  18.028  18.586   6.192 -0.0550  0.3623  0.0625
  753loPI   C2B11378  18.170  18.660   6.661  0.1922 -0.2095  0.1635
  753loPI   C3B11379  17.937  18.885   7.029  0.1105 -0.4016 -0.1778
  753loPI   C4B11380  17.478  18.912   6.980 -0.2182  0.1451 -0.1297
  754loPI    C111381  10.313   4.434   4.655 -0.0739  0.0209  0.1747
  754loPI    C211382  10.449   4.139   4.420 -0.1061 -0.0037  0.1868
  754loPI    C311383  10.095   4.102   4.603 -0.1465  0.0759  0.1254
  754loPI   PO411384  10.505   4.622   4.884  0.2567 -0.1955  0.0675
  754loPI   GL111385  10.726   4.820   5.189  0.0316 -0.0909  0.1660
  754loPI   GL211386  10.366   4.817   5.429 -0.2724 -0.3134 -0.3081
  754loPI   C1A11387  10.906   4.671   5.525  0.1256 -0.1610  0.1040
  754loPI   C2A11388  10.691   4.615   5.986 -0.0819 -0.4828  0.0139
  754loPI   C3A11389  10.580   4.548   6.374  0.0577 -0.0066  0.2019
  754loPI   C4A11390  10.353   4.822   6.664 -0.2707 -0.0382  0.1244
  754loPI   C5A11391  10.116   5.319   6.727 -0.2531 -0.0242  0.0764
  754loPI   C6A11392  10.010   5.642   6.974 -0.1675  0.0162 -0.1379
  754loPI   C1B11393  10.206   4.923   5.845  0.0924 -0.1960  0.3118
  754loPI   C2B11394  10.030   5.112   6.238  0.1068 -0.2944 -0.1437
  754loPI   C3B11395   9.692   5.223   6.529 -0.2424  0.1978  0.0820
  754loPI   C4B11396   9.589   5.216   6.979 -0.1416 -0.0876  0.1273
  755loPI    C111397   4.304  11.324   4.877  0.0190  0.0039 -0.0584
  755loPI    C211398   4.284  10.942   4.992 -0.1877  0.0605  0.0990
  755loPI    C311399   4.640  11.120   4.951 -0.0869 -0.1729 -0.0612
  755loPI   PO411400   4.204  11.449   5.091 -0.0619 -0.1022 -0.0868
  755loPI   GL111401   4.366  11.463   5.491 -0.2027  0.1865  0.2939
  755loPI   GL211402   4.143  11.122   5.476 -0.0985 -0.2072  0.1154
  755loPI   C1A11403   4.229  11.660   5.944 -0.1357  0.2194  0.0668
  755loPI   C2A11404   4.285  11.749   6.427 -0.0488  0.1217  0.0674
  755loPI   C3A11405   4.262  11.984   6.781  0.3441 -0.0926  0.1310
  755loPI   C4A11406   4.134  12.356   6.897 -0.0603 -0.0621  0.0125
  755loPI   C5A11407   3.712  12.595   6.808 -0.0866 -0.3312 -0.0058
  755loPI   C6A11408   3.212  12.622   6.925 -0.1783  0.0491  0.0412
  755loPI   C1B11409   4.268  10.827   5.829  0.3901  0.1065 -0.1006
  755loPI   C2B11410   4.388  10.800   6.117  0.0753  0.2622  0.1614
  755loPI   C3B11411   4.440  10.984   6.524 -0.3008  0.2227 -0.0639
  755loPI   C4B11412   4.506  11.128   6.989  0.0497 -0.0349 -0.1038
  756loPI    C111413   2.582  10.415   4.736 -0.1641 -0.0047 -0.1130
  756loPI    C211414   2.381  10.389   4.391 -0.1474 -0.0403 -0.1200
  756loPI    C311415   2.654  10.111   4.485 -0.2726 -0.1242 -0.0012
  756loPI   PO411416   2.426  10.691   4.842 -0.2260 -0.1713  0.0923
  756loPI   GL111417   2.333  10.819   5.166  0.2435  0.1294  0.2931
  756loPI   GL211418   2.591  11.007   5.375  0.1692  0.2405 -0.0605
  756loPI   C1A11419   2.326  10.626   5.627 -0.1707 -0.1764  0.0323
  756loPI   C2A11420   2.632  10.554   5.928  0.2295 -0.0087 -0.1318
  756loPI   C3A11421   2.603  10.435   6.274  0.2136 -0.0535  0.0462
  756loPI   C4A11422   2.701  10.233   6.819  0.0494 -0.1239  0.1241
  756loPI   C5A11423   2.538   9.995   7.146 -0.1443  0.1295  0.3650
  756loPI   C6A11424   2.270   9.696   7.286  0.0662 -0.2217  0.2959
  756loPI   C1B11425   2.419  11.093   5.810  0.0494 -0.3497 -0.2067
  756loPI   C2B11426   2.511  10.915   6.219 -0.0386  0.2279 -0.0979
  756loPI   C3B11427   2.518  10.891   6.666 -0.1938 -0.1010 -0.1787
  756loPI   C4B11428   2.556  10.790   7.048 -0.1426 -0.1120 -0.0896
  757loPI    C111429   5.370  16.939   5.357 -0.1363 -0.0883 -0.1009
  757loPI    C211430   5.328  16.722   5.024  0.1823 -0.0849 -0.1464
  757loPI    C311431   5.063  16.685   5.321  0.1006 -0.3602 -0.2497
  757loPI   PO411432   5.376  17.138   5.342  0.0279  0.0944  0.0355
  757loPI   GL111433   5.329  17.368   5.694 -0.1833  0.0492 -0.1925
  757loPI   GL211434   5.547  17.256   5.777  0.1962  0.1908  0.2195
  757loPI   C1A11435   5.107  17.666   5.916  0.0350 -0.2553 -0.1103
  757loPI   C2A11436   5.035  17.918   6.348  0.0405  0.3424  0.1232
  757loPI   C3A11437   4.991  18.300   6.507 -0.0959 -0.0003 -0.0399
  757loPI   C4A11438   4.773  18.418   6.812  0.0198 -0.3851 -0.0060
  757loPI   C5A11439   4.762  18.670   7.174 -0.0269  0.0293 -0.2012
  757loPI   C6A11440   5.182  18.970   7.192 -0.1581  0.0297  0.2977
  757loPI   C1B11441   5.586  16.876   6.038  0.0776  0.0547 -0.1415
  757loPI   C2B11442   5.591  16.456   6.189 -0.1370 -0.2216  0.0999
  757loPI   C3B11443   5.425  16.224   6.523  0.1386 -0.0882  0.2117
  757loPI   C4B11444   5.476  16.183   6.950 -0.2156 -0.1367 -0.0377
  758loPI    C111445  16.144   5.675   5.102  0.0312  0.1233 -0.0420
  758loPI    C211446  15.968   5.971   4.900 -0.0289  0.0606 -0.0820
  758loPI    C311447  15.854   5.593   4.840  0.0259  0.0321 -0.0080
  758loPI   PO411448  16.184   5.799   5.292 -0.0529 -0.0146 -0.0742
  758loPI   GL111449  16.120   5.862   5.684 -0.2240  0.0706 -0.1077
  758loPI   GL211450  15.845   5.864   5.817  0.1051  0.0534  0.1771
  758loPI   C1A11451  16.316   5.677   5.961 -0.1734 -0.1471  0.0843
  758loPI   C2A11452  16.268   5.440   6.433 -0.2004 -0.2218 -0.2599
  758loPI   C3A11453  16.352   5.128   6.874  0.0234 -0.2285 -0.1019
  758loPI   C4A11454  16.174   5.258   7.198  0.0071  0.0482 -0.3216
  758loPI   C5A11455  15.804   5.212   7.335  0.3477 -0.2011 -0.1101
  758loPI   C6A11456  15.373   5.240   7.320 -0.2631  0.1586 -0.0452
  758loPI   C1B11457  15.893   5.858   6.217 -0.0968 -0.2926 -0.0221
  758loPI   C2B11458  15.812   5.902   6.643  0.1361  0.0538  0.3862
  758loPI   C3B11459  15.686   6.200   6.987 -0.2556 -0.0468 -0.0835
  758loPI   C4B11460  15.612   6.585   7.174 -0.0900  0.2252 -0.0865
  759loPI    C111461   7.738   0.496   4.780  0.2200  0.0066 -0.3624
  759loPI    C211462   7.766   0.892   4.832 -0.1933 -0.0262  0.2061
  759loPI    C311463   7.721   0.741   4.464  0.0445  0.4445 -0.0248
  759loPI   PO411464   7.746   0.454   5.066 -0.1405 -0.0979 -0.1111
  759loPI   GL111465   7.433   0.760   5.176 -0.1565  0.1647 -0.3948
  759loPI   GL211466   7.618   0.770   5.461  0.0486 -0.0062  0.2936
  759loPI   C1A11467   7.166   0.922   5.499 -0.0672  0.1735 -0.0001
  759loPI   C2A11468   7.118   0.531   5.778 -0.2377  0.1154  0.1318
  759loPI   C3A11469   7.038   0.471   6.214 -0.0612 -0.3604  0.1002
  759loPI   C4A11470   7.145   0.341   6.560 -0.3166  0.3631 -0.4372
  759loPI   C5A11471   6.950   0.295   6.874 -0.1771 -0.1844 -0.0359
  759loPI   C6A11472   6.923   0.093   7.331  0.3487  0.1192 -0.0264
  759loPI   C1B11473   7.575   0.698   5.924  0.4298  0.2475  0.0482
  759loPI   C2B11474   7.547   0.579   6.339 -0.1059  0.0290 -0.2007
  759loPI   C3B11475   7.581   0.266   6.754  0.0280  0.1116  0.0494
  759loPI   C4B11476   7.444   0.457   7.209 -0.1888  0.0590  0.1278
  760loPI    C111477   6.033  11.817   4.702  0.1951 -0.1564 -0.1436
  760loPI    C211478   5.902  12.095   4.446 -0.1249 -0.0686  0.1087
  760loPI    C311479   5.790  11.714   4.401  0.2468 -0.1477 -0.1882
  760loPI   PO411480   6.256  12.036   4.830  0.0154 -0.3376 -0.0225
  760loPI   GL111481   6.332  11.762   5.265  0.3369 -0.1881  0.3807
  760loPI   GL211482   6.120  11.534   5.118 -0.0512  0.2713  0.2368
  760loPI   C1A11483   6.340  11.649   5.723 -0.0512 -0.0424 -0.1275
  760loPI   C2A11484   6.326  11.740   6.248  0.0277 -0.0495 -0.2215
  760loPI   C3A11485   6.395  11.972   6.545 -0.1733  0.1196  0.1050
  760loPI   C4A11486   6.195  12.009   7.015  0.1886  0.0682 -0.3712
  760loPI   C5A11487   6.011  11.807   7.477 -0.0810 -0.0801  0.0747
  760loPI   C6A11488   5.802  11.943   7.780 -0.0707  0.1101  0.1226
  760loPI   C1B11489   6.133  11.332   5.397 -0.2990  0.0920 -0.1446
  760loPI   C2B11490   6.360  11.156   5.694 -0.0494 -0.2508  0.0271
  760loPI   C3B11491   6.461  11.173   6.076  0.0467 -0.0044  0.2084
  760loPI   C4B11492   6.465  11.064   6.492 -0.2656 -0.1722 -0.1758
  761loPI    C111493  12.097  15.793   5.053 -0.4176 -0.0335 -0.2515
  761loPI    C211494  12.318  15.770   4.720 -0.0954  0.2976 -0.0686
  761loPI    C311495  12.352  15.489   5.003 -0.3379  0.0393 -0.2891
  761loPI   PO411496  12.136  15.898   5.216 -0.2437  0.2521  0.2553
  761loPI   GL111497  11.879  16.036   5.477 -0.2660  0.2945 -0.0649
  761loPI   GL211498  12.128  16.218   5.599  0.1147  0.2554 -0.5354
  761loPI   C1A11499  11.789  15.954   5.859 -0.0515 -0.4091  0.0029
  761loPI   C2A11500  11.964  16.141   6.241 -0.3724 -0.1324  0.1263
  761loPI   C3A11501  11.845  16.329   6.624  0.2082  0.0150 -0.0721
  761loPI   C4A11502  11.733  16.494   7.002 -0.2812 -0.2628  0.2590
  761loPI   C5A11503  11.564  16.488   7.493 -0.1397 -0.2986  0.0631
  761loPI   C6A11504  11.104  16.377   7.507  0.1835 -0.1039 -0.2015
  761loPI   C1B11505  12.335  16.035   5.964  0.1730 -0.2878  0.0582
  761loPI   C2B11506  12.407  15.975   6.382  0.2971  0.0674  0.0513
  761loPI   C3B11507  12.436  15.944   6.742 -0.0811 -0.2991 -0.1754
  761loPI   C4B11508  12.616  15.554   6.962  0.1805 -0.0535  0.4096
  762loPI    C111509   3.611  18.119   4.877 -0.0188 -0.0467  0.0211
  762loPI    C211510   3.572  18.421   4.618  0.0301  0.0581  0.1345
  762loPI    C311511   3.559  18.043   4.488 -0.0696  0.1079 -0.0031
  762loPI   PO411512   3.880  18.227   4.970  0.3194 -0.0128  0.1133
  762loPI   GL111513   4.124  18.315   5.271  0.0734 -0.0372  0.1318
  762loPI   GL211514   4.201  18.070   5.355  0.0452  0.4282  0.0491
  762loPI   C1A11515   3.971  18.537   5.651  0.2960 -0.2031 -0.3074
  762loPI   C2A11516   4.002  18.517   6.078  0.1731  0.1710  0.1674
  762loPI   C3A11517   3.944  18.416   6.557 -0.2860 -0.0138  0.2598
  762loPI   C4A11518   3.713  18.263   6.977  0.0333  0.0474 -0.1270
  762loPI   C5A11519   3.661  18.276   7.449 -0.1838  0.0418  0.3506
  762loPI   C6A11520   3.563  18.253   7.861 -0.0153  0.0715 -0.3084
  762loPI   C1B11521   4.069  18.024   5.711 -0.0186  0.2440 -0.1816
  762loPI   C2B11522   4.055  18.038   6.221  0.1964  0.0175  0.5587
  762loPI   C3B11523   4.229  18.050   6.610  0.1638  0.1627 -0.0285
  762loPI   C4B11524   4.306  18.195   7.016 -0.1848  0.2018  0.0482
  763loPI    C111525   5.859  13.042   4.406  0.1017  0.0891  0.2249
  763loPI    C211526   6.002  13.410   4.340 -0.1613  0.1712  0.1013
  763loPI    C311527   5.644  13.306   4.196 -0.1557 -0.0846  0.2671
  763loPI   PO411528   5.923  12.987   4.577 -0.0818  0.4939  0.1841
  763loPI   GL111529   5.910  12.936   5.036  0.3389  0.2558  0.1124
  763loPI   GL211530   6.229  12.770   5.189 -0.5497  0.1568 -0.0117
  763loPI   C1A11531   6.039  13.226   5.362  0.1849 -0.2762  0.2557
  763loPI   C2A11532   6.091  13.323   5.796  0.1390 -0.0773  0.3705
  763loPI   C3A11533   6.026  13.442   6.189 -0.0859 -0.0503 -0.0076
  763loPI   C4A11534   6.055  13.807   6.542 -0.0456 -0.0857 -0.3185
  763loPI   C5A11535   6.335  14.054   6.766  0.3085  0.5269 -0.0233
  763loPI   C6A11536   6.615  14.049   7.172  0.0794 -0.0421 -0.3079
  763loPI   C1B11537   6.183  12.714   5.614  0.0682 -0.1590 -0.1540
  763loPI   C2B11538   6.311  12.889   6.074  0.1232  0.0296  0.1495
  763loPI   C3B11539   6.246  13.025   6.408 -0.0939 -0.0221 -0.2685
  763loPI   C4B11540   6.446  12.960   6.797  0.0013 -0.0521  0.1246
  764loPI    C111541  11.152  14.967   4.444 -0.3001 -0.0804  0.0572
  764loPI    C211542  10.934  14.811   4.147 -0.3723  0.0218  0.0556
  764loPI    C311543  11.125  15.158   4.094  0.1923 -0.3011 -0.1094
  764loPI   PO411544  11.044  15.022   4.658  0.3153 -0.2960 -0.2792
  764loPI   GL111545  11.160  14.898   5.072 -0.0169 -0.3101 -0.1809
  764loPI   GL211546  10.895  15.032   5.204  0.0077  0.1558  0.0346
  764loPI   C1A11547  11.282  14.928   5.560  0.0384 -0.2597  0.0708
  764loPI   C2A11548  11.194  15.075   5.910 -0.0511 -0.0730 -0.2026
  764loPI   C3A11549  11.019  14.994   6.416 -0.1686  0.2478  0.1678
  764loPI   C4A11550  10.890  14.718   6.731 -0.1128  0.0722 -0.0027
  764loPI   C5A11551  10.615  14.635   7.066  0.1704  0.2402  0.2225
  764loPI   C6A11552  10.305  14.580   7.146  0.0071 -0.7226 -0.3104
  764loPI   C1B11553  10.763  14.949   5.559  0.0913 -0.0143 -0.0618
  764loPI   C2B11554  10.732  14.838   6.001 -0.0123 -0.0857 -0.0292
  764loPI   C3B11555  10.773  14.458   6.249 -0.0109 -0.0713 -0.1469
  764loPI   C4B11556  11.012  14.081   6.152  0.1374 -0.1607  0.4002
  765loPI    C111557   8.762   6.321   4.384  0.1690 -0.0044 -0.1265
  765loPI    C211558   9.073   6.337   4.133  0.2129 -0.2568 -0.0906
  765loPI    C311559   8.747   6.558   4.062  0.4200  0.0522 -0.0988
  765loPI   PO411560   8.878   6.382   4.556 -0.1763  0.1646 -0.0478
  765loPI   GL111561   8.800   6.456   4.964 -0.2069  0.4129  0.0825
  765loPI   GL211562   8.887   6.430   5.266 -0.1394 -0.1684 -0.1244
  765loPI   C1A11563   8.482   6.730   5.167  0.1555  0.2645  0.1180
  765loPI   C2A11564   8.310   6.683   5.516 -0.2200 -0.4183  0.1685
  765loPI   C3A11565   8.315   6.873   5.880 -0.0593 -0.2389 -0.0704
  765loPI   C4A11566   8.197   6.970   6.276 -0.2729 -0.1201  0.1041
  765loPI   C5A11567   7.867   7.154   6.554  0.0827 -0.3250  0.5492
  765loPI   C6A11568   7.388   7.311   6.593 -0.3166 -0.3970 -0.1396
  765loPI   C1B11569   8.617   6.203   5.469 -0.2787 -0.2776  0.2120
  765loPI   C2B11570   8.274   6.177   5.635  0.1137 -0.2677  0.0534
  765loPI   C3B11571   8.074   6.397   5.846 -0.1544 -0.1406 -0.0472
  765loPI   C4B11572   7.895   6.531   6.232  0.1007 -0.1422  0.1738
  766loPI    C111573  13.498   2.326   4.878  0.2065 -0.0060 -0.0377
  766loPI    C211574  13.483   2.230   4.490 -0.2577  0.0438 -0.0375
  766loPI    C311575  13.249   2.520   4.633 -0.1218 -0.0039  0.2901
  766loPI   PO411576  13.555   2.095   5.045  0.2299 -0.2289  0.0191
  766loPI   GL111577  13.651   2.077   5.541  0.0594 -0.1328  0.0009
  766loPI   GL211578  13.595   2.309   5.763  0.2340  0.1689 -0.3102
  766loPI   C1A11579  13.590   1.814   5.899 -0.2555  0.1845 -0.4061
  766loPI   C2A11580  13.487   1.668   6.220  0.1509  0.1895 -0.0218
  766loPI   C3A11581  13.563   1.491   6.587 -0.0583  0.0031 -0.0964
  766loPI   C4A11582  13.789   1.413   6.986 -0.1636  0.1710  0.0425
  766loPI   C5A11583  13.791   1.239   7.407  0.1293  0.2467  0.1162
  766loPI   C6A11584  13.832   1.098   7.859 -0.1339  0.1144  0.0009
  766loPI   C1B11585  13.629   2.391   6.265  0.0318 -0.0531 -0.2702
  766loPI   C2B11586  13.661   2.324   6.688  0.0897  0.0068  0.0227
  766loPI   C3B11587  13.668   2.266   7.169 -0.0102  0.2022 -0.0313
  766loPI   C4B11588  14.025   2.238   7.444 -0.1436  0.5644 -0.0844
  767loPI    C111589   9.365   8.055   4.643 -0.0869 -0.3717  0.1229
  767loPI    C211590   8.999   7.986   4.787 -0.2285  0.1467  0.0299
  767loPI    C311591   9.087   7.885   4.410 -0.3249  0.1635  0.0024
  767loPI   PO411592   9.538   7.980   4.899  0.2913 -0.0353  0.1660
  767loPI   GL111593   9.739   7.863   5.243  0.0115 -0.3660  0.1960
  767loPI   GL211594   9.501   7.675   5.255 -0.2123 -0.2344 -0.3424
  767loPI   C1A11595   9.667   7.919   5.656 -0.0903 -0.0113  0.2440
  767loPI   C2A11596   9.846   8.040   6.060  0.0526 -0.2816  0.0367
  767loPI   C3A11597   9.740   8.151   6.428  0.0808  0.1324 -0.1571
  767loPI   C4A11598   9.462   8.376   6.750  0.1886  0.0967 -0.0675
  767loPI   C5A11599   9.303   8.445   7.189  0.1584 -0.0776  0.0250
  767loPI   C6A11600   9.416   8.618   7.610  0.1656 -0.0106 -0.0784
  767loPI   C1B11601   9.203   7.893   5.501 -0.0952 -0.1269 -0.1609
  767loPI   C2B11602   9.296   8.083   5.987  0.0521  0.0348 -0.0785
  767loPI   C3B11603   9.212   7.975   6.406 -0.1180  0.1143  0.0274
  767loPI   C4B11604   9.199   7.888   6.948  0.1432  0.0407  0.2759
  768loPI    C111605  11.727   4.368   4.537  0.2204 -0.1991  0.3791
  768loPI    C211606  12.110   4.298   4.443  0.1481  0.1958 -0.2717
  768loPI    C311607  11.822   4.061   4.298  0.1013  0.2630 -0.2889
  768loPI   PO411608  11.578   4.474   4.762  0.1882  0.1488 -0.0388
  768loPI   GL111609  11.585   4.273   5.192 -0.3194 -0.2217 -0.3332
  768loPI   GL211610  11.413   4.552   5.236  0.0374 -0.1155  0.1773
  768loPI   C1A11611  11.837   4.131   5.527  0.1414  0.1149 -0.1455
  768loPI   C2A11612  11.931   3.998   5.917 -0.1045  0.0511 -0.2150
  768loPI   C3A11613  11.768   4.063   6.343  0.2969 -0.5700 -0.0478
  768loPI   C4A11614  11.728   4.376   6.617 -0.2428  0.1209 -0.3088
  768loPI   C5A11615  11.820   4.485   7.023  0.1194 -0.2087 -0.0250
  768loPI   C6A11616  11.856   4.895   7.254 -0.1798  0.1689  0.0251
  768loPI   C1B11617  11.416   4.649   5.643  0.3261 -0.0181 -0.1486
  768loPI   C2B11618  11.602   4.918   6.042  0.0262  0.0522  0.2059
  768loPI   C3B11619  11.580   5.233   6.366  0.1286  0.2420 -0.1080
  768loPI   C4B11620  11.498   5.125   6.753 -0.1837 -0.2001 -0.2015
  769loPI    C111621   4.163   6.614   4.940  0.0698  0.0597 -0.1471
  769loPI    C211622   4.192   6.719   4.555  0.0736  0.2714 -0.0908
  769loPI    C311623   3.861   6.806   4.762 -0.0113 -0.0221 -0.0984
  769loPI   PO411624   4.291   6.392   5.074  0.0355  0.0936 -0.4487
  769loPI   GL111625   4.632   6.260   5.253  0.4152  0.0882 -0.3596
  769loPI   GL211626   4.833   6.534   5.327  0.2021  0.0932 -0.0303
  769loPI   C1A11627   4.513   6.466   5.681  0.3429 -0.2747  0.0788
  769loPI   C2A11628   4.426   6.557   6.013  0.2856 -0.2603 -0.0618
  769loPI   C3A11629   4.341   6.410   6.388 -0.0217 -0.1985 -0.0571
  769loPI   C4A11630   4.345   6.169   6.726  0.1891 -0.0632 -0.0733
  769loPI   C5A11631   4.526   5.804   7.056 -0.1159 -0.0783 -0.0670
  769loPI   C6A11632   4.721   5.530   7.365 -0.4072 -0.0168  0.2864
  769loPI   C1B11633   4.822   6.884   5.659  0.1747  0.0837  0.1908
  769loPI   C2B11634   4.688   7.074   6.056 -0.2533  0.0404  0.0333
  769loPI   C3B11635   4.963   7.146   6.453  0.1924 -0.2099  0.2557
  769loPI   C4B11636   5.070   7.169   6.762 -0.2483  0.0290 -0.1003
  770loPI    C111637   5.324   9.908   4.492  0.0195 -0.0987  0.2167
  770loPI    C211638   5.132   9.586   4.353  0.0798  0.0460 -0.2152
  770loPI    C311639   5.492   9.684   4.207  0.1858  0.1564  0.1101
  770loPI   PO411640   5.160   9.872   4.742  0.1525 -0.4192 -0.0208
  770loPI   GL111641   5.387   9.727   5.065 -0.1828 -0.1678  0.0321
  770loPI   GL211642   5.446  10.014   5.217  0.0136 -0.0476  0.3884
  770loPI   C1A11643   5.425   9.607   5.562  0.0113  0.0305  0.2350
  770loPI   C2A11644   5.494   9.822   5.883  0.0646  0.0157 -0.0167
  770loPI   C3A11645   5.467   9.933   6.327 -0.1737 -0.0893  0.0585
  770loPI   C4A11646   5.621  10.010   6.761  0.0165 -0.3655 -0.2737
  770loPI   C5A11647   5.917   9.770   6.981 -0.4211 -0.0399  0.3074
  770loPI   C6A11648   6.000   9.376   7.042  0.0305  0.0980  0.0404
  770loPI   C1B11649   5.451  10.197   5.616  0.1301  0.1833  0.2466
  770loPI   C2B11650   5.211  10.319   6.038  0.1313  0.1219  0.3921
  770loPI   C3B11651   5.178  10.344   6.438  0.1073  0.2274 -0.0535
  770loPI   C4B11652   5.297  10.448   6.884 -0.0640  0.4106  0.2264
  771loPI    C111653   4.996  17.557   5.288  0.0099  0.1719 -0.0013
  771loPI    C211654   5.127  17.642   4.920  0.0336 -0.3053 -0.1099
  771loPI    C311655   5.380  17.653   5.230  0.0110  0.1096 -0.1005
  771loPI   PO411656   4.756  17.702   5.254  0.1591 -0.0586 -0.1094
  771loPI   GL111657   4.595  17.866   5.554  0.0002 -0.3129  0.2563
  771loPI   GL211658   4.496  17.784   5.829  0.1349 -0.1439 -0.1287
  771loPI   C1A11659   4.938  18.147   5.862  0.1465  0.0585 -0.0600
  771loPI   C2A11660   4.924  18.548   6.096  0.0842 -0.0785  0.0491
  771loPI   C3A11661   4.902  18.777   6.516 -0.0976  0.1173 -0.0449
  771loPI   C4A11662   4.644  19.023   6.561 -0.0351  0.0979 -0.2089
  771loPI   C5A11663   4.538  19.394   6.515  0.3522  0.0551  0.0614
  771loPI   C6A11664   4.488  19.601   6.940 -0.1665 -0.1535 -0.3910
  771loPI   C1B11665   4.566  17.903   6.331  0.1159  0.0762 -0.1619
  771loPI   C2B11666   4.720  17.879   6.842 -0.2901  0.4883  0.1232
  771loPI   C3B11667   4.714  17.819   7.260  0.0950 -0.0078  0.1626
  771loPI   C4B11668   4.916  18.134   7.547 -0.1930  0.0683 -0.0417
  772loPI    C111669   8.809   4.884   4.724  0.0113  0.2817  0.0071
  772loPI    C211670   9.004   5.109   4.456  0.1165  0.1573 -0.0217
  772loPI    C311671   8.725   4.850   4.335  0.1371  0.1284 -0.0076
  772loPI   PO411672   8.992   4.829   4.881 -0.0860 -0.1686 -0.0353
  772loPI   GL111673   9.182   4.886   5.260 -0.4391  0.0831 -0.0579
  772loPI   GL211674   8.957   4.689   5.386  0.3041 -0.1543 -0.1816
  772loPI   C1A11675   9.366   4.956   5.562  0.0331 -0.3753 -0.3159
  772loPI   C2A11676   9.266   5.060   5.979 -0.0077 -0.0006  0.2701
  772loPI   C3A11677   9.162   5.222   6.425 -0.0862  0.0318 -0.1278
  772loPI   C4A11678   9.318   5.559   6.728  0.2403  0.1129  0.1476
  772loPI   C5A11679   9.213   5.923   7.074  0.1485  0.1161  0.2071
  772loPI   C6A11680   9.302   6.364   7.152 -0.2751 -0.0248  0.1444
  772loPI   C1B11681   8.840   4.828   5.754  0.0067  0.0070 -0.1719
  772loPI   C2B11682   8.740   4.655   6.144 -0.1429 -0.3054  0.1202
  772loPI   C3B11683   8.713   4.719   6.566 -0.1296 -0.1439 -0.0174
  772loPI   C4B11684   8.814   4.756   6.982 -0.0706  0.1430  0.2937
  773loPI    C111685   8.059   4.869   4.994  0.1077  0.0955 -0.3716
  773loPI    C211686   7.752   4.693   5.181  0.0508  0.3635 -0.2070
  773loPI    C311687   7.972   4.486   4.919 -0.0888  0.0854 -0.1083
  773loPI   PO411688   7.974   5.092   4.884 -0.0321 -0.0398 -0.0813
  773loPI   GL111689   7.857   5.422   5.132  0.2266  0.0859 -0.1727
  773loPI   GL211690   8.029   5.717   5.223  0.1927  0.3457 -0.1637
  773loPI   C1A11691   7.803   5.308   5.511  0.1064 -0.2917  0.0013
  773loPI   C2A11692   7.905   5.148   5.931 -0.0108  0.2167 -0.0042
  773loPI   C3A11693   7.831   5.081   6.394 -0.3911  0.0891  0.2236
  773loPI   C4A11694   7.768   4.914   6.831  0.3087  0.0145  0.0047
  773loPI   C5A11695   7.643   4.862   7.196 -0.2399  0.2004  0.0566
  773loPI   C6A11696   7.732   5.130   7.564 -0.1807  0.1452  0.0096
  773loPI   C1B11697   8.005   5.721   5.673 -0.0868 -0.0541  0.2083
  773loPI   C2B11698   7.817   5.639   6.101  0.4409  0.0036  0.0291
  773loPI   C3B11699   7.724   5.537   6.431  0.4318 -0.2064  0.1733
  773loPI   C4B11700   7.372   5.549   6.636  0.1196 -0.0271  0.2141
  774loPI    C111701  16.590  11.191   4.545  0.0873  0.0156 -0.1403
  774loPI    C211702  16.760  11.083   4.199  0.1836  0.0839 -0.1145
  774loPI    C311703  16.491  11.379   4.206  0.1061  0.0142 -0.1466
  774loPI   PO411704  16.526  10.988   4.649  0.1630 -0.0944  0.3678
  774loPI   GL111705  16.115  10.989   4.954  0.4867  0.1278  0.0355
  774loPI   GL211706  16.163  10.753   4.839 -0.1586 -0.1271 -0.3860
  774loPI   C1A11707  16.153  11.109   5.457  0.2151 -0.2090 -0.3110
  774loPI   C2A11708  16.260  11.057   5.840  0.0854 -0.2523  0.0970
  774loPI   C3A11709  16.469  11.206   6.146  0.5609  0.2963 -0.0255
  774loPI   C4A11710  16.501  11.237   6.585 -0.1475 -0.2276  0.0334
  774loPI   C5A11711  16.514  11.165   6.946  0.2149 -0.0817  0.0804
  774loPI   C6A11712  16.945  10.954   7.121 -0.0034  0.1611 -0.3381
  774loPI   C1B11713  16.097  10.570   5.259  0.2343 -0.0883 -0.4826
  774loPI   C2B11714  15.990  10.676   5.616  0.1359  0.1487 -0.0739
  774loPI   C3B11715  16.092  10.449   6.036 -0.0546 -0.0381  0.2303
  774loPI   C4B11716  16.182  10.422   6.524  0.2624  0.1862  0.0336
  775loPI    C111717  14.228   3.236   4.939  0.0767 -0.1391  0.0680
  775loPI    C211718  14.472   3.140   4.637 -0.0903 -0.1397 -0.0684
  775loPI    C311719  14.611   3.147   5.012  0.1086 -0.1776 -0.1402
  775loPI   PO411720  14.013   3.385   4.867  0.1713 -0.0283 -0.1407
  775loPI   GL111721  13.796   3.613   5.089  0.0017  0.0027 -0.0211
  775loPI   GL211722  13.975   3.863   5.193 -0.1230  0.2416  0.1276
  775loPI   C1A11723  13.572   3.476   5.455  0.2021  0.0870 -0.0877
  775loPI   C2A11724  13.568   3.367   5.818  0.0343  0.0106 -0.1812
  775loPI   C3A11725  13.669   3.436   6.140  0.1456  0.0094  0.2237
  775loPI   C4A11726  13.683   3.493   6.548  0.0304  0.0349 -0.5852
  775loPI   C5A11727  13.789   3.709   6.986  0.0289 -0.2556 -0.0185
  775loPI   C6A11728  14.132   3.851   7.177 -0.1485 -0.1630 -0.2256
  775loPI   C1B11729  13.729   3.933   5.506 -0.0802  0.0425 -0.2191
  775loPI   C2B11730  13.728   3.840   5.893  0.1428  0.1715  0.2287
  775loPI   C3B11731  13.784   3.927   6.318 -0.0045  0.1240 -0.2228
  775loPI   C4B11732  14.069   3.837   6.613 -0.0599  0.1656  0.1924
  776loPI    C111733   1.130  18.434   4.789  0.0345 -0.1402 -0.0636
  776loPI    C211734   1.468  18.357   4.989  0.1688 -0.1160 -0.2778
  776loPI    C311735   1.245  18.055   4.851 -0.1571 -0.1449  0.2828
  776loPI   PO411736   0.998  18.632   4.969 -0.2083  0.0238 -0.0386
  776loPI   GL111737   1.191  18.629   5.413  0.1549  0.2158 -0.0314
  776loPI   GL211738   1.398  18.896   5.608  0.1117 -0.0240 -0.1835
  776loPI   C1A11739   1.093  18.444   5.812 -0.0533 -0.4757 -0.2495
  776loPI   C2A11740   1.099  18.063   6.045 -0.0589  0.1604 -0.1115
  776loPI   C3A11741   1.122  17.692   6.027 -0.2282  0.2371  0.3131
  776loPI   C4A11742   1.118  17.415   6.276 -0.2137 -0.1552  0.1491
  776loPI   C5A11743   1.313  17.156   6.496 -0.0908 -0.2519 -0.3086
  776loPI   C6A11744   1.356  17.052   6.959  0.0742 -0.3005  0.1635
  776loPI   C1B11745   1.268  19.027   6.039 -0.1136  0.1342 -0.2118
  776loPI   C2B11746   1.257  19.146   6.468 -0.0852 -0.0396 -0.1728
  776loPI   C3B11747   1.085  19.079   6.894  0.1237  0.1463 -0.4528
  776loPI   C4B11748   0.996  18.871   7.278 -0.1803  0.0274  0.2990
  777loPI    C111749   3.129   1.482   4.452 -0.0288  0.0304 -0.2984
  777loPI    C211750   3.292   1.838   4.368  0.2538 -0.0178  0.0254
  777loPI    C311751   3.314   1.540   4.102  0.1374  0.1635 -0.1903
  777loPI   PO411752   3.245   1.401   4.690 -0.0541  0.0258  0.1952
  777loPI   GL111753   3.332   1.310   5.092 -0.2292 -0.0852 -0.2192
  777loPI   GL211754   3.528   1.141   5.337 -0.5660  0.0981 -0.2731
  777loPI   C1A11755   3.165   1.372   5.496 -0.3400  0.2669  0.0888
  777loPI   C2A11756   3.299   1.462   5.975 -0.1008 -0.0321 -0.2555
  777loPI   C3A11757   3.299   1.435   6.376 -0.0177  0.0572  0.0981
  777loPI   C4A11758   3.488   1.329   6.785  0.1815  0.0697 -0.1578
  777loPI   C5A11759   3.477   1.649   7.096 -0.0071  0.0665  0.2405
  777loPI   C6A11760   3.747   1.848   7.395  0.1406  0.3577  0.0436
  777loPI   C1B11761   3.757   1.306   5.713  0.1501 -0.2888 -0.1762
  777loPI   C2B11762   3.798   1.298   6.190 -0.1777  0.1288  0.1812
  777loPI   C3B11763   3.924   0.956   6.488 -0.2907 -0.0755  0.1421
  777loPI   C4B11764   4.204   0.651   6.572  0.0335  0.0950 -0.0535
  778loPI    C111765  15.838   8.688   4.571 -0.4417 -0.3275 -0.0296
  778loPI    C211766  16.061   8.800   4.258 -0.1253 -0.1319  0.2593
  778loPI    C311767  15.871   8.448   4.253  0.0714 -0.2371 -0.0525
  778loPI   PO411768  15.853   8.948   4.721  0.2686  0.0657 -0.0239
  778loPI   GL111769  15.578   9.059   5.114  0.0564  0.3835 -0.2216
  778loPI   GL211770  15.401   8.776   5.224 -0.2939  0.0674  0.0357
  778loPI   C1A11771  15.503   9.210   5.424  0.0194 -0.2214  0.2284
  778loPI   C2A11772  15.346   9.102   5.892 -0.2441 -0.1407  0.0574
  778loPI   C3A11773  15.173   9.020   6.279  0.1834  0.1019  0.1118
  778loPI   C4A11774  15.121   9.019   6.742  0.0102  0.1677  0.2919
  778loPI   C5A11775  15.331   9.399   7.020 -0.2863  0.0203  0.1098
  778loPI   C6A11776  15.382   9.744   6.981 -0.2543 -0.0315 -0.0491
  778loPI   C1B11777  15.562   8.357   5.424  0.4639 -0.1672  0.3501
  778loPI   C2B11778  15.486   7.927   5.677 -0.1382  0.1778 -0.0164
  778loPI   C3B11779  15.668   7.824   5.964 -0.2055 -0.0962  0.1054
  778loPI   C4B11780  15.922   7.912   6.273 -0.1745  0.3191  0.1824
  779loPI    C111781   4.632  18.246   5.187 -0.1131  0.0808  0.0237
  779loPI    C211782   4.914  18.101   4.943 -0.2884 -0.2184 -0.0050
  779loPI    C311783   4.988  18.140   5.334 -0.0418  0.1661 -0.0848
  779loPI   PO411784   4.590  18.463   5.183 -0.1487  0.0372 -0.1324
  779loPI   GL111785   4.578  18.738   5.593 -0.1499 -0.0148 -0.0414
  779loPI   GL211786   4.547  18.324   5.684  0.0107 -0.1829 -0.0403
  779loPI   C1A11787   4.442  18.775   5.910 -0.0383 -0.0565 -0.0722
  779loPI   C2A11788   4.169  18.902   6.314  0.2427  0.1694 -0.2016
  779loPI   C3A11789   3.865  18.872   6.670 -0.1645  0.1300  0.0333
  779loPI   C4A11790   3.652  19.139   6.918 -0.1067 -0.1165  0.1569
  779loPI   C5A11791   3.437  19.151   7.425  0.0517  0.1149  0.2924
  779loPI   C6A11792   3.510  19.242   7.850  0.2997  0.0794  0.0913
  779loPI   C1B11793   4.474  18.317   5.987 -0.2996  0.0627  0.0719
  779loPI   C2B11794   4.459  18.476   6.419  0.0970  0.1175  0.2132
  779loPI   C3B11795   4.343  18.700   6.875  0.1753  0.3330  0.0784
  779loPI   C4B11796   4.126  18.629   7.254  0.0823  0.3654  0.2566
  780loPI    C111797   7.642   3.565   4.884 -0.0121  0.2448  0.3875
  780loPI    C211798   7.310   3.548   4.662  0.0260 -0.0382  0.3487
  780loPI    C311799   7.631   3.744   4.526  0.0046 -0.0963  0.2129
  780loPI   PO411800   7.580   3.670   5.106 -0.1866  0.1834  0.0279
  780loPI   GL111801   7.764   3.718   5.487 -0.0176  0.0019  0.0476
  780loPI   GL211802   8.035   3.922   5.546  0.3299  0.3865 -0.3041
  780loPI   C1A11803   7.546   3.811   5.759 -0.2562  0.1333  0.0765
  780loPI   C2A11804   7.889   3.777   6.033 -0.1148  0.0355 -0.1133
  780loPI   C3A11805   8.007   3.940   6.461  0.4763  0.2947  0.0358
  780loPI   C4A11806   7.998   3.848   6.888  0.1396 -0.2082  0.0593
  780loPI   C5A11807   8.211   3.964   7.212 -0.0035 -0.2458  0.3171
  780loPI   C6A11808   8.268   3.735   7.586 -0.2490 -0.0029 -0.2759
  780loPI   C1B11809   8.142   3.491   5.724 -0.3071  0.1352 -0.0185
  780loPI   C2B11810   8.176   3.392   6.157  0.1867 -0.0182 -0.2581
  780loPI   C3B11811   7.996   3.187   6.589 -0.1461 -0.2105 -0.0787
  780loPI   C4B11812   8.057   2.896   6.834  0.0186 -0.1904  0.0595
  781loPI    C111813  10.592   7.307   4.279 -0.0870 -0.1477 -0.1126
  781loPI    C211814  10.868   7.362   3.995  0.0392  0.0406  0.0442
  781loPI    C311815  10.649   7.671   4.124 -0.0381 -0.0497  0.1313
  781loPI   PO411816  10.649   7.156   4.480  0.3277 -0.5497 -0.2594
  781loPI   GL111817  10.665   7.200   4.882 -0.2815  0.0836 -0.0467
  781loPI   GL211818  10.889   7.033   5.221  0.2906  0.0496 -0.1509
  781loPI   C1A11819  10.533   7.360   5.298  0.1580  0.1592  0.0988
  781loPI   C2A11820  10.419   7.462   5.657 -0.1173 -0.1697 -0.2114
  781loPI   C3A11821  10.424   7.637   6.136  0.0921  0.3478 -0.0409
  781loPI   C4A11822  10.162   7.854   6.465 -0.0209  0.4025  0.0077
  781loPI   C5A11823  10.089   8.217   6.812 -0.0278 -0.0909  0.1500
  781loPI   C6A11824   9.790   8.428   7.100 -0.1364  0.1730 -0.2683
  781loPI   C1B11825  10.820   7.040   5.541 -0.1607 -0.1114 -0.0621
  781loPI   C2B11826  10.697   7.059   5.943  0.2260  0.1178 -0.2542
  781loPI   C3B11827  10.982   6.977   6.403  0.5159 -0.1747  0.0293
  781loPI   C4B11828  11.111   6.922   6.755  0.4692 -0.2466  0.1054
  782loPI    C111829   0.568   3.217   4.939 -0.0056 -0.2541 -0.0522
  782loPI    C211830   0.587   3.330   4.556 -0.0991 -0.1431 -0.0247
  782loPI    C311831   0.235   3.229   4.718 -0.0813 -0.0549  0.0700
  782loPI   PO411832   0.742   3.085   5.033 -0.0456 -0.0763 -0.3862
  782loPI   GL111833   0.999   3.170   5.357 -0.1530 -0.1286 -0.0649
  782loPI   GL211834   1.151   2.851   5.348 -0.0977 -0.0852 -0.0218
  782loPI   C1A11835   1.038   3.368   5.735 -0.1532 -0.2002  0.1480
  782loPI   C2A11836   0.930   3.389   6.146  0.2353  0.0561  0.1258
  782loPI   C3A11837   0.692   3.188   6.523 -0.0379 -0.0061  0.2524
  782loPI   C4A11838   0.779   2.840   6.802 -0.0902 -0.2689  0.1174
  782loPI   C5A11839   0.653   2.505   6.914 -0.0011  0.3249 -0.1624
  782loPI   C6A11840   0.473   2.281   7.225  0.0228  0.4230 -0.0172
  782loPI   C1B11841   1.092   2.810   5.774 -0.0494 -0.3456 -0.1289
  782loPI   C2B11842   1.133   2.803   6.221  0.2330  0.1380  0.1805
  782loPI   C3B11843   1.504   2.802   6.501 -0.3726 -0.2079 -0.0688
  782loPI   C4B11844   1.623   2.860   6.913 -0.1468  0.1332  0.1561
  783loPI    C111845  17.044   4.376   4.605  0.0357  0.0938 -0.2252
  783loPI    C211846  17.164   3.999   4.543  0.0320  0.0426  0.0645
  783loPI    C311847  17.042   4.223   4.235  0.1200 -0.1625 -0.1225
  783loPI   PO411848  17.212   4.452   4.752 -0.3375 -0.3017 -0.0249
  783loPI   GL111849  17.387   4.348   5.162  0.1303  0.1500  0.1009
  783loPI   GL211850  17.391   4.667   5.168 -0.1490  0.0451  0.4430
  783loPI   C1A11851  17.120   4.160   5.506  0.0416 -0.3151 -0.1862
  783loPI   C2A11852  17.152   3.919   5.891 -0.0935 -0.1964 -0.0825
  783loPI   C3A11853  16.941   3.844   6.231  0.1508 -0.2292  0.4538
  783loPI   C4A11854  16.732   3.882   6.597 -0.0598 -0.3180  0.1240
  783loPI   C5A11855  16.402   4.134   6.841 -0.1348  0.1478 -0.1074
  783loPI   C6A11856  16.124   4.423   6.841  0.1427 -0.0101 -0.1875
  783loPI   C1B11857  17.165   4.693   5.525 -0.1542  0.1612  0.0081
  783loPI   C2B11858  17.092   4.752   5.941 -0.2294  0.1469 -0.0144
  783loPI   C3B11859  16.954   4.844   6.254 -0.4323 -0.1442 -0.0373
  783loPI   C4B11860  16.776   4.926   6.603 -0.0447 -0.0350  0.1825
  784loPI    C111861  10.552  18.915   4.908 -0.1178 -0.2575  0.0606
  784loPI    C211862  10.713  19.275   4.972 -0.1703 -0.2164 -0.0362
  784loPI    C311863  10.473  19.217   4.657  0.0734 -0.4111 -0.1898
  784loPI   PO411864  10.475  18.749   5.174  0.0524  0.2887  0.0778
  784loPI   GL111865  10.274  18.866   5.497 -0.2044 -0.1696 -0.1637
  784loPI   GL211866  10.479  19.157   5.475 -0.0828 -0.0285  0.4170
  784loPI   C1A11867  10.359  18.867   5.978  0.0235 -0.0725  0.0492
  784loPI   C2A11868  10.268  18.666   6.456  0.1536 -0.4305 -0.0324
  784loPI   C3A11869  10.234  18.674   6.950  0.1462 -0.0319  0.2800
  784loPI   C4A11870  10.208  18.497   7.328  0.5111 -0.0265 -0.0538
  784loPI   C5A11871  10.071  18.420   7.757  0.1073  0.0793  0.2160
  784loPI   C6A11872  10.120  18.413   8.158 -0.0166  0.0504 -0.0242
  784loPI   C1B11873  10.487  19.357   5.841  0.0650 -0.0405 -0.0436
  784loPI   C2B11874  10.279  19.245   6.241  0.2795 -0.3608 -0.1079
  784loPI   C3B11875  10.315  19.116   6.672  0.3363 -0.1869  0.1896
  784loPI   C4B11876  10.431  19.195   7.167  0.3782  0.1727  0.4472
  785loPI    C111877  11.215  11.571   4.688  0.0044  0.0190 -0.2791
  785loPI    C211878  11.463  11.327   4.490 -0.0960 -0.1867 -0.1545
  785loPI    C311879  11.073  11.333   4.400 -0.0763  0.0092 -0.2315
  785loPI   PO411880  11.392  11.618   4.878  0.3096 -0.0976 -0.1178
  785loPI   GL111881  11.791  11.749   5.006  0.3358  0.1539  0.0095
  785loPI   GL211882  12.014  11.495   5.169  0.0115 -0.1136  0.0913
  785loPI   C1A11883  11.723  11.771   5.513  0.1094  0.2998 -0.0042
  785loPI   C2A11884  11.790  11.677   6.051 -0.0828  0.1046 -0.0238
  785loPI   C3A11885  11.555  11.567   6.374 -0.1274 -0.0836  0.0107
  785loPI   C4A11886  11.514  11.825   6.821  0.1153  0.0518  0.1364
  785loPI   C5A11887  11.350  11.814   7.304  0.1678 -0.4790  0.1408
  785loPI   C6A11888  10.943  11.849   7.568  0.0422 -0.1630 -0.1708
  785loPI   C1B11889  12.038  11.141   5.393  0.0422  0.1251  0.2471
  785loPI   C2B11890  12.178  10.902   5.653  0.2446  0.2341  0.0917
  785loPI   C3B11891  12.148  10.822   6.072 -0.1968  0.0643  0.2424
  785loPI   C4B11892  11.963  10.796   6.517  0.2703 -0.2437  0.3217
  786loPI    C111893  12.096  14.134   4.674  0.1802 -0.2009 -0.0481
  786loPI    C211894  11.975  14.275   4.320 -0.0816 -0.4158 -0.0477
  786loPI    C311895  12.361  14.297   4.423 -0.0269 -0.2229 -0.2846
  786loPI   PO411896  12.132  14.376   4.931  0.1133  0.1816  0.0361
  786loPI   GL111897  12.211  14.426   5.222 -0.0089  0.0911 -0.1988
  786loPI   GL211898  12.449  14.465   5.430  0.0999  0.0639  0.3298
  786loPI   C1A11899  11.998  14.332   5.542 -0.0062  0.0628 -0.1131
  786loPI   C2A11900  11.858  14.373   6.029  0.2283  0.4812 -0.0903
  786loPI   C3A11901  12.027  14.206   6.277 -0.0244  0.1398 -0.3418
  786loPI   C4A11902  12.332  13.862   6.386 -0.1999  0.0236 -0.3390
  786loPI   C5A11903  12.392  13.652   6.834 -0.0671  0.0345 -0.0620
  786loPI   C6A11904  12.516  13.525   7.275 -0.0649  0.0396 -0.2413
  786loPI   C1B11905  12.486  14.897   5.782  0.1245 -0.0861 -0.0228
  786loPI   C2B11906  12.767  15.212   6.013 -0.0706  0.1102  0.1784
  786loPI   C3B11907  12.862  15.211   6.480 -0.2295 -0.4199 -0.0507
  786loPI   C4B11908  12.530  15.114   6.718  0.3107  0.2344  0.2330
  787loPI    C111909   5.440  14.809   5.134  0.0738 -0.0096 -0.0353
  787loPI    C211910   5.686  15.090   4.990  0.0170  0.0511 -0.0139
  787loPI    C311911   5.559  14.795   4.752  0.2035 -0.0467  0.0058
  787loPI   PO411912   5.285  14.989   5.289 -0.0238  0.2138  0.1086
  787loPI   GL111913   5.063  15.009   5.600 -0.1178  0.1777  0.1817
  787loPI   GL211914   4.762  15.146   5.664  0.0241  0.1328  0.2437
  787loPI   C1A11915   5.060  14.869   6.003 -0.0179  0.1343  0.1142
  787loPI   C2A11916   5.084  14.858   6.475 -0.1131  0.0766 -0.1417
  787loPI   C3A11917   4.993  15.101   6.831 -0.1218  0.0466  0.0551
  787loPI   C4A11918   4.952  15.410   7.187  0.0493  0.2029 -0.0071
  787loPI   C5A11919   4.897  15.663   7.483 -0.2545 -0.2206  0.0754
  787loPI   C6A11920   4.887  15.841   7.932 -0.1877  0.0628 -0.0114
  787loPI   C1B11921   4.728  15.425   5.940 -0.3429  0.1049 -0.1582
  787loPI   C2B11922   4.828  15.633   6.345 -0.0352  0.0974  0.0628
  787loPI   C3B11923   5.099  15.594   6.667 -0.2596 -0.1375 -0.0981
  787loPI   C4B11924   5.395  15.665   6.899 -0.2313 -0.0634 -0.0352
  788loPI    C111925   4.717  11.639   4.521 -0.0515  0.0205 -0.1813
  788loPI    C211926   4.949  11.952   4.429 -0.0897  0.0176 -0.2890
  788loPI    C311927   4.703  11.798   4.154 -0.1853 -0.0086 -0.1894
  788loPI   PO411928   4.608  11.755   4.768 -0.0090 -0.1041  0.1914
  788loPI   GL111929   4.499  11.843   5.201 -0.0932  0.3490 -0.0912
  788loPI   GL211930   4.744  11.539   5.203 -0.1349  0.0221 -0.0555
  788loPI   C1A11931   4.505  11.910   5.583  0.1014 -0.0840 -0.4144
  788loPI   C2A11932   4.423  12.107   5.945 -0.1282 -0.0354 -0.1841
  788loPI   C3A11933   4.437  12.394   6.353  0.0044  0.2788 -0.0097
  788loPI   C4A11934   4.556  12.594   6.746  0.3565 -0.1437 -0.0933
  788loPI   C5A11935   4.656  12.892   7.009  0.0541  0.3829  0.0503
  788loPI   C6A11936   4.637  13.106   7.483 -0.2377  0.2520  0.1054
  788loPI   C1B11937   4.876  11.607   5.682 -0.2352  0.0105 -0.3015
  788loPI   C2B11938   4.900  11.810   6.029 -0.1824 -0.0965  0.0203
  788loPI   C3B11939   4.712  12.011   6.335 -0.0789  0.0260 -0.0694
  788loPI   C4B11940   4.736  12.145   6.730 -0.0204 -0.0757  0.2541
  789loPI    C111941   5.712   0.783   4.894  0.0085 -0.0758  0.2633
  789loPI    C211942   5.378   0.564   4.910 -0.1597  0.1627  0.1012
  789loPI    C311943   5.615   0.543   4.589  0.0150 -0.0502  0.2410
  789loPI   PO411944   5.615   1.005   4.962  0.1700 -0.2120 -0.1731
  789loPI   GL111945   5.769   1.150   5.404  0.4420 -0.0492 -0.1534
  789loPI   GL211946   5.479   1.176   5.669  0.1892  0.1702 -0.0059
  789loPI   C1A11947   5.917   0.957   5.837 -0.0556  0.0224  0.0739
  789loPI   C2A11948   5.838   0.837   6.279  0.4369  0.2569  0.0329
  789loPI   C3A11949   5.667   0.968   6.644  0.0185  0.2627 -0.2789
  789loPI   C4A11950   5.557   0.808   7.074  0.1664 -0.2387  0.0312
  789loPI   C5A11951   5.642   0.778   7.531 -0.0381 -0.3038  0.1027
  789loPI   C6A11952   6.031   0.647   7.722 -0.3758 -0.1162  0.0105
  789loPI   C1B11953   5.651   1.264   6.141 -0.0633 -0.0642 -0.0785
  789loPI   C2B11954   6.115   1.202   6.490  0.0716 -0.1374 -0.1842
  789loPI   C3B11955   6.116   1.128   6.927 -0.3678  0.1492 -0.0128
  789loPI   C4B11956   6.036   0.840   7.285  0.1011 -0.1192  0.0535
  790loPI    C111957   8.526  15.221   5.064 -0.4041 -0.0195  0.2282
  790loPI    C211958   8.607  15.600   4.966 -0.4204 -0.0264  0.1878
  790loPI    C311959   8.585  15.320   4.681 -0.4094 -0.0575  0.2175
  790loPI   PO411960   8.345  15.238   5.253  0.2921  0.0693 -0.1857
  790loPI   GL111961   8.393  15.115   5.695  0.0009  0.0931 -0.0386
  790loPI   GL211962   8.083  15.151   5.756 -0.1586  0.0497  0.1636
  790loPI   C1A11963   8.609  15.026   6.156  0.2830  0.1034  0.0053
  790loPI   C2A11964   8.668  15.098   6.571  0.0800 -0.0975 -0.0646
  790loPI   C3A11965   8.717  15.221   6.979 -0.0433 -0.0746  0.0903
  790loPI   C4A11966   8.461  15.438   7.281 -0.0329 -0.0120  0.3397
  790loPI   C5A11967   8.052  15.316   7.462  0.0003 -0.1859 -0.3403
  790loPI   C6A11968   7.645  15.185   7.323 -0.1519 -0.2763 -0.0627
  790loPI   C1B11969   8.172  14.881   6.103  0.2115 -0.4220 -0.1452
  790loPI   C2B11970   8.190  15.050   6.639  0.0642  0.1501  0.1043
  790loPI   C3B11971   8.291  15.019   7.087 -0.0407  0.0177  0.1299
  790loPI   C4B11972   8.152  14.697   7.403  0.0041 -0.0481 -0.0675
  791loPI    C111973   6.631  17.071   5.004  0.0617  0.0658  0.1004
  791loPI    C211974   6.458  17.377   5.195 -0.1589 -0.0827  0.1434
  791loPI    C311975   6.590  17.424   4.820 -0.1330  0.0818  0.1721
  791loPI   PO411976   6.544  16.868   5.158 -0.1914  0.1532  0.1095
  791loPI   GL111977   6.280  17.017   5.453  0.3435  0.1987  0.0466
  791loPI   GL211978   6.085  16.964   5.700 -0.0633 -0.1444  0.1068
  791loPI   C1A11979   6.473  17.276   5.683 -0.0966  0.2142  0.2105
  791loPI   C2A11980   6.358  17.511   6.083 -0.2972  0.0783  0.1279
  791loPI   C3A11981   6.638  17.509   6.382 -0.2402 -0.0003  0.2093
  791loPI   C4A11982   6.505  17.813   6.787  0.1174  0.0973 -0.0153
  791loPI   C5A11983   6.549  18.258   6.978  0.2087 -0.2729  0.1199
  791loPI   C6A11984   6.306  18.542   7.247  0.1970 -0.1155  0.1523
  791loPI   C1B11985   5.959  17.192   6.057 -0.1759  0.2023 -0.0369
  791loPI   C2B11986   5.763  17.173   6.484 -0.0687 -0.2044 -0.1697
  791loPI   C3B11987   5.678  17.157   6.899 -0.1114 -0.1409  0.0310
  791loPI   C4B11988   5.349  17.102   7.177 -0.1247 -0.1415  0.1932
  792loPI    C111989  14.891   8.664   4.403  0.0899 -0.0448  0.2424
  792loPI    C211990  14.945   8.344   4.637  0.0680 -0.1669  0.0827
  792loPI    C311991  15.064   8.335   4.255 -0.0718 -0.0390  0.0351
  792loPI   PO411992  14.749   8.791   4.668 -0.1724  0.0986 -0.1314
  792loPI   GL111993  14.830   8.999   5.090  0.0943 -0.1222  0.3681
  792loPI   GL211994  14.919   8.665   5.150 -0.2813  0.1552  0.0079
  792loPI   C1A11995  15.008   8.987   5.496 -0.0282 -0.0862  0.0806
  792loPI   C2A11996  14.773   9.111   5.869 -0.1712  0.1024  0.0104
  792loPI   C3A11997  14.758   9.271   6.382 -0.2621 -0.0754  0.5132
  792loPI   C4A11998  14.607   9.251   6.798 -0.1589  0.2651 -0.2796
  792loPI   C5A11999  14.888   9.307   7.125 -0.0439  0.1839 -0.0407
  792loPI   C6A12000  14.953   9.580   7.457 -0.0937  0.1454 -0.3224
  792loPI   C1B12001  15.057   8.430   5.543 -0.0167 -0.2555 -0.1017
  792loPI   C2B12002  15.028   8.663   5.956 -0.2111 -0.2346 -0.1128
  792loPI   C3B12003  14.832   8.689   6.422  0.0158  0.0112  0.1967
  792loPI   C4B12004  14.890   8.610   6.783 -0.1282  0.1916 -0.0786
  793loPI    C112005  16.341   4.232   4.835 -0.0219 -0.0790 -0.1339
  793loPI    C212006  16.098   4.443   4.598 -0.0067 -0.1002 -0.1685
  793loPI    C312007  16.492   4.443   4.531  0.0127  0.0049 -0.0589
  793loPI   PO412008  16.145   4.264   5.061  0.2907 -0.0456  0.0253
  793loPI   GL112009  15.957   4.289   5.519  0.1676 -0.4367  0.1569
  793loPI   GL212010  15.766   4.436   5.420 -0.3439  0.4269  0.0781
  793loPI   C1A12011  15.893   4.224   5.947  0.0019 -0.1443 -0.1596
  793loPI   C2A12012  15.628   4.050   6.179 -0.2025 -0.0320  0.0714
  793loPI   C3A12013  15.520   4.177   6.550  0.1041 -0.0394 -0.0981
  793loPI   C4A12014  15.644   4.395   6.898 -0.3307  0.0608  0.2723
  793loPI   C5A12015  15.706   4.194   7.292 -0.5852  0.2924  0.1085
  793loPI   C6A12016  15.679   4.057   7.810  0.1263  0.1178  0.4747
  793loPI   C1B12017  15.449   4.171   5.700 -0.2101 -0.1365  0.0802
  793loPI   C2B12018  15.235   4.030   5.921 -0.1715  0.1314  0.2956
  793loPI   C3B12019  14.920   4.215   6.300 -0.2674  0.0390 -0.1829
  793loPI   C4B12020  14.462   4.162   6.245 -0.2040  0.0622 -0.2398
  794loPI    C112021   7.187   2.058   4.848  0.0437  0.2348 -0.1114
  794loPI    C212022   7.457   1.770   4.787  0.2165  0.3620  0.0397
  794loPI    C312023   7.317   1.981   4.478  0.2329  0.2449 -0.0484
  794loPI   PO412024   7.272   2.181   5.044 -0.1223  0.0335  0.0663
  794loPI   GL112025   7.240   2.139   5.566  0.2720  0.2873  0.0336
  794loPI   GL212026   6.951   2.002   5.617 -0.0574  0.1377  0.0711
  794loPI   C1A12027   7.108   2.421   5.847 -0.0061  0.2512 -0.5734
  794loPI   C2A12028   7.045   2.445   6.268 -0.0699  0.0374 -0.3174
  794loPI   C3A12029   7.231   2.554   6.673 -0.1618 -0.1633  0.1362
  794loPI   C4A12030   7.308   2.594   7.204 -0.1287 -0.0601  0.1964
  794loPI   C5A12031   7.776   2.644   7.463  0.1098  0.1437  0.0631
  794loPI   C6A12032   8.135   2.909   7.322 -0.0814 -0.1030  0.0957
  794loPI   C1B12033   6.966   2.003   6.044 -0.2932  0.0814 -0.4389
  794loPI   C2B12034   7.110   2.002   6.614  0.0805  0.1301  0.3598
  794loPI   C3B12035   7.342   2.148   6.933  0.5902 -0.1821  0.1583
  794loPI   C4B12036   7.620   2.189   7.254  0.3715 -0.1670  0.1863
  795loPI    C112037  18.822   0.234   4.789  0.5228 -0.1203  0.0468
  795loPI    C212038  18.553   0.198   4.495  0.0302  0.1784  0.4430
  795loPI    C312039  18.934   0.092   4.433 -0.1283 -0.0606 -0.1951
  795loPI   PO412040  18.703   0.154   5.060  0.0652  0.3015 -0.0885
  795loPI   GL112041  18.564  -0.025   5.419  0.0236  0.0959  0.0216
  795loPI   GL212042  18.509  -0.305   5.511 -0.3848 -0.1493  0.1057
  795loPI   C1A12043  18.743   0.368   5.659  0.0004  0.0808 -0.1810
  795loPI   C2A12044  19.005   0.690   5.715 -0.3061 -0.0026 -0.0768
  795loPI   C3A12045  18.997   1.000   6.039 -0.1458 -0.0437  0.2199
  795loPI   C4A12046  19.128   0.842   6.484  0.0435 -0.3583 -0.2688
  795loPI   C5A12047  19.103   0.810   7.019 -0.1618 -0.1300  0.2529
  795loPI   C6A12048  19.015   0.460   7.155 -0.1587  0.0269  0.0824
  795loPI   C1B12049  18.828  -0.116   5.854  0.0179 -0.0148  0.1338
  795loPI   C2B12050  18.964  -0.315   6.165  0.0706  0.2213 -0.1124
  795loPI   C3B12051  19.319  -0.037   6.506 -0.0359 -0.0781  0.2467
  795loPI   C4B12052  19.381   0.159   6.908  0.0775 -0.1316  0.0861
  796loPI    C112053  10.353   6.089   4.798 -0.3561 -0.1856  0.1549
  796loPI    C212054  10.255   6.476   4.768 -0.2516 -0.1475  0.2947
  796loPI    C312055  10.092   6.208   4.519  0.0076  0.0470 -0.0955
  796loPI   PO412056  10.425   6.116   5.058 -0.3230 -0.1885 -0.1044
  796loPI   GL112057  10.137   6.168   5.327  0.0920  0.0608 -0.0023
  796loPI   GL212058  10.391   5.862   5.502 -0.2058  0.3162  0.3657
  796loPI   C1A12059  10.222   6.390   5.638  0.2262 -0.1700 -0.0247
  796loPI   C2A12060  10.084   6.586   6.019  0.3921  0.1588  0.1853
  796loPI   C3A12061  10.012   6.849   6.410 -0.0280  0.0446 -0.1580
  796loPI   C4A12062  10.105   7.026   6.816 -0.4325 -0.0573 -0.5212
  796loPI   C5A12063   9.975   7.412   6.939  0.0164  0.0994  0.0147
  796loPI   C6A12064  10.167   7.730   6.999 -0.0595 -0.1148 -0.0028
  796loPI   C1B12065  10.560   6.003   5.844  0.2130 -0.0571  0.1710
  796loPI   C2B12066  10.507   6.109   6.276  0.0153 -0.4866  0.1164
  796loPI   C3B12067  10.636   6.266   6.715 -0.1188  0.0837  0.0542
  796loPI   C4B12068  10.671   6.477   7.175 -0.0382 -0.1420  0.0781
  797loPI    C112069  18.064   7.460   4.757  0.4201 -0.1329 -0.1990
  797loPI    C212070  17.942   7.247   4.441  0.0882  0.1830 -0.2915
  797loPI    C312071  17.679   7.466   4.648  0.3380  0.1340  0.0880
  797loPI   PO412072  18.130   7.277   4.961  0.1078 -0.2793 -0.1402
  797loPI   GL112073  18.043   7.050   5.329  0.0964  0.3020  0.0924
  797loPI   GL212074  17.991   6.703   5.407 -0.0740  0.0223 -0.0686
  797loPI   C1A12075  17.904   7.470   5.574  0.0427  0.1333  0.4209
  797loPI   C2A12076  17.635   7.794   5.801  0.2280 -0.0463 -0.1894
  797loPI   C3A12077  17.465   8.034   6.217 -0.3489 -0.0547 -0.0750
  797loPI   C4A12078  17.390   8.026   6.647 -0.2046  0.0128  0.3668
  797loPI   C5A12079  17.501   8.298   6.914 -0.1293 -0.0789 -0.0639
  797loPI   C6A12080  17.890   8.479   7.092 -0.0305 -0.0641 -0.2321
  797loPI   C1B12081  17.948   6.947   5.804 -0.0120  0.0957 -0.0291
  797loPI   C2B12082  17.961   6.925   6.256 -0.0256 -0.1271  0.1808
  797loPI   C3B12083  18.238   7.323   6.509  0.0172  0.1167  0.2833
  797loPI   C4B12084  18.122   7.583   6.949  0.0933 -0.0619 -0.2536
  798loPI    C112085  11.510  16.189   4.667  0.1139 -0.0457 -0.0458
  798loPI    C212086  11.858  16.374   4.600  0.2697 -0.2496  0.1839
  798loPI    C312087  11.843  15.974   4.615 -0.0158 -0.2504 -0.0443
  798loPI   PO412088  11.414  16.379   4.888 -0.2491 -0.0167 -0.1332
  798loPI   GL112089  11.407  16.277   5.251 -0.0545 -0.2502  0.1474
  798loPI   GL212090  11.390  16.701   5.262 -0.4920  0.1449 -0.2116
  798loPI   C1A12091  11.338  16.116   5.634 -0.2333  0.0605 -0.1141
  798loPI   C2A12092  11.191  16.025   5.989  0.0871 -0.1202 -0.1065
  798loPI   C3A12093  10.966  16.166   6.391 -0.0468 -0.0337  0.2208
  798loPI   C4A12094  10.864  16.409   6.666 -0.0651  0.0315 -0.0042
  798loPI   C5A12095  10.782  16.353   7.134  0.4605  0.1995  0.0046
  798loPI   C6A12096  10.568  16.186   7.539 -0.0100  0.1524  0.1958
  798loPI   C1B12097  11.460  16.939   5.555 -0.1538 -0.1151 -0.0626
  798loPI   C2B12098  11.439  16.999   5.966  0.0894 -0.0307  0.0001
  798loPI   C3B12099  11.399  16.950   6.357 -0.0770  0.1888 -0.2188
  798loPI   C4B12100  11.147  17.062   6.685 -0.0257  0.1930 -0.0449
  799loPI    C112101  14.877  15.393   4.761 -0.0840 -0.1476 -0.0672
  799loPI    C212102  15.155  15.616   4.943 -0.0069 -0.2644 -0.0412
  799loPI    C312103  15.238  15.436   4.595 -0.1327 -0.0947 -0.1609
  799loPI   PO412104  14.688  15.328   5.000  0.1362  0.1102  0.0161
  799loPI   GL112105  14.738  15.126   5.416  0.0624  0.1826 -0.0467
  799loPI   GL212106  14.456  14.820   5.532 -0.1579  0.1101 -0.2881
  799loPI   C1A12107  14.590  15.158   5.958  0.1137 -0.0074 -0.1875
  799loPI   C2A12108  14.211  15.122   6.324 -0.1845  0.0195 -0.2627
  799loPI   C3A12109  14.121  15.109   6.775  0.1338  0.0381 -0.1084
  799loPI   C4A12110  13.961  14.933   7.128  0.1062  0.1692 -0.0402
  799loPI   C5A12111  13.604  14.586   7.216 -0.0609 -0.2616  0.0352
  799loPI   C6A12112  13.468  14.156   7.333  0.0232  0.4312 -0.1445
  799loPI   C1B12113  14.237  14.815   5.877  0.1864  0.1124  0.1823
  799loPI   C2B12114  14.248  14.644   6.318 -0.0019  0.0177 -0.2107
  799loPI   C3B12115  14.400  14.594   6.660  0.1069 -0.2920  0.2985
  799loPI   C4B12116  14.257  14.578   7.029  0.2959 -0.3554  0.1197
  800loPI    C112117   7.854  15.039   5.276  0.0959  0.2321  0.1061
  800loPI    C212118   7.624  15.340   5.406 -0.1867  0.0818 -0.0392
  800loPI    C312119   7.727  15.319   5.020 -0.0547  0.0649 -0.0036
  800loPI   PO412120   7.687  14.778   5.326  0.2491  0.1812  0.4765
  800loPI   GL112121   7.534  14.536   5.734  0.1750 -0.0642  0.3056
  800loPI   GL212122   7.799  14.709   5.818  0.3547 -0.1855  0.1510
  800loPI   C1A12123   7.242  14.608   6.091  0.1275 -0.2089 -0.2772
  800loPI   C2A12124   7.320  14.779   6.548  0.0288 -0.1323  0.0026
  800loPI   C3A12125   7.210  14.726   6.984  0.2276 -0.1134 -0.1130
  800loPI   C4A12126   7.209  14.811   7.384 -0.1760 -0.0484  0.3363
  800loPI   C5A12127   7.296  14.584   7.803  0.4074 -0.3340 -0.0571
  800loPI   C6A12128   7.384  14.164   7.964 -0.1086 -0.1475  0.2937
  800loPI   C1B12129   7.701  14.507   6.248 -0.1072  0.1511 -0.4497
  800loPI   C2B12130   7.719  14.492   6.678  0.0242  0.1595 -0.0317
  800loPI   C3B12131   7.611  14.247   7.050 -0.3051  0.0751  0.0946
  800loPI   C4B12132   7.615  14.471   7.411  0.2333  0.2079 -0.1377
  801loPI    C112133   5.356   3.777   4.570 -0.0316 -0.0710  0.0368
  801loPI    C212134   5.627   4.023   4.730 -0.1197  0.0923 -0.0626
  801loPI    C312135   5.381   4.155   4.444 -0.2918 -0.0602  0.0128
  801loPI   PO412136   5.267   3.645   4.850  0.1616 -0.0554 -0.1063
  801loPI   GL112137   5.072   3.598   5.285 -0.1956  0.2293 -0.1044
  801loPI   GL212138   5.317   3.424   5.332  0.3541 -0.1299  0.1477
  801loPI   C1A12139   4.846   3.455   5.621 -0.0953 -0.1923  0.0851
  801loPI   C2A12140   4.751   3.498   6.089 -0.0914 -0.1169  0.1606
  801loPI   C3A12141   4.836   3.405   6.582  0.1571 -0.1161  0.1363
  801loPI   C4A12142   4.939   3.305   7.079 -0.1574 -0.0810 -0.1385
  801loPI   C5A12143   5.162   3.390   7.435 -0.1162  0.1821  0.0509
  801loPI   C6A12144   5.434   3.732   7.681  0.6272  0.1317 -0.1667
  801loPI   C1B12145   5.579   3.246   5.683 -0.1247 -0.4505 -0.1796
  801loPI   C2B12146   5.898   3.099   6.010 -0.2171 -0.2119  0.2661
  801loPI   C3B12147   6.097   3.111   6.411 -0.4382 -0.0912  0.0399
  801loPI   C4B12148   6.176   3.561   6.662  0.2201 -0.1166  0.0709
  802loPI    C112149   4.471  18.889   4.758  0.2347  0.0079  0.1938
  802loPI    C212150   4.180  18.623   4.827  0.1281  0.0598 -0.0446
  802loPI    C312151   4.355  18.639   4.468  0.1695  0.2764 -0.0165
  802loPI   PO412152   4.330  19.090   4.789  0.3213 -0.1424  0.2055
  802loPI   GL112153   4.244  19.340   5.107  0.2055 -0.0779  0.2236
  802loPI   GL212154   4.163  19.576   4.977  0.3088 -0.1119  0.1839
  802loPI   C1A12155   4.440  19.742   5.369 -0.2189  0.0031  0.6887
  802loPI   C2A12156   4.468  19.939   5.774 -0.0741 -0.2384 -0.0300
  802loPI   C3A12157   4.548  19.788   6.216 -0.2297  0.0486 -0.1320
  802loPI   C4A12158   4.730  19.918   6.527 -0.2756  0.0204 -0.1172
  802loPI   C5A12159   4.788  19.943   6.939  0.0331  0.2914  0.1525
  802loPI   C6A12160   5.019  19.640   7.243 -0.0880 -0.0648  0.0093
  802loPI   C1B12161   3.955  19.561   5.475  0.0483 -0.0210  0.0934
  802loPI   C2B12162   4.132  19.588   5.724 -0.1330  0.1897 -0.0314
  802loPI   C3B12163   4.408  19.334   5.946 -0.1592  0.1793  0.0124
  802loPI   C4B12164   4.789  19.184   6.110 -0.5323  0.1011 -0.0076
  803loPI    C112165   4.032   3.767   4.767  0.4532 -0.1033 -0.0575
  803loPI    C212166   4.016   3.999   4.441  0.0362 -0.0792 -0.0252
  803loPI    C312167   3.978   3.602   4.407  0.1947 -0.0950 -0.0246
  803loPI   PO412168   3.978   4.059   4.974 -0.1212 -0.1409  0.4099
  803loPI   GL112169   3.879   3.967   5.419 -0.1592 -0.0185 -0.0529
  803loPI   GL212170   3.783   4.214   5.547  0.1547  0.2512  0.0347
  803loPI   C1A12171   3.917   3.752   5.814  0.0806 -0.0418 -0.0940
  803loPI   C2A12172   3.787   3.699   6.198  0.1967  0.1857 -0.4193
  803loPI   C3A12173   3.575   3.619   6.494  0.0826  0.1203  0.0007
  803loPI   C4A12174   3.629   3.795   7.014 -0.1605 -0.2162 -0.0019
  803loPI   C5A12175   3.907   3.693   7.282  0.0788 -0.1057  0.0453
  803loPI   C6A12176   4.091   3.346   7.617  0.1738  0.1433 -0.1090
  803loPI   C1B12177   3.866   4.333   5.930 -0.0630  0.0562  0.0631
  803loPI   C2B12178   3.903   4.151   6.332 -0.1912 -0.1179  0.2266
  803loPI   C3B12179   4.091   3.970   6.624 -0.1600 -0.1705 -0.2205
  803loPI   C4B12180   4.242   4.161   7.062 -0.4059  0.2955  0.2214
  804loPI    C112181   0.097  16.282   4.810  0.1590 -0.1162  0.0096
  804loPI    C212182  -0.277  16.421   4.838  0.1861 -0.0374 -0.0146
  804loPI    C312183  -0.194  16.115   4.593  0.1420 -0.0397 -0.0269
  804loPI   PO412184   0.218  16.325   5.101 -0.3041 -0.0807  0.0432
  804loPI   GL112185   0.210  16.195   5.466  0.1939  0.3182  0.2616
  804loPI   GL212186   0.364  16.361   5.733  0.2167  0.1029 -0.0654
  804loPI   C1A12187  -0.022  16.013   5.858  0.0216  0.2075  0.0924
  804loPI   C2A12188  -0.045  15.976   6.333  0.0286  0.1554  0.2779
  804loPI   C3A12189  -0.014  15.857   6.824 -0.0651  0.3602 -0.2221
  804loPI   C4A12190   0.138  15.793   7.199  0.2405  0.2159 -0.0141
  804loPI   C5A12191   0.566  15.742   7.337 -0.3554  0.0285  0.2363
  804loPI   C6A12192   0.845  15.769   7.635 -0.2300 -0.0709 -0.0246
  804loPI   C1B12193   0.516  16.202   6.082 -0.3355  0.0153  0.1024
  804loPI   C2B12194   0.477  16.312   6.468  0.0389  0.0020 -0.2246
  804loPI   C3B12195   0.655  16.429   6.838  0.1488 -0.0053  0.3320
  804loPI   C4B12196   0.965  16.654   7.185 -0.3070  0.1337  0.2995
  805loPI    C112197   1.523   9.232   5.022  0.1131  0.0099  0.1052
  805loPI    C212198   1.268   9.253   4.715  0.0237 -0.0193  0.1771
  805loPI    C312199   1.654   9.172   4.649  0.0156  0.0299  0.0675
  805loPI   PO412200   1.419   9.100   5.162  0.0537 -0.1897  0.0448
  805loPI   GL112201   1.401   9.000   5.622 -0.0739  0.0848 -0.3888
  805loPI   GL212202   1.394   9.311   5.667 -0.1079 -0.2436 -0.1760
  805loPI   C1A12203   1.347   8.711   5.911 -0.3401  0.1835 -0.0934
  805loPI   C2A12204   1.226   8.703   6.259 -0.0816  0.2336 -0.1289
  805loPI   C3A12205   0.789   8.792   6.456 -0.0576 -0.0205 -0.3815
  805loPI   C4A12206   0.604   8.568   6.780  0.2819  0.1282  0.2380
  805loPI   C5A12207   0.575   8.160   7.074 -0.0952 -0.2623 -0.3121
  805loPI   C6A12208   0.647   8.028   7.456  0.4386 -0.3323 -0.1378
  805loPI   C1B12209   1.361   9.280   6.075  0.0964  0.3939 -0.1380
  805loPI   C2B12210   1.096   9.251   6.387  0.2165  0.1934 -0.0209
  805loPI   C3B12211   0.926   9.242   6.747  0.0562  0.0813 -0.0982
  805loPI   C4B12212   0.906   9.346   7.144  0.1868 -0.3949 -0.3025
  806loPI    C112213   5.066  15.481   5.353 -0.2509 -0.3088  0.1297
  806loPI    C212214   4.711  15.631   5.462 -0.1660  0.0261 -0.0442
  806loPI    C312215   4.792  15.568   5.075 -0.0431 -0.0696 -0.0036
  806loPI   PO412216   5.235  15.562   5.538  0.3076  0.1438  0.0393
  806loPI   GL112217   5.217  15.404   5.983  0.0453  0.2406  0.0634
  806loPI   GL212218   5.062  15.770   5.940 -0.4533  0.2515 -0.3518
  806loPI   C1A12219   5.382  15.183   6.308 -0.2673 -0.0066 -0.1378
  806loPI   C2A12220   5.540  15.140   6.710  0.0139 -0.0289 -0.2200
  806loPI   C3A12221   5.402  15.127   7.161 -0.2627 -0.4079  0.2737
  806loPI   C4A12222   5.741  15.137   7.492 -0.2768 -0.0060 -0.0607
  806loPI   C5A12223   6.164  15.104   7.712 -0.2208  0.1280 -0.2451
  806loPI   C6A12224   6.404  15.022   8.096 -0.5641 -0.2185 -0.0040
  806loPI   C1B12225   5.442  15.776   6.261  0.0655  0.1648 -0.1025
  806loPI   C2B12226   5.716  15.717   6.563  0.0484 -0.1649  0.2131
  806loPI   C3B12227   5.870  15.789   6.927  0.1349  0.0450 -0.2916
  806loPI   C4B12228   5.701  15.688   7.315 -0.2445  0.0931  0.2948
  807loPI    C112229  16.394  15.277   4.848 -0.2483 -0.0081  0.0716
  807loPI    C212230  16.471  14.913   4.701 -0.1344  0.0176  0.0669
  807loPI    C312231  16.095  15.019   4.785 -0.1572 -0.1376  0.1644
  807loPI   PO412232  16.733  15.284   4.998 -0.0790  0.0061 -0.1452
  807loPI   GL112233  17.080  15.070   5.401 -0.1632 -0.1167  0.0014
  807loPI   GL212234  16.680  15.146   5.505  0.3288 -0.0013  0.1030
  807loPI   C1A12235  17.022  15.181   5.856  0.2333 -0.1327 -0.0791
  807loPI   C2A12236  17.099  15.135   6.312 -0.0431  0.3094  0.2502
  807loPI   C3A12237  17.209  15.133   6.657 -0.0894 -0.1343 -0.0829
  807loPI   C4A12238  17.211  15.102   7.024  0.2739 -0.1198 -0.2000
  807loPI   C5A12239  17.064  14.822   7.399  0.0409 -0.0399  0.1265
  807loPI   C6A12240  16.617  14.746   7.588 -0.0741 -0.2731  0.3104
  807loPI   C1B12241  16.567  15.020   5.933 -0.2644 -0.1562  0.0645
  807loPI   C2B12242  16.513  15.109   6.274  0.2383 -0.0073  0.0749
  807loPI   C3B12243  16.348  15.247   6.648  0.0945  0.2617 -0.0646
  807loPI   C4B12244  16.080  15.313   7.011 -0.0047  0.1245  0.0998
  808loPI    C112245  13.830  14.842   5.198 -0.2539  0.2476 -0.2130
  808loPI    C212246  13.444  14.773   5.120 -0.2693 -0.0852  0.1229
  808loPI    C312247  13.727  14.625   4.878 -0.3405 -0.2337  0.1294
  808loPI   PO412248  13.736  15.059   5.377  0.2362 -0.0384 -0.0156
  808loPI   GL112249  13.702  15.169   5.804 -0.0933 -0.1727  0.0082
  808loPI   GL212250  13.699  15.444   5.804 -0.1201  0.0762 -0.0654
  808loPI   C1A12251  13.817  14.869   6.106  0.2349 -0.0403  0.2796
  808loPI   C2A12252  13.773  14.683   6.513  0.0701 -0.1739 -0.0109
  808loPI   C3A12253  13.851  14.435   6.781 -0.2355  0.0421 -0.1106
  808loPI   C4A12254  13.658  14.132   6.861  0.0470 -0.1024 -0.0239
  808loPI   C5A12255  13.689  13.682   6.700 -0.0404 -0.0678 -0.2125
  808loPI   C6A12256  13.697  13.610   6.321 -0.2340 -0.0126  0.2864
  808loPI   C1B12257  13.694  15.330   6.249 -0.1005  0.2312 -0.0361
  808loPI   C2B12258  13.571  15.197   6.585  0.1071  0.0632  0.3609
  808loPI   C3B12259  13.526  14.992   6.936 -0.2351  0.3470  0.0886
  808loPI   C4B12260  13.267  15.031   7.295  0.1847  0.0032 -0.0267
  809loPI    C112261   2.513  16.436   5.065 -0.1745  0.1036 -0.0153
  809loPI    C212262   2.309  16.329   4.738  0.0340 -0.1767 -0.0576
  809loPI    C312263   2.656  16.149   4.825  0.1359  0.1131  0.1523
  809loPI   PO412264   2.348  16.415   5.294 -0.2442 -0.2887  0.3695
  809loPI   GL112265   2.297  16.452   5.668 -0.1389 -0.0495  0.0380
  809loPI   GL212266   2.530  16.110   5.771  0.3344  0.4278  0.0883
  809loPI   C1A12267   2.448  16.779   5.879 -0.2944 -0.2352  0.0595
  809loPI   C2A12268   2.533  16.663   6.227  0.1544 -0.1986 -0.3498
  809loPI   C3A12269   2.573  16.465   6.651  0.0695 -0.2588 -0.0165
  809loPI   C4A12270   2.662  16.335   7.032  0.0433  0.1561  0.1291
  809loPI   C5A12271   2.615  16.259   7.407 -0.4737 -0.2538  0.2313
  809loPI   C6A12272   2.881  16.224   7.809 -0.4493  0.1682 -0.1418
  809loPI   C1B12273   2.358  16.218   6.115  0.0811  0.4678  0.0177
  809loPI   C2B12274   2.200  16.168   6.433  0.1669  0.0911 -0.0163
  809loPI   C3B12275   2.137  16.216   6.872 -0.0784 -0.2849  0.1949
  809loPI   C4B12276   2.174  16.051   7.206  0.2818  0.2640  0.3217
  810loPI    C112277   7.122  18.210   4.584  0.1032 -0.2890 -0.1887
  810loPI    C212278   6.902  18.155   4.255 -0.2694 -0.0332  0.0102
  810loPI    C312279   7.031  18.521   4.350 -0.0835 -0.1211  0.1002
  810loPI   PO412280   7.082  18.184   4.891 -0.0607  0.0008  0.2155
  810loPI   GL112281   7.361  18.030   5.173 -0.0690  0.0900 -0.1795
  810loPI   GL212282   7.082  18.098   5.391 -0.1372 -0.1168 -0.2037
  810loPI   C1A12283   7.516  18.054   5.638 -0.1031  0.2002 -0.1225
  810loPI   C2A12284   7.623  17.817   6.063 -0.0393  0.0770  0.3386
  810loPI   C3A12285   7.816  17.802   6.412  0.0213  0.0009 -0.0362
  810loPI   C4A12286   7.897  17.899   6.846 -0.0796  0.2452  0.2152
  810loPI   C5A12287   7.751  17.886   7.283  0.4320 -0.3325  0.2812
  810loPI   C6A12288   7.628  17.705   7.646 -0.0427  0.1698 -0.0394
  810loPI   C1B12289   7.099  18.219   5.886 -0.0742 -0.1649 -0.0550
  810loPI   C2B12290   7.146  18.487   6.259  0.0583 -0.2318  0.0041
  810loPI   C3B12291   7.363  18.622   6.679 -0.6907 -0.3510  0.3128
  810loPI   C4B12292   7.639  18.946   6.821 -0.1858  0.2273 -0.2343
  811loPI    C112293   9.984  11.795   4.957  0.0376  0.0104 -0.0768
  811loPI    C212294  10.022  11.602   4.609  0.1225  0.0137 -0.0694
  811loPI    C312295   9.658  11.679   4.756  0.0859 -0.4353  0.0904
  811loPI   PO412296  10.293  11.839   4.968  0.0528 -0.2573  0.0069
  811loPI   GL112297  10.691  11.905   5.321  0.4280  0.2793 -0.0231
  811loPI   GL212298  10.321  12.114   5.413  0.1876 -0.0762 -0.7185
  811loPI   C1A12299  10.605  11.602   5.650 -0.3259  0.0609  0.2722
  811loPI   C2A12300  10.327  11.611   6.009 -0.1153  0.0164 -0.1907
  811loPI   C3A12301  10.212  11.649   6.482 -0.1600  0.4480 -0.0970
  811loPI   C4A12302  10.103  11.699   6.909  0.2701  0.1656 -0.0750
  811loPI   C5A12303   9.972  11.515   7.326 -0.0217 -0.1633  0.2688
  811loPI   C6A12304   9.801  11.601   7.759 -0.2954 -0.1520  0.0963
  811loPI   C1B12305  10.375  12.126   5.829 -0.0203 -0.0253 -0.1734
  811loPI   C2B12306  10.360  12.068   6.281  0.1318 -0.2486 -0.4761
  811loPI   C3B12307  10.650  12.047   6.739 -0.2220 -0.0129 -0.1982
  811loPI   C4B12308  10.890  11.767   6.929 -0.0278  0.1278 -0.2697
  812loPI    C112309  17.042  11.288   4.688  0.1115 -0.1078  0.0823
  812loPI    C212310  17.353  11.352   4.445 -0.0503 -0.2814 -0.1753
  812loPI    C312311  16.990  11.487   4.345 -0.0604 -0.0754  0.1262
  812loPI   PO412312  17.076  11.405   4.901  0.0460 -0.1401  0.0734
  812loPI   GL112313  16.922  11.367   5.338  0.1809 -0.2602 -0.1569
  812loPI   GL212314  16.555  11.619   5.460  0.3805  0.0486  0.0347
  812loPI   C1A12315  17.069  11.186   5.752 -0.1315 -0.1326 -0.1311
  812loPI   C2A12316  17.298  11.341   6.120  0.0225 -0.0676  0.0539
  812loPI   C3A12317  17.292  11.358   6.506  0.0601 -0.1241 -0.0222
  812loPI   C4A12318  17.535  11.487   6.880  0.0405  0.2608 -0.0187
  812loPI   C5A12319  17.769  11.703   7.245  0.1991 -0.2778  0.0435
  812loPI   C6A12320  17.674  11.846   7.638  0.1442  0.1701  0.2651
  812loPI   C1B12321  16.692  11.508   5.797 -0.0261  0.1684 -0.2383
  812loPI   C2B12322  16.844  11.539   6.239 -0.0848  0.2449  0.0366
  812loPI   C3B12323  16.867  11.730   6.531 -0.4728  0.2676  0.1813
  812loPI   C4B12324  16.846  11.926   6.950 -0.0254 -0.1186  0.2337
  813loPI    C112325  11.125   3.122   4.824 -0.1204 -0.0273  0.0038
  813loPI    C212326  11.141   2.748   4.682 -0.0725 -0.0307  0.0177
  813loPI    C312327  11.256   3.054   4.452 -0.2700 -0.0078 -0.0532
  813loPI   PO412328  10.874   3.150   4.942 -0.1564  0.1360 -0.1091
  813loPI   GL112329  10.700   3.059   5.297  0.3153 -0.1204 -0.1740
  813loPI   GL212330  10.615   3.277   5.344 -0.0149  0.0718 -0.0495
  813loPI   C1A12331  10.841   3.055   5.723  0.1103 -0.0440 -0.1377
  813loPI   C2A12332  10.914   2.895   6.062  0.2934  0.2714 -0.1452
  813loPI   C3A12333  11.002   3.083   6.461  0.0965 -0.0840 -0.1168
  813loPI   C4A12334  11.057   3.201   6.821 -0.1631 -0.1611  0.3896
  813loPI   C5A12335  10.822   3.287   7.175 -0.0152 -0.2099 -0.1879
  813loPI   C6A12336  10.351   3.397   7.471 -0.1640  0.2667 -0.5154
  813loPI   C1B12337  10.366   3.387   5.650 -0.0466  0.2090  0.1248
  813loPI   C2B12338  10.605   3.355   5.996  0.0141 -0.0159 -0.0333
  813loPI   C3B12339  10.606   3.338   6.378 -0.0690  0.3919 -0.0479
  813loPI   C4B12340  10.568   3.444   6.765 -0.1785  0.0842  0.1011
  814loPI    C112341  16.118  15.524   4.366 -0.2106 -0.0210 -0.0221
  814loPI    C212342  15.966  15.833   4.162  0.1642  0.1508 -0.0504
  814loPI    C312343  16.146  15.534   3.967  0.0071  0.0261 -0.0067
  814loPI   PO412344  15.879  15.395   4.532  0.0505 -0.1488  0.2770
  814loPI   GL112345  15.795  15.494   5.027  0.2134  0.0351 -0.1694
  814loPI   GL212346  16.057  15.725   4.926 -0.0464  0.0341 -0.0846
  814loPI   C1A12347  15.527  15.685   5.377 -0.4187 -0.0720 -0.0196
  814loPI   C2A12348  15.343  15.694   5.718  0.1018 -0.0845 -0.0558
  814loPI   C3A12349  15.492  15.553   6.085 -0.1795 -0.3951 -0.0331
  814loPI   C4A12350  15.280  15.502   6.440  0.2888 -0.0718 -0.1401
  814loPI   C5A12351  14.944  15.300   6.700  0.1748 -0.2971 -0.2431
  814loPI   C6A12352  14.892  15.217   7.177  0.2315 -0.0814 -0.0023
  814loPI   C1B12353  15.941  15.951   5.283 -0.0394  0.0142 -0.0493
  814loPI   C2B12354  15.867  15.993   5.653 -0.1184 -0.1229 -0.0896
  814loPI   C3B12355  15.816  15.913   6.092  0.1202 -0.5049  0.2085
  814loPI   C4B12356  15.970  16.201   6.427 -0.1385 -0.1471 -0.2024
  815loPI    C112357   2.735  13.646   4.930 -0.3422 -0.1125  0.1651
  815loPI    C212358   2.766  13.409   4.610 -0.0949  0.0713  0.0501
  815loPI    C312359   2.610  13.775   4.573  0.1481  0.1809  0.0907
  815loPI   PO412360   2.684  13.482   5.158  0.0487  0.0768 -0.1625
  815loPI   GL112361   2.627  13.618   5.589  0.3154 -0.0818 -0.3533
  815loPI   GL212362   2.403  13.865   5.670  0.1966 -0.0826  0.2048
  815loPI   C1A12363   2.655  13.686   6.034  0.1551 -0.1449  0.0458
  815loPI   C2A12364   2.642  13.648   6.515 -0.6030  0.1340 -0.0213
  815loPI   C3A12365   2.701  13.538   6.959 -0.4672  0.1905 -0.1693
  815loPI   C4A12366   2.702  13.458   7.299 -0.0389 -0.0133  0.1148
  815loPI   C5A12367   2.499  13.493   7.710  0.2010  0.0455  0.0639
  815loPI   C6A12368   2.400  13.622   8.052 -0.0677 -0.4014  0.1681
  815loPI   C1B12369   2.126  13.959   5.920 -0.0813 -0.2084  0.0626
  815loPI   C2B12370   2.055  14.299   6.230  0.0853 -0.1252  0.1072
  815loPI   C3B12371   2.301  14.628   6.419  0.4301  0.2165 -0.0109
  815loPI   C4B12372   2.591  14.602   6.797  0.2606 -0.0598  0.2494
  816loPI    C112373   4.061  15.132   5.056 -0.1271  0.0762  0.0331
  816loPI    C212374   3.784  14.907   4.875  0.0735 -0.1509  0.0048
  816loPI    C312375   4.125  14.997   4.686  0.0027  0.1657  0.0223
  816loPI   PO412376   4.160  15.062   5.275 -0.1886  0.2066 -0.0353
  816loPI   GL112377   4.186  15.119   5.641  0.3436  0.0389 -0.0639
  816loPI   GL212378   4.230  15.460   5.812  0.0427  0.1178 -0.0107
  816loPI   C1A12379   3.943  15.092   6.159 -0.1677  0.0764 -0.2595
  816loPI   C2A12380   3.971  15.140   6.644 -0.1128 -0.0035 -0.0723
  816loPI   C3A12381   4.208  15.172   7.050  0.0931 -0.1840 -0.2262
  816loPI   C4A12382   4.607  15.116   7.185  0.3641  0.0238 -0.3740
  816loPI   C5A12383   4.942  14.864   7.234 -0.5100 -0.0138 -0.2123
  816loPI   C6A12384   4.899  14.398   7.282 -0.1066 -0.0361 -0.1779
  816loPI   C1B12385   4.295  15.401   6.337  0.0747  0.4718 -0.2096
  816loPI   C2B12386   4.558  15.391   6.749  0.1544  0.0115 -0.3132
  816loPI   C3B12387   4.495  15.565   7.116  0.1782  0.2647  0.1896
  816loPI   C4B12388   4.431  15.667   7.600 -0.3877  0.3986 -0.1883
  817loPI    C112389   7.686   2.295   4.543  0.1803 -0.0479  0.0876
  817loPI    C212390   7.741   2.035   4.244 -0.0878  0.0625 -0.0614
  817loPI    C312391   7.997   2.337   4.296  0.0233 -0.0228 -0.1087
  817loPI   PO412392   7.702   2.186   4.786 -0.0177  0.0821  0.5921
  817loPI   GL112393   7.821   2.165   5.185 -0.0120  0.0064 -0.1904
  817loPI   GL212394   7.853   2.461   5.232  0.2497  0.0219 -0.2952
  817loPI   C1A12395   7.882   2.057   5.666 -0.0373  0.0747  0.1109
  817loPI   C2A12396   7.999   2.007   6.133  0.1507 -0.0941  0.2126
  817loPI   C3A12397   8.098   1.698   6.507 -0.0552  0.1957  0.1013
  817loPI   C4A12398   8.403   1.609   6.758  0.2997 -0.0062 -0.0522
  817loPI   C5A12399   8.534   1.764   7.160  0.0517  0.0073  0.3187
  817loPI   C6A12400   8.831   1.562   7.418 -0.0735  0.2242 -0.1590
  817loPI   C1B12401   7.723   2.501   5.645  0.0132 -0.1702 -0.2954
  817loPI   C2B12402   7.691   2.388   6.081 -0.2798 -0.1506 -0.0417
  817loPI   C3B12403   7.599   2.364   6.457  0.2281  0.1841 -0.1314
  817loPI   C4B12404   7.730   2.509   6.839  0.0694 -0.1803 -0.2417
  818loPI    C112405  17.280   4.961   4.772 -0.1556  0.1285  0.2107
  818loPI    C212406  17.276   5.229   4.475  0.2758 -0.0016  0.0806
  818loPI    C312407  17.326   4.840   4.394 -0.0181 -0.0879  0.2947
  818loPI   PO412408  17.346   5.118   4.959  0.3108  0.1246  0.2078
  818loPI   GL112409  17.027   5.151   5.319  0.2035  0.1541 -0.0838
  818loPI   GL212410  16.758   4.896   5.262  0.3502  0.0321 -0.2508
  818loPI   C1A12411  17.258   5.271   5.666  0.0937 -0.0958 -0.1475
  818loPI   C2A12412  17.313   5.167   6.118 -0.0913 -0.0177 -0.1177
  818loPI   C3A12413  17.379   5.070   6.614 -0.1299  0.1160  0.2667
  818loPI   C4A12414  17.116   5.039   6.951 -0.0251  0.0351  0.3161
  818loPI   C5A12415  17.275   5.146   7.356 -0.0133 -0.1578 -0.1755
  818loPI   C6A12416  17.656   5.040   7.506  0.0988  0.3660  0.2024
  818loPI   C1B12417  16.686   4.922   5.676 -0.0552 -0.4275 -0.2205
  818loPI   C2B12418  16.442   5.072   6.030 -0.1426 -0.2600 -0.1066
  818loPI   C3B12419  16.327   4.833   6.347 -0.0055 -0.1243 -0.0497
  818loPI   C4B12420  16.474   4.397   6.457  0.3662 -0.1216 -0.0174
  819loPI    C112421  14.500  13.126   4.791 -0.1365 -0.3256  0.1265
  819loPI    C212422  14.152  12.992   4.649 -0.1483 -0.0351 -0.1308
  819loPI    C312423  14.427  13.138   4.398  0.1136 -0.1539  0.0821
  819loPI   PO412424  14.620  12.905   5.013 -0.1687 -0.1477 -0.3013
  819loPI   GL112425  14.507  12.748   5.400  0.1643 -0.2363  0.0457
  819loPI   GL212426  14.291  12.677   5.547 -0.1289 -0.1463 -0.2005
  819loPI   C1A12427  14.786  12.984   5.659  0.0720 -0.3307 -0.1581
  819loPI   C2A12428  14.909  13.057   6.008  0.3473 -0.1953 -0.0434
  819loPI   C3A12429  14.568  13.098   6.366 -0.1104  0.1182 -0.0941
  819loPI   C4A12430  14.439  13.311   6.808  0.2765  0.1995 -0.2325
  819loPI   C5A12431  14.434  13.592   7.164  0.1756  0.1283  0.0355
  819loPI   C6A12432  14.533  13.936   7.332  0.3099 -0.1929 -0.1781
  819loPI   C1B12433  14.291  12.941   5.945 -0.4652  0.0613  0.0259
  819loPI   C2B12434  14.122  12.931   6.290 -0.1850 -0.2339 -0.1834
  819loPI   C3B12435  13.774  12.717   6.595  0.3623  0.0014 -0.2185
  819loPI   C4B12436  13.538  12.372   6.780 -0.1132 -0.0328  0.0212
  820loPI    C112437   1.008   0.385   4.940  0.0442 -0.0611 -0.0841
  820loPI    C212438   0.803   0.043   4.970  0.0117 -0.0175  0.2181
  820loPI    C312439   0.610   0.394   4.981  0.0634  0.0149  0.0982
  820loPI   PO412440   1.120   0.398   5.171  0.1039  0.0111  0.0443
  820loPI   GL112441   1.338   0.712   5.390 -0.3290  0.0593  0.3196
  820loPI   GL212442   1.602   0.747   5.461  0.0061  0.1060  0.4411
  820loPI   C1A12443   1.113   1.024   5.694 -0.2002  0.1081  0.0212
  820loPI   C2A12444   0.977   1.017   6.108 -0.1468  0.1775  0.1798
  820loPI   C3A12445   1.014   0.902   6.597 -0.0939 -0.1458  0.1279
  820loPI   C4A12446   1.349   0.775   6.917  0.1401  0.3475  0.2015
  820loPI   C5A12447   1.180   0.568   7.296  0.2680  0.3156 -0.2587
  820loPI   C6A12448   1.307   0.600   7.721  0.0357 -0.0017 -0.0996
  820loPI   C1B12449   1.576   0.806   5.836  0.2287 -0.2539 -0.0297
  820loPI   C2B12450   1.627   0.944   6.234  0.2240 -0.1087  0.0031
  820loPI   C3B12451   1.743   0.968   6.674 -0.1432  0.3298 -0.1179
  820loPI   C4B12452   2.085   0.990   6.934 -0.1306 -0.0308  0.0760
  821loPI    C112453  18.887  10.435   5.002  0.0567  0.4313 -0.0263
  821loPI    C212454  18.535  10.369   4.823 -0.1065  0.1691  0.3758
  821loPI    C312455  18.874  10.353   4.611 -0.3020 -0.0058  0.0689
  821loPI   PO412456  18.689  10.388   5.308  0.0499  0.1962  0.1587
  821loPI   GL112457  18.697  10.400   5.635 -0.1662 -0.1145 -0.0067
  821loPI   GL212458  18.560  10.129   5.766 -0.3410  0.3599  0.1813
  821loPI   C1A12459  18.615  10.621   6.008  0.1804 -0.3373  0.2960
  821loPI   C2A12460  18.579  10.623   6.442 -0.1759 -0.0739 -0.0879
  821loPI   C3A12461  18.584  10.433   6.781 -0.4630 -0.1278  0.0016
  821loPI   C4A12462  18.427  10.325   7.198  0.3345  0.3204  0.0813
  821loPI   C5A12463  18.402  10.573   7.554  0.3536 -0.1109  0.2356
  821loPI   C6A12464  18.548  10.609   7.927  0.1469  0.3465  0.2652
  821loPI   C1B12465  18.418   9.980   6.179  0.0490  0.2204  0.0957
  821loPI   C2B12466  18.453   9.946   6.626 -0.4075 -0.2151  0.0982
  821loPI   C3B12467  18.193   9.706   6.929 -0.0423 -0.0044  0.3142
  821loPI   C4B12468  18.035   9.875   7.228  0.2729 -0.0649 -0.3553
  822loPI    C112469   3.421   9.120   4.937  0.1314  0.3563  0.1060
  822loPI    C212470   3.076   9.313   4.878 -0.0491 -0.0006 -0.0376
  822loPI    C312471   3.219   9.068   4.595  0.1763 -0.0766  0.1390
  822loPI   PO412472   3.471   9.311   5.301  0.0245 -0.1264 -0.5226
  822loPI   GL112473   3.142   9.365   5.567 -0.2112 -0.0741  0.2001
  822loPI   GL212474   3.062   9.576   5.416 -0.1570 -0.1676 -0.0360
  822loPI   C1A12475   3.187   9.332   6.012  0.0819  0.0228 -0.1212
  822loPI   C2A12476   2.813   9.552   6.119  0.0806 -0.1801 -0.1620
  822loPI   C3A12477   2.488   9.615   6.322  0.2143  0.2123 -0.1029
  822loPI   C4A12478   2.308   9.969   6.296 -0.0349 -0.1012  0.1697
  822loPI   C5A12479   2.207  10.195   6.689 -0.1605 -0.1591  0.2101
  822loPI   C6A12480   2.043  10.120   7.114  0.1974  0.0445  0.2734
  822loPI   C1B12481   3.036   9.842   5.780  0.1989  0.0456 -0.0330
  822loPI   C2B12482   3.285   9.811   6.228  0.0402  0.0342  0.1029
  822loPI   C3B12483   3.591   9.758   6.573 -0.3657 -0.1210 -0.3075
  822loPI   C4B12484   3.917   9.461   6.833 -0.0211  0.0985  0.0296
  823loPI    C112485  12.620  12.691   4.703 -0.3177 -0.0086 -0.1031
  823loPI    C212486  12.626  13.044   4.515  0.2639  0.1559  0.1997
  823loPI    C312487  12.644  12.705   4.304  0.2304  0.3181 -0.0689
  823loPI   PO412488  12.795  12.754   4.883 -0.1355 -0.1152 -0.0177
  823loPI   GL112489  12.981  12.755   5.257  0.5974 -0.1505 -0.3451
  823loPI   GL212490  13.289  12.880   5.421  0.1040  0.0149  0.1403
  823loPI   C1A12491  12.943  12.591   5.647  0.1447 -0.1104  0.0001
  823loPI   C2A12492  12.593  12.364   5.864 -0.0024 -0.2350  0.0986
  823loPI   C3A12493  12.602  12.167   6.205  0.2189 -0.1083  0.2537
  823loPI   C4A12494  12.502  12.144   6.596 -0.2851 -0.2470 -0.0564
  823loPI   C5A12495  12.353  11.814   6.814  0.2408 -0.1154 -0.2559
  823loPI   C6A12496  12.387  11.467   7.131 -0.2154  0.0514 -0.2182
  823loPI   C1B12497  13.343  12.907   5.805 -0.0224 -0.0330 -0.2756
  823loPI   C2B12498  13.615  13.045   6.149  0.0912  0.0372  0.2631
  823loPI   C3B12499  13.744  13.207   6.545  0.0633  0.0231  0.0419
  823loPI   C4B12500  13.930  13.266   6.914  0.0429 -0.1357 -0.0910
  824loPI    C112501   1.534  17.657   4.970 -0.0486 -0.0256 -0.1526
  824loPI    C212502   1.728  17.325   5.081 -0.2301 -0.0587  0.0727
  824loPI    C312503   1.550  17.343   4.723  0.0157 -0.1010 -0.0537
  824loPI   PO412504   1.705  17.796   5.132  0.1805  0.0643 -0.2022
  824loPI   GL112505   1.523  17.961   5.406  0.3176  0.0300  0.0898
  824loPI   GL212506   1.289  18.011   5.547 -0.3080  0.0356 -0.1643
  824loPI   C1A12507   1.604  18.341   5.604 -0.1650  0.1138  0.1359
  824loPI   C2A12508   1.633  18.549   6.016 -0.1572 -0.0984  0.1019
  824loPI   C3A12509   1.377  18.618   6.354 -0.1096 -0.0410  0.0261
  824loPI   C4A12510   1.053  18.629   6.646 -0.1276  0.0036  0.2427
  824loPI   C5A12511   0.857  18.454   6.964 -0.2459 -0.0997  0.1720
  824loPI   C6A12512   0.907  18.213   7.408  0.0999  0.3802  0.2400
  824loPI   C1B12513   1.558  17.927   5.886 -0.0038 -0.1963  0.2166
  824loPI   C2B12514   1.554  18.073   6.343  0.2280 -0.1976  0.1955
  824loPI   C3B12515   1.174  18.128   6.622 -0.4379  0.1421  0.2032
  824loPI   C4B12516   0.768  18.243   6.527 -0.1353  0.4715 -0.2384
  825loPI    C112517   4.667   2.213   5.148 -0.2262  0.0319 -0.1082
  825loPI    C212518   4.647   2.595   5.266 -0.0697  0.0611 -0.1742
  825loPI    C312519   4.348   2.344   5.352 -0.0661  0.1404  0.0761
  825loPI   PO412520   4.947   2.219   5.191 -0.2011  0.0432 -0.1736
  825loPI   GL112521   5.067   2.457   5.492  0.3275  0.2722  0.1764
  825loPI   GL212522   5.418   2.320   5.654  0.2432 -0.0042  0.1246
  825loPI   C1A12523   4.881   2.598   5.754  0.1774 -0.0035 -0.1019
  825loPI   C2A12524   4.640   2.621   6.095 -0.2526 -0.0558  0.3487
  825loPI   C3A12525   4.853   2.553   6.450 -0.0633 -0.0899 -0.2793
  825loPI   C4A12526   4.912   2.658   6.899 -0.1216 -0.1586 -0.1200
  825loPI   C5A12527   4.925   2.895   7.367  0.0950 -0.0142 -0.1086
  825loPI   C6A12528   4.683   3.225   7.550 -0.2524 -0.3090 -0.0856
  825loPI   C1B12529   5.340   2.462   6.172 -0.2150 -0.1134  0.0037
  825loPI   C2B12530   5.267   2.476   6.607 -0.3182  0.3215  0.1004
  825loPI   C3B12531   5.373   2.469   6.999 -0.4536  0.1703 -0.1658
  825loPI   C4B12532   5.377   2.483   7.303 -0.1792  0.2161 -0.1081
  826loPI    C112533   4.170  14.582   5.003 -0.0968 -0.0194  0.0079
  826loPI    C212534   4.180  14.274   5.258 -0.0590  0.0253  0.0607
  826loPI    C312535   3.966  14.248   4.921 -0.0548 -0.0592  0.0644
  826loPI   PO412536   4.422  14.682   5.022 -0.0632  0.2447 -0.1943
  826loPI   GL112537   4.481  14.726   5.527  0.2033 -0.2277  0.1345
  826loPI   GL212538   4.194  14.591   5.632 -0.1463 -0.0747 -0.3500
  826loPI   C1A12539   4.554  14.826   5.981  0.1491 -0.0180  0.1337
  826loPI   C2A12540   4.610  15.037   6.358 -0.0191  0.2339 -0.1247
  826loPI   C3A12541   4.409  14.829   6.777 -0.0723  0.1224  0.0995
  826loPI   C4A12542   4.396  14.611   7.237  0.0147  0.1494  0.0451
  826loPI   C5A12543   4.425  14.365   7.586 -0.0086  0.1196 -0.1273
  826loPI   C6A12544   4.376  14.256   7.940  0.4035  0.3090 -0.0816
  826loPI   C1B12545   4.443  14.339   5.936 -0.0055  0.0555  0.0421
  826loPI   C2B12546   4.593  14.075   6.285  0.4383 -0.2861  0.1160
  826loPI   C3B12547   4.929  13.947   6.636 -0.3174  0.0416 -0.0456
  826loPI   C4B12548   5.315  14.162   6.826  0.1857  0.1036 -0.0127
  827loPI    C112549  14.071  11.387   4.784 -0.2894  0.1767  0.0177
  827loPI    C212550  13.810  11.185   4.559  0.0719 -0.1540 -0.1163
  827loPI    C312551  14.067  11.439   4.388 -0.0285  0.0237 -0.0072
  827loPI   PO412552  14.060  11.341   5.037 -0.0892  0.2110  0.2780
  827loPI   GL112553  14.284  11.300   5.316  0.1699 -0.0113  0.0073
  827loPI   GL212554  14.552  11.465   5.394  0.1190 -0.1171 -0.0067
  827loPI   C1A12555  14.105  11.372   5.697  0.0449  0.1808  0.1181
  827loPI   C2A12556  13.912  11.393   6.069 -0.3678  0.0818  0.0654
  827loPI   C3A12557  13.717  11.369   6.469  0.0051  0.1332  0.0440
  827loPI   C4A12558  13.479  11.112   6.902  0.0719 -0.0015 -0.1798
  827loPI   C5A12559  13.381  11.195   7.242  0.0407  0.1099 -0.0833
  827loPI   C6A12560  13.084  11.310   7.604 -0.2024 -0.1241  0.1716
  827loPI   C1B12561  14.628  11.242   5.745  0.2477 -0.0363 -0.1988
  827loPI   C2B12562  14.394  11.137   6.096 -0.0190  0.0349  0.2567
  827loPI   C3B12563  14.329  11.168   6.560 -0.0148  0.0798 -0.4169
  827loPI   C4B12564  14.067  11.205   6.943  0.2453 -0.0640 -0.0161
  828loPI    C112565   0.616   6.046   4.864  0.0562  0.0974 -0.0709
  828loPI    C212566   0.406   6.161   4.543 -0.1306  0.2192  0.0927
  828loPI    C312567   0.806   6.177   4.537 -0.1175 -0.1112 -0.2584
  828loPI   PO412568   0.446   6.046   5.028  0.1902  0.2093 -0.3202
  828loPI   GL112569   0.618   6.233   5.429  0.1045  0.2921 -0.1377
  828loPI   GL212570   0.806   6.428   5.383  0.1304 -0.0572 -0.3542
  828loPI   C1A12571   0.596   6.195   5.841  0.1371 -0.0441 -0.0652
  828loPI   C2A12572   0.540   5.867   6.174  0.3462 -0.3511 -0.1976
  828loPI   C3A12573   0.609   5.842   6.653 -0.3868 -0.0766 -0.1949
  828loPI   C4A12574   0.635   5.800   7.141  0.1858  0.0076  0.0201
  828loPI   C5A12575   0.758   5.712   7.498 -0.0477 -0.0533 -0.3797
  828loPI   C6A12576   0.673   5.393   7.792  0.0077 -0.0121  0.2827
  828loPI   C1B12577   1.081   6.501   5.730  0.1598  0.0780 -0.0694
  828loPI   C2B12578   1.019   6.301   6.145 -0.0402 -0.0824  0.0369
  828loPI   C3B12579   0.997   5.958   6.404 -0.0873 -0.1717 -0.0962
  828loPI   C4B12580   1.297   5.702   6.620  0.1424 -0.0447  0.1569
  829loPI    C112581  17.929  15.780   4.357  0.1027 -0.0874 -0.0479
  829loPI    C212582  17.686  16.097   4.323  0.1226 -0.0351  0.2721
  829loPI    C312583  18.003  16.061   4.082 -0.0404  0.0415  0.0433
  829loPI   PO412584  18.051  15.725   4.588 -0.0215  0.3366  0.3754
  829loPI   GL112585  17.943  15.649   5.042  0.1341 -0.0018 -0.0826
  829loPI   GL212586  17.742  15.858   5.235 -0.1263 -0.3143  0.0874
  829loPI   C1A12587  18.029  15.559   5.549 -0.1335 -0.0730  0.0108
  829loPI   C2A12588  17.804  15.458   5.927 -0.2625  0.1738  0.0170
  829loPI   C3A12589  17.804  15.551   6.368  0.4351  0.2325  0.0637
  829loPI   C4A12590  17.512  15.523   6.732 -0.0125 -0.1895 -0.0119
  829loPI   C5A12591  17.380  15.582   7.165 -0.4011 -0.3330  0.0806
  829loPI   C6A12592  17.189  15.379   7.463 -0.0918  0.1453 -0.0717
  829loPI   C1B12593  17.782  15.972   5.685 -0.2687  0.1889  0.0943
  829loPI   C2B12594  17.666  15.969   6.131 -0.1828 -0.1530  0.0406
  829loPI   C3B12595  17.597  16.009   6.509 -0.4677  0.1186 -0.1502
  829loPI   C4B12596  17.756  15.896   6.849 -0.1595  0.0822 -0.0536
  830loPI    C112597   3.222  17.142   4.596 -0.0234 -0.0960  0.0946
  830loPI    C212598   3.409  16.789   4.597  0.0195 -0.0732  0.0777
  830loPI    C312599   3.600  17.116   4.468 -0.0635 -0.0671 -0.0310
  830loPI   PO412600   3.166  17.145   4.808  0.2059  0.1042  0.0505
  830loPI   GL112601   3.059  17.125   5.260 -0.2476 -0.1683  0.1384
  830loPI   GL212602   3.170  17.416   5.487  0.1422 -0.0607  0.1760
  830loPI   C1A12603   3.219  16.932   5.601  0.3544 -0.1861 -0.1360
  830loPI   C2A12604   2.997  16.837   5.999 -0.2989 -0.1951  0.0150
  830loPI   C3A12605   2.931  16.844   6.464  0.2222 -0.1327 -0.2935
  830loPI   C4A12606   2.785  16.842   6.939 -0.0332 -0.1990 -0.0989
  830loPI   C5A12607   2.574  16.988   7.310 -0.4473 -0.1856 -0.1498
  830loPI   C6A12608   2.241  17.042   7.614  0.0651 -0.1362 -0.2793
  830loPI   C1B12609   3.221  17.358   5.975 -0.0147  0.0525  0.2184
  830loPI   C2B12610   3.184  17.240   6.328 -0.0277 -0.1184 -0.0896
  830loPI   C3B12611   3.197  17.248   6.798 -0.2851 -0.0357 -0.0488
  830loPI   C4B12612   3.292  16.845   6.984  0.2635 -0.2922  0.2164
  831loPI    C112613   8.015  10.881   4.547 -0.2515 -0.0037  0.1565
  831loPI    C212614   8.167  11.234   4.658  0.3184 -0.1151 -0.2263
  831loPI    C312615   7.960  11.204   4.318 -0.0827 -0.0780  0.0085
  831loPI   PO412616   8.013  10.739   4.745 -0.0901 -0.2848  0.2047
  831loPI   GL112617   8.051  10.858   5.118  0.2783  0.0400 -0.1404
  831loPI   GL212618   7.827  10.869   5.289  0.0768  0.3591 -0.0729
  831loPI   C1A12619   8.233  10.988   5.555  0.1710 -0.2175  0.0734
  831loPI   C2A12620   8.591  11.149   5.845  0.0460 -0.0723  0.2076
  831loPI   C3A12621   8.693  11.029   6.255 -0.1798 -0.1397  0.3019
  831loPI   C4A12622   8.786  11.071   6.721  0.1059 -0.0120  0.1078
  831loPI   C5A12623   8.776  10.753   6.977  0.1097  0.1197  0.0805
  831loPI   C6A12624   8.867  10.584   7.369  0.1878  0.1251  0.0541
  831loPI   C1B12625   7.763  11.037   5.701 -0.2721 -0.1617 -0.0706
  831loPI   C2B12626   7.719  11.147   6.098  0.0777 -0.3148 -0.2707
  831loPI   C3B12627   7.623  11.320   6.436 -0.0472 -0.0253  0.0932
  831loPI   C4B12628   7.441  11.300   6.857 -0.1057  0.0065  0.0377
  832loPI    C112629   8.174  15.912   5.004  0.0174  0.1787  0.0376
  832loPI    C212630   7.832  16.119   5.024 -0.1944 -0.1643  0.0604
  832loPI    C312631   7.920  15.911   4.694  0.0310 -0.0169  0.0256
  832loPI   PO412632   8.064  15.673   5.246  0.0140 -0.0531 -0.1056
  832loPI   GL112633   8.222  15.581   5.561 -0.3792  0.1868 -0.1506
  832loPI   GL212634   8.504  15.675   5.475 -0.0405  0.0005  0.0954
  832loPI   C1A12635   8.258  15.579   6.016 -0.0748 -0.0674 -0.1337
  832loPI   C2A12636   8.072  15.436   6.323  0.1281  0.2013  0.1144
  832loPI   C3A12637   7.667  15.485   6.482  0.1063  0.7504  0.1350
  832loPI   C4A12638   7.486  15.579   6.861  0.0082 -0.3148  0.0407
  832loPI   C5A12639   7.530  15.694   7.320  0.3334  0.0259  0.0942
  832loPI   C6A12640   7.643  15.651   7.749 -0.0236 -0.0341  0.2426
  832loPI   C1B12641   8.794  15.799   5.821 -0.1852 -0.0127 -0.0327
  832loPI   C2B12642   9.105  15.760   6.008 -0.0596 -0.0971  0.2934
  832loPI   C3B12643   9.362  15.774   6.325 -0.2303  0.3268  0.1261
  832loPI   C4B12644   9.449  16.258   6.419 -0.1661  0.1795  0.0735
  833loPI    C112645   0.276  13.562   5.054 -0.1061 -0.1988 -0.0241
  833loPI    C212646   0.043  13.611   4.732 -0.0256  0.2442 -0.0211
  833loPI    C312647   0.418  13.750   4.731  0.1321 -0.1636  0.0990
  833loPI   PO412648   0.093  13.663   5.249  0.1430 -0.0187 -0.2582
  833loPI   GL112649   0.252  13.551   5.663 -0.4739  0.0614 -0.1076
  833loPI   GL212650   0.438  13.405   5.830 -0.1441  0.0258  0.0980
  833loPI   C1A12651   0.226  13.826   6.087  0.0621 -0.2951  0.0992
  833loPI   C2A12652   0.197  13.902   6.435  0.1863  0.1277  0.0461
  833loPI   C3A12653   0.209  13.673   6.807  0.0764 -0.0807 -0.0427
  833loPI   C4A12654   0.451  13.561   7.233 -0.4729 -0.0292  0.2991
  833loPI   C5A12655   0.796  13.380   7.428  0.3896  0.1010  0.3552
  833loPI   C6A12656   1.185  13.469   7.522  0.1350  0.3095  0.2530
  833loPI   C1B12657   0.078  13.236   5.994  0.3642 -0.1416 -0.2257
  833loPI   C2B12658  -0.365  13.239   5.850 -0.1683  0.1128 -0.0108
  833loPI   C3B12659  -0.590  13.349   6.241 -0.0118 -0.0416 -0.1685
  833loPI   C4B12660  -0.671  13.478   6.647 -0.0998 -0.0474  0.2640
  834loPI    C112661  18.147  14.975   4.882 -0.0340  0.0488 -0.0996
  834loPI    C212662  18.223  15.258   4.610 -0.2516  0.1581 -0.0485
  834loPI    C312663  18.004  14.938   4.510 -0.0996  0.0617 -0.0758
  834loPI   PO412664  18.041  15.106   5.072 -0.2093 -0.3473 -0.0367
  834loPI   GL112665  17.726  15.265   5.288  0.1690 -0.0373 -0.2071
  834loPI   GL212666  17.632  15.008   5.302  0.4158  0.1972  0.4915
  834loPI   C1A12667  17.458  15.534   5.485  0.0616  0.0146 -0.1997
  834loPI   C2A12668  17.335  15.517   5.916  0.2495  0.0202  0.3594
  834loPI   C3A12669  17.270  15.582   6.291  0.3036  0.3721 -0.4573
  834loPI   C4A12670  17.170  15.848   6.697  0.3030  0.4575 -0.2992
  834loPI   C5A12671  17.229  16.129   7.059  0.0146 -0.0429 -0.1470
  834loPI   C6A12672  17.426  16.592   6.983  0.1582 -0.2085 -0.4418
  834loPI   C1B12673  17.464  15.022   5.738  0.2356 -0.2547 -0.2920
  834loPI   C2B12674  17.590  15.134   6.227 -0.4067 -0.0654 -0.0962
  834loPI   C3B12675  17.814  15.107   6.621 -0.2608 -0.0728 -0.3226
  834loPI   C4B12676  18.246  15.042   6.672  0.1560  0.0656  0.1569
  835loPI    C112677   8.702   9.046   4.443 -0.1160  0.1019 -0.1721
  835loPI    C212678   8.936   8.774   4.266 -0.3421 -0.2424  0.0433
  835loPI    C312679   8.740   9.044   4.045 -0.1243 -0.2588 -0.1745
  835loPI   PO412680   8.516   8.898   4.619 -0.1994 -0.0211 -0.1523
  835loPI   GL112681   8.503   8.757   5.049  0.0626  0.0324 -0.2099
  835loPI   GL212682   8.720   9.000   5.075  0.2091  0.2355 -0.2452
  835loPI   C1A12683   8.615   8.538   5.405  0.2363 -0.0217  0.0343
  835loPI   C2A12684   8.472   8.338   5.655  0.1398 -0.3042  0.3813
  835loPI   C3A12685   8.367   8.317   6.030 -0.0108 -0.3035 -0.0790
  835loPI   C4A12686   8.343   8.356   6.396 -0.1359 -0.1126 -0.2087
  835loPI   C5A12687   8.007   8.384   6.672  0.0852 -0.2437  0.2209
  835loPI   C6A12688   7.639   8.609   6.845  0.0907 -0.0359 -0.0768
  835loPI   C1B12689   8.971   8.846   5.456 -0.0215 -0.1069 -0.0201
  835loPI   C2B12690   9.310   8.897   5.812  0.2545  0.0760  0.0936
  835loPI   C3B12691   9.314   9.169   6.173  0.1023 -0.3367 -0.1824
  835loPI   C4B12692   9.274   9.065   6.544 -0.1523 -0.1466  0.0969
  836loPI    C112693  14.390   6.315   4.437  0.1927 -0.1821 -0.3080
  836loPI    C212694  14.335   6.127   4.089  0.2790 -0.0058 -0.4184
  836loPI    C312695  14.199   6.500   4.138 -0.2004 -0.2147 -0.0837
  836loPI   PO412696  14.307   6.059   4.668  0.1049 -0.0138  0.0351
  836loPI   GL112697  14.135   6.196   5.061 -0.1144  0.2698 -0.1969
  836loPI   GL212698  13.933   6.031   5.044  0.2020 -0.2248 -0.1024
  836loPI   C1A12699  13.937   6.148   5.485 -0.1815  0.1509  0.0269
  836loPI   C2A12700  13.934   6.106   5.917 -0.1298  0.1627  0.0291
  836loPI   C3A12701  13.896   6.291   6.329  0.0893 -0.1131 -0.0970
  836loPI   C4A12702  13.790   6.304   6.709  0.0116 -0.0274  0.0841
  836loPI   C5A12703  13.892   6.344   7.178 -0.1949  0.1532  0.1305
  836loPI   C6A12704  14.048   6.513   7.605  0.2468  0.1835  0.2465
  836loPI   C1B12705  13.852   5.666   5.394 -0.0500 -0.2065 -0.0732
  836loPI   C2B12706  13.772   5.655   5.798 -0.0713  0.0767 -0.4893
  836loPI   C3B12707  13.989   5.733   6.197 -0.1453  0.0016  0.0775
  836loPI   C4B12708  14.055   5.900   6.532  0.0835  0.0610  0.1325
  837loPI    C112709  11.625  18.248   5.323  0.0366 -0.0760 -0.2590
  837loPI    C212710  11.387  18.137   5.624  0.1471  0.0634 -0.1186
  837loPI    C312711  11.235  18.187   5.258 -0.0220  0.0625 -0.0496
  837loPI   PO412712  11.797  18.413   5.505  0.0919 -0.0233 -0.0920
  837loPI   GL112713  11.815  18.328   5.833 -0.1195  0.0246 -0.2964
  837loPI   GL212714  12.175  18.397   6.053 -0.1321 -0.1200  0.1469
  837loPI   C1A12715  11.457  18.302   6.152  0.1554 -0.2048  0.1421
  837loPI   C2A12716  11.209  18.187   6.513  0.1064 -0.2546 -0.1601
  837loPI   C3A12717  11.137  18.136   6.884 -0.3523 -0.0310 -0.1157
  837loPI   C4A12718  11.396  18.329   7.165  0.0908 -0.0065 -0.0708
  837loPI   C5A12719  11.575  18.502   7.505  0.2273 -0.1311  0.0782
  837loPI   C6A12720  11.535  18.665   7.907  0.0234 -0.1732  0.4256
  837loPI   C1B12721  12.169  18.533   6.516 -0.1147 -0.1110 -0.0985
  837loPI   C2B12722  12.303  18.521   6.993  0.1607 -0.0645 -0.2957
  837loPI   C3B12723  12.029  18.295   7.285  0.0958  0.3050 -0.3191
  837loPI   C4B12724  11.889  18.132   7.715  0.0116 -0.2187 -0.1393
  838loPI    C112725   8.327   4.212   4.380  0.0166 -0.1301  0.0568
  838loPI    C212726   8.692   4.343   4.285 -0.0312  0.1297  0.2197
  838loPI    C312727   8.371   4.562   4.191 -0.1480 -0.1021  0.0685
  838loPI   PO412728   8.351   4.158   4.720  0.0436 -0.0821  0.0743
  838loPI   GL112729   8.356   4.260   5.136 -0.0497  0.1602 -0.0039
  838loPI   GL212730   8.574   4.214   5.226 -0.1814 -0.0053 -0.1823
  838loPI   C1A12731   8.102   4.433   5.464 -0.0140  0.1808  0.1277
  838loPI   C2A12732   8.161   4.301   5.859  0.2321  0.0723  0.1590
  838loPI   C3A12733   8.306   4.362   6.325  0.0036 -0.0948 -0.0014
  838loPI   C4A12734   8.469   4.222   6.692 -0.4103  0.1518  0.0679
  838loPI   C5A12735   8.479   4.381   7.066  0.4905 -0.1240  0.0890
  838loPI   C6A12736   8.381   4.426   7.484 -0.2878 -0.1400 -0.0753
  838loPI   C1B12737   8.634   4.383   5.579  0.0973  0.0345  0.2287
  838loPI   C2B12738   8.865   4.281   5.809 -0.1600  0.1636  0.1242
  838loPI   C3B12739   9.166   4.079   6.024  0.2474  0.3068  0.0837
  838loPI   C4B12740   9.194   4.022   6.397 -0.1925  0.1978 -0.1099
  839loPI    C112741   9.765   5.870   5.053  0.1878 -0.0408  0.0894
  839loPI    C212742   9.937   5.771   4.706 -0.0772  0.0052 -0.0584
  839loPI    C312743  10.099   5.651   5.052 -0.0320 -0.3868 -0.2096
  839loPI   PO412744   9.464   5.727   4.986  0.4013  0.3354  0.3782
  839loPI   GL112745   9.220   5.359   5.261 -0.0159  0.0940 -0.1140
  839loPI   GL212746   8.989   5.722   5.244 -0.2829 -0.1383  0.2599
  839loPI   C1A12747   9.386   5.520   5.568 -0.1862 -0.0258  0.1125
  839loPI   C2A12748   9.187   5.612   6.033 -0.0588 -0.1484 -0.1016
  839loPI   C3A12749   8.957   5.691   6.402 -0.0408  0.0728 -0.2019
  839loPI   C4A12750   8.858   5.422   6.856 -0.2989 -0.0943 -0.0659
  839loPI   C5A12751   8.492   5.541   7.118 -0.1532  0.3516 -0.2412
  839loPI   C6A12752   8.136   5.758   7.231  0.0757 -0.1752 -0.0278
  839loPI   C1B12753   8.924   5.807   5.617 -0.1461 -0.1203 -0.0944
  839loPI   C2B12754   8.696   5.642   5.858  0.2136  0.2055  0.2233
  839loPI   C3B12755   8.414   5.834   5.952  0.0648 -0.0546  0.0139
  839loPI   C4B12756   8.230   6.101   6.229 -0.3766 -0.1310 -0.0093
  840loPI    C112757  12.123  10.758   4.469 -0.1799 -0.1913  0.0642
  840loPI    C212758  12.253  10.802   4.093 -0.1883  0.0038  0.0828
  840loPI    C312759  12.384  11.048   4.380 -0.3613  0.0046  0.1622
  840loPI   PO412760  12.313  10.486   4.558  0.3037  0.0740  0.0382
  840loPI   GL112761  12.306  10.341   5.021 -0.0191 -0.0390  0.3752
  840loPI   GL212762  12.480  10.084   5.049  0.0709  0.1080  0.0367
  840loPI   C1A12763  12.174  10.318   5.415 -0.1176 -0.0723 -0.0508
  840loPI   C2A12764  12.182  10.282   5.852 -0.1938 -0.3905  0.2678
  840loPI   C3A12765  12.249  10.410   6.281  0.0436 -0.2601  0.0457
  840loPI   C4A12766  12.300  10.489   6.708 -0.5641  0.3389  0.3673
  840loPI   C5A12767  12.090  10.614   6.958  0.1644 -0.1690  0.1563
  840loPI   C6A12768  11.834  10.969   7.075  0.0175 -0.4206  0.2974
  840loPI   C1B12769  12.583  10.112   5.526 -0.2296 -0.2572  0.2370
  840loPI   C2B12770  12.538  10.004   5.962  0.2363 -0.3909  0.2041
  840loPI   C3B12771  12.591   9.593   6.243  0.1322  0.0936  0.1176
  840loPI   C4B12772  12.538   9.440   6.655  0.1180 -0.0694  0.0320
  841loPI    C112773   0.187  18.949   5.167 -0.0636 -0.1726  0.0169
  841loPI    C212774   0.383  19.033   4.829  0.0369  0.3440  0.1949
  841loPI    C312775  -0.010  18.959   4.819  0.0810  0.1277 -0.0589
  841loPI   PO412776   0.287  19.093   5.316  0.0575 -0.1838 -0.0089
  841loPI   GL112777   0.371  19.089   5.696 -0.1442 -0.2023  0.2185
  841loPI   GL212778   0.079  19.013   5.807 -0.1318  0.0047 -0.1569
  841loPI   C1A12779   0.163  19.484   6.002 -0.2737  0.2024  0.1787
  841loPI   C2A12780   0.283  19.695   6.317 -0.0621  0.2560  0.0635
  841loPI   C3A12781   0.379  19.786   6.788 -0.0304  0.1883  0.3005
  841loPI   C4A12782   0.368  19.787   7.192  0.1725  0.1416 -0.3247
  841loPI   C5A12783   0.485  19.567   7.560 -0.0746  0.0594 -0.3393
  841loPI   C6A12784   0.486  19.170   7.650  0.2894 -0.1294 -0.2661
  841loPI   C1B12785   0.235  18.758   6.099  0.1533 -0.1428 -0.3740
  841loPI   C2B12786   0.070  18.672   6.516  0.3693 -0.2003  0.2579
  841loPI   C3B12787  -0.047  18.638   6.932 -0.3295 -0.0381  0.1514
  841loPI   C4B12788  -0.161  18.453   7.292  0.0186  0.2415 -0.1919
  842loPI    C112789  15.074   7.889   4.564 -0.0268 -0.1935  0.1536
  842loPI    C212790  15.231   7.529   4.491  0.0961 -0.0981 -0.0640
  842loPI    C312791  15.467   7.851   4.502 -0.0634  0.0274 -0.2493
  842loPI   PO412792  14.854   7.827   4.778  0.1851 -0.2566  0.0254
  842loPI   GL112793  14.860   7.776   5.166 -0.0185 -0.2005 -0.1384
  842loPI   GL212794  14.926   8.162   5.139 -0.2128  0.1424 -0.1030
  842loPI   C1A12795  14.940   7.960   5.635  0.2043  0.1040  0.1498
  842loPI   C2A12796  15.288   8.216   6.023 -0.0759  0.1429  0.2667
  842loPI   C3A12797  15.509   8.267   6.268  0.1565 -0.1486 -0.1218
  842loPI   C4A12798  15.793   8.370   6.640 -0.0426 -0.0063  0.1440
  842loPI   C5A12799  16.088   8.411   6.973  0.2014  0.0116 -0.1404
  842loPI   C6A12800  16.451   8.487   7.369  0.1981  0.0342 -0.0182
  842loPI   C1B12801  14.522   8.225   5.431 -0.1397  0.0714 -0.0812
  842loPI   C2B12802  14.637   8.358   5.888  0.2596  0.0051  0.0394
  842loPI   C3B12803  14.751   8.070   6.257  0.1722  0.1193 -0.0557
  842loPI   C4B12804  15.081   8.187   6.515  0.0783 -0.0143 -0.4191
  843loPI    C112805  14.103  10.864   4.899 -0.0385 -0.1926  0.1321
  843loPI    C212806  14.309  10.926   4.562 -0.1352 -0.0432  0.0991
  843loPI    C312807  14.076  10.603   4.598 -0.0061 -0.1391  0.0825
  843loPI   PO412808  14.251  10.839   5.135  0.0545 -0.0398 -0.1189
  843loPI   GL112809  14.104  10.804   5.470 -0.0367  0.0801 -0.0609
  843loPI   GL212810  13.850  11.058   5.399  0.2913  0.1466 -0.0307
  843loPI   C1A12811  14.029  10.875   5.834  0.1091 -0.0574  0.2057
  843loPI   C2A12812  13.923  10.937   6.242  0.2360  0.2061 -0.0097
  843loPI   C3A12813  13.868  10.846   6.632 -0.1819  0.1891  0.1591
  843loPI   C4A12814  13.890  10.683   7.068 -0.1847  0.1252  0.1775
  843loPI   C5A12815  14.071  10.724   7.481  0.0095  0.3635 -0.0487
  843loPI   C6A12816  13.915  10.778   7.928  0.0598  0.3611  0.1728
  843loPI   C1B12817  13.634  11.184   5.712  0.1490 -0.0736 -0.0414
  843loPI   C2B12818  13.513  11.162   6.063  0.1411  0.3534 -0.0371
  843loPI   C3B12819  13.446  10.933   6.400  0.1793 -0.2539  0.2305
  843loPI   C4B12820  13.405  10.615   6.706  0.4697 -0.3865  0.0412
  844loPI    C112821  10.953  16.016   4.706 -0.0097 -0.1473 -0.1484
  844loPI    C212822  11.035  16.390   4.592 -0.0604 -0.0900 -0.0000
  844loPI    C312823  11.143  16.082   4.361  0.0415  0.0127 -0.0903
  844loPI   PO412824  11.094  15.930   4.935 -0.1296  0.0998 -0.0751
  844loPI   GL112825  11.129  15.778   5.303  0.1399  0.3788 -0.2421
  844loPI   GL212826  10.918  16.078   5.368 -0.0375 -0.1411  0.1026
  844loPI   C1A12827  10.989  15.495   5.618  0.0699 -0.0689 -0.0565
  844loPI   C2A12828  10.774  15.358   6.029 -0.2673 -0.3637 -0.0755
  844loPI   C3A12829  10.670  15.343   6.447 -0.0661  0.0905  0.1247
  844loPI   C4A12830  10.818  15.365   6.904  0.0181 -0.1529 -0.0831
  844loPI   C5A12831  10.757  15.363   7.258  0.0284 -0.0888  0.1272
  844loPI   C6A12832  10.381  15.328   7.271 -0.2222  0.1050 -0.2046
  844loPI   C1B12833  10.867  16.288   5.733 -0.1809 -0.0777 -0.3010
  844loPI   C2B12834  10.691  16.454   6.055 -0.0192  0.0604  0.0671
  844loPI   C3B12835  10.487  16.275   6.415  0.2178  0.2237  0.0960
  844loPI   C4B12836  10.408  16.159   6.827 -0.1836 -0.1665 -0.1274
  845loPI    C112837   7.945   1.745   4.972 -0.2670  0.1450 -0.0173
  845loPI    C212838   7.915   1.709   4.575  0.0102  0.2216 -0.0477
  845loPI    C312839   7.817   1.402   4.813  0.0471  0.1023 -0.1853
  845loPI   PO412840   8.181   1.771   5.023 -0.0948  0.2317 -0.2334
  845loPI   GL112841   8.349   1.866   5.396 -0.1560 -0.1748 -0.0337
  845loPI   GL212842   8.084   1.685   5.502 -0.1617 -0.0093 -0.0671
  845loPI   C1A12843   8.413   1.978   5.794  0.0528  0.2116  0.1130
  845loPI   C2A12844   8.487   1.891   6.286  0.1207  0.0280  0.0443
  845loPI   C3A12845   8.733   1.883   6.580 -0.1293  0.0489 -0.0822
  845loPI   C4A12846   8.655   2.145   6.808  0.1814  0.1096 -0.2612
  845loPI   C5A12847   8.615   2.241   7.293  0.1472  0.0283 -0.2213
  845loPI   C6A12848   8.971   2.365   7.492  0.0397  0.0423 -0.0634
  845loPI   C1B12849   7.823   1.474   5.674  0.0590 -0.0567 -0.1542
  845loPI   C2B12850   7.615   1.158   5.732  0.2746 -0.0332 -0.5399
  845loPI   C3B12851   7.308   1.097   5.948  0.1792  0.1794  0.4244
  845loPI   C4B12852   6.934   1.320   6.013 -0.2040 -0.1265 -0.1965
  846loPI    C112853   7.484  12.094   4.500 -0.1551 -0.0464  0.0463
  846loPI    C212854   7.540  11.816   4.217 -0.2058 -0.0558  0.0454
  846loPI    C312855   7.635  12.198   4.144  0.1347 -0.1184  0.1456
  846loPI   PO412856   7.639  12.015   4.789  0.0170 -0.2283 -0.0885
  846loPI   GL112857   7.962  11.654   4.976  0.1050 -0.0057  0.0316
  846loPI   GL212858   7.814  11.359   5.064 -0.0887  0.3396 -0.1762
  846loPI   C1A12859   7.700  11.747   5.359 -0.2085  0.0223  0.1921
  846loPI   C2A12860   7.822  11.735   5.755  0.1976  0.2673 -0.1311
  846loPI   C3A12861   7.915  11.719   6.202  0.2725  0.0157  0.0063
  846loPI   C4A12862   7.765  11.757   6.623 -0.0835 -0.0581  0.0871
  846loPI   C5A12863   7.612  11.874   6.999 -0.0634  0.2574 -0.0528
  846loPI   C6A12864   7.266  11.862   7.326  0.1350  0.1193 -0.0506
  846loPI   C1B12865   8.097  11.419   5.427  0.1848  0.1372 -0.2658
  846loPI   C2B12866   8.153  11.393   5.889 -0.0658 -0.2055 -0.2185
  846loPI   C3B12867   8.192  11.351   6.370 -0.3128  0.1502 -0.2871
  846loPI   C4B12868   8.301  10.922   6.715  0.2337 -0.1077  0.1173
  847loPI    C112869  18.645   1.065   4.629 -0.1475 -0.0241  0.1405
  847loPI    C212870  18.668   1.412   4.430  0.2690  0.0613  0.3270
  847loPI    C312871  18.741   1.067   4.241 -0.2237  0.0620  0.1216
  847loPI   PO412872  18.566   1.283   4.907  0.0489  0.2536  0.1451
  847loPI   GL112873  18.526   1.462   5.222  0.1201 -0.0841 -0.4300
  847loPI   GL212874  18.803   1.576   5.286 -0.0049 -0.1191 -0.0393
  847loPI   C1A12875  18.694   1.336   5.715  0.0048  0.2797 -0.3547
  847loPI   C2A12876  18.829   1.463   6.026  0.3420  0.0604  0.2477
  847loPI   C3A12877  19.076   1.660   6.485 -0.1850  0.2330  0.2040
  847loPI   C4A12878  19.127   1.773   6.896 -0.0319 -0.1942 -0.0855
  847loPI   C5A12879  19.039   1.749   7.334 -0.1333 -0.3617  0.0700
  847loPI   C6A12880  19.138   1.519   7.661 -0.0745  0.0387 -0.5847
  847loPI   C1B12881  18.948   1.796   5.683 -0.0509 -0.1483 -0.0665
  847loPI   C2B12882  18.828   1.994   6.060  0.3153 -0.0042  0.0738
  847loPI   C3B12883  18.820   2.090   6.509  0.2050 -0.2403  0.1152
  847loPI   C4B12884  18.669   2.221   6.916 -0.2375 -0.1335 -0.2434
  848loPI    C112885   1.869  12.851   5.031  0.1473 -0.0718 -0.0317
  848loPI    C212886   1.939  12.524   4.811 -0.1800 -0.1399 -0.0390
  848loPI    C312887   2.128  12.574   5.160 -0.0905 -0.3121 -0.0618
  848loPI   PO412888   1.593  12.869   5.065 -0.0377 -0.3876 -0.0916
  848loPI   GL112889   1.489  12.806   5.510  0.0646  0.2203 -0.1330
  848loPI   GL212890   1.390  13.112   5.480  0.0414  0.0496  0.3760
  848loPI   C1A12891   1.321  12.356   5.797  0.0419  0.0220  0.1495
  848loPI   C2A12892   1.369  12.280   6.164  0.3345 -0.1109  0.1217
  848loPI   C3A12893   1.433  12.151   6.609  0.1783  0.0436 -0.1821
  848loPI   C4A12894   1.165  11.942   6.901 -0.1996 -0.2840 -0.0007
  848loPI   C5A12895   1.189  12.018   7.315  0.2071  0.0380  0.0842
  848loPI   C6A12896   0.766  12.033   7.633 -0.0610 -0.0844 -0.1026
  848loPI   C1B12897   1.524  13.178   5.872  0.1684  0.2923  0.3224
  848loPI   C2B12898   1.535  13.136   6.306 -0.2195 -0.1745 -0.0227
  848loPI   C3B12899   1.266  13.003   6.691 -0.0586  0.1624 -0.0319
  848loPI   C4B12900   1.076  12.829   7.109  0.0644  0.5835 -0.0404
  849loPI    C112901   0.684  12.690   5.276  0.0033 -0.0812 -0.1215
  849loPI    C212902   0.381  12.520   5.079 -0.1879  0.2439 -0.1136
  849loPI    C312903   0.525  12.873   4.958  0.0528  0.1881  0.0059
  849loPI   PO412904   0.646  12.673   5.551  0.0631  0.0185 -0.0248
  849loPI   GL112905   0.781  12.503   5.918 -0.0533  0.1633  0.0187
  849loPI   GL212906   0.836  12.141   5.991  0.0470 -0.0237 -0.1321
  849loPI   C1A12907   0.708  12.819   6.247  0.2753 -0.1132  0.2410
  849loPI   C2A12908   0.756  13.167   6.502 -0.1836 -0.0431 -0.0000
  849loPI   C3A12909   0.806  13.389   6.796 -0.3021  0.0092  0.0179
  849loPI   C4A12910   1.147  13.388   6.977  0.0940  0.0453  0.0536
  849loPI   C5A12911   1.533  13.430   7.165 -0.1331  0.0256  0.3322
  849loPI   C6A12912   1.666  13.286   7.510  0.3141  0.2126  0.1249
  849loPI   C1B12913   0.798  12.232   6.369  0.0889 -0.0129  0.3980
  849loPI   C2B12914   0.593  12.368   6.681 -0.0087  0.0059 -0.1420
  849loPI   C3B12915   0.629  12.751   6.851 -0.1213  0.0272  0.0081
  849loPI   C4B12916   0.654  12.939   7.285 -0.2091 -0.0513  0.0968
  850loPI    C112917  12.669  17.295   5.022 -0.0017  0.1167 -0.0130
  850loPI    C212918  12.825  17.545   4.752 -0.0406  0.2011  0.0421
  850loPI    C312919  12.607  17.232   4.632  0.1064  0.1260 -0.0320
  850loPI   PO412920  12.838  17.257   5.214  0.1390  0.0774  0.1839
  850loPI   GL112921  12.914  17.370   5.535 -0.0934  0.1258 -0.2106
  850loPI   GL212922  12.662  17.482   5.677 -0.1079 -0.1383 -0.0371
  850loPI   C1A12923  13.154  17.225   5.907 -0.3522 -0.0702 -0.1502
  850loPI   C2A12924  13.150  17.382   6.310  0.1025  0.3905 -0.1150
  850loPI   C3A12925  13.184  17.346   6.709  0.2090  0.2041  0.1025
  850loPI   C4A12926  12.786  17.435   6.916  0.1531 -0.1809 -0.0553
  850loPI   C5A12927  12.417  17.372   7.091  0.0513 -0.0752 -0.2545
  850loPI   C6A12928  12.004  17.509   7.144 -0.3120  0.1277  0.3315
  850loPI   C1B12929  12.609  17.516   6.139  0.2553  0.3218  0.2315
  850loPI   C2B12930  12.412  17.455   6.529 -0.1052  0.1350  0.0670
  850loPI   C3B12931  12.041  17.573   6.646  0.0192 -0.2330 -0.0590
  850loPI   C4B12932  11.708  17.845   6.873 -0.1969  0.4822  0.0162
  851loPI    C112933  17.857   4.223   4.478  0.1911  0.1185 -0.4251
  851loPI    C212934  17.507   4.388   4.377  0.0361 -0.0653 -0.1979
  851loPI    C312935  17.588   4.010   4.272  0.0849 -0.0877 -0.0819
  851loPI   PO412936  17.910   4.255   4.681  0.2994  0.0074  0.1963
  851loPI   GL112937  17.933   4.182   5.080  0.0754 -0.1239  0.0263
  851loPI   GL212938  17.742   3.962   5.257 -0.0864 -0.0165 -0.1051
  851loPI   C1A12939  18.100   4.192   5.534 -0.4670 -0.3337 -0.0304
  851loPI   C2A12940  18.425   4.207   5.906  0.1337  0.0493 -0.0825
  851loPI   C3A12941  18.616   4.310   6.183 -0.1025 -0.0529 -0.1845
  851loPI   C4A12942  18.633   4.285   6.568  0.0263 -0.0924 -0.0739
  851loPI   C5A12943  18.364   4.399   6.853  0.2749 -0.0493 -0.1227
  851loPI   C6A12944  18.476   4.495   7.216  0.1213 -0.0427  0.0964
  851loPI   C1B12945  17.649   3.880   5.645 -0.0614  0.0564  0.0825
  851loPI   C2B12946  17.543   3.724   6.110  0.0429 -0.2469  0.0641
  851loPI   C3B12947  17.306   3.959   6.508 -0.1867  0.0829 -0.1814
  851loPI   C4B12948  17.086   4.148   6.936 -0.1441 -0.0238 -0.0942
  852loPI    C112949   8.638   9.594   4.594 -0.1832  0.0002 -0.1622
  852loPI    C212950   8.490   9.313   4.837 -0.0206 -0.0857 -0.1610
  852loPI    C312951   8.328   9.371   4.476 -0.2881  0.0688 -0.0193
  852loPI   PO412952   8.684   9.808   4.778 -0.0759  0.0050  0.0671
  852loPI   GL112953   8.497   9.705   5.221 -0.2205  0.0300  0.0883
  852loPI   GL212954   8.644  10.074   5.244 -0.2221 -0.1458  0.3154
  852loPI   C1A12955   8.456   9.588   5.639  0.0610 -0.0056 -0.3050
  852loPI   C2A12956   8.520   9.492   6.197 -0.0425 -0.1662  0.1477
  852loPI   C3A12957   8.484   9.145   6.609  0.0665  0.1339  0.3302
  852loPI   C4A12958   8.399   8.757   6.781  0.2157 -0.0073 -0.0387
  852loPI   C5A12959   8.434   8.311   6.939  0.2466 -0.1628  0.0283
  852loPI   C6A12960   8.775   8.143   7.145  0.2168 -0.1928 -0.1158
  852loPI   C1B12961   8.839  10.212   5.570  0.2000 -0.3471 -0.1487
  852loPI   C2B12962   8.908  10.438   5.883 -0.1900  0.1157 -0.1774
  852loPI   C3B12963   9.057  10.615   6.348  0.0102 -0.0633 -0.0725
  852loPI   C4B12964   9.199  10.328   6.679 -0.0130 -0.2116  0.1926
  853loPI    C112965   1.213   1.633   4.783  0.1595 -0.0052 -0.1632
  853loPI    C212966   1.102   1.273   4.649  0.2643 -0.0971 -0.0070
  853loPI    C312967   1.230   1.552   4.392  0.0931 -0.1383 -0.1391
  853loPI   PO412968   1.340   1.588   4.980 -0.1896 -0.0712 -0.0018
  853loPI   GL112969   1.247   1.508   5.418  0.0483  0.1633  0.2378
  853loPI   GL212970   1.505   1.194   5.318  0.2406  0.0542  0.1388
  853loPI   C1A12971   1.084   1.532   5.867  0.3140  0.0700 -0.0991
  853loPI   C2A12972   1.346   1.434   6.270  0.1376  0.2593  0.1748
  853loPI   C3A12973   1.274   1.343   6.662 -0.2646 -0.2408 -0.0669
  853loPI   C4A12974   1.547   1.276   7.008  0.0797  0.1925 -0.1711
  853loPI   C5A12975   1.692   0.937   7.273 -0.1207 -0.2919 -0.1980
  853loPI   C6A12976   1.754   0.495   7.022  0.1814  0.0784 -0.1045
  853loPI   C1B12977   1.560   1.307   5.762 -0.0074  0.1010  0.1111
  853loPI   C2B12978   1.822   1.425   6.131 -0.1722  0.2554  0.1037
  853loPI   C3B12979   1.831   1.456   6.588 -0.1319 -0.0148  0.3689
  853loPI   C4B12980   1.962   1.484   7.040 -0.3834  0.0630  0.0392
  854loPI    C112981   3.373  14.281   5.081  0.2714 -0.0416  0.0335
  854loPI    C212982   3.548  14.484   4.784  0.0321  0.1051 -0.0101
  854loPI    C312983   3.245  14.236   4.705  0.1084 -0.0203  0.0860
  854loPI   PO412984   3.552  14.201   5.238  0.0160  0.1922 -0.3563
  854loPI   GL112985   3.436  13.876   5.569  0.3054 -0.2304 -0.2549
  854loPI   GL212986   3.634  14.056   5.695  0.2350 -0.2985  0.2188
  854loPI   C1A12987   3.074  13.537   5.789 -0.1419 -0.1654 -0.0019
  854loPI   C2A12988   3.024  13.488   6.251  0.3471  0.0663  0.4014
  854loPI   C3A12989   2.947  13.266   6.555  0.2688  0.1773  0.0916
  854loPI   C4A12990   3.070  13.197   6.922  0.0997  0.0889 -0.2597
  854loPI   C5A12991   3.066  13.012   7.297  0.2908  0.0555 -0.2231
  854loPI   C6A12992   2.772  13.027   7.607  0.0631 -0.2095  0.1962
  854loPI   C1B12993   3.458  13.721   6.076 -0.2295  0.1074  0.0634
  854loPI   C2B12994   3.453  13.482   6.462 -0.2812  0.0373 -0.1025
  854loPI   C3B12995   3.780  13.106   6.464  0.0635 -0.0174  0.0074
  854loPI   C4B12996   4.085  12.746   6.503 -0.1804 -0.0312  0.1100
  855loPI    C112997  19.171   2.731   4.849 -0.0709  0.1769 -0.1332
  855loPI    C212998  18.887   2.456   4.914 -0.0257  0.1551 -0.0251
  855loPI    C312999  18.883   2.673   4.577  0.0018 -0.0554 -0.1630
  855loPI   PO413000  19.324   2.782   5.014  0.0251  0.2562 -0.0052
  855loPI   GL113001  19.590   2.711   5.232 -0.3337 -0.0517 -0.0169
  855loPI   GL213002  19.372   2.772   5.487 -0.1566  0.1830 -0.0520
  855loPI   C1A13003  19.856   2.762   5.630 -0.2146  0.0010  0.1745
  855loPI   C2A13004  19.859   2.958   6.052 -0.1990 -0.4677 -0.1581
  855loPI   C3A13005  19.770   2.730   6.409 -0.2085 -0.0821  0.2900
  855loPI   C4A13006  19.486   2.711   6.715  0.1663 -0.1672 -0.2364
  855loPI   C5A13007  19.094   2.618   6.742  0.2578  0.0938  0.1070
  855loPI   C6A13008  18.691   2.660   7.070  0.3146 -0.0959 -0.0491
  855loPI   C1B13009  19.418   2.680   5.916 -0.3886 -0.0599  0.2339
  855loPI   C2B13010  19.224   2.455   6.282  0.3243 -0.0120 -0.1491
  855loPI   C3B13011  19.367   2.227   6.654  0.1131 -0.0088  0.0504
  855loPI   C4B13012  19.152   2.226   7.036  0.0213 -0.2447 -0.1954
  856loPI    C113013   9.567   1.723   4.653  0.0084  0.1768  0.0448
  856loPI    C213014   9.682   1.868   4.298 -0.1821  0.1540 -0.0276
  856loPI    C313015   9.418   1.569   4.315  0.2053 -0.1893  0.1201
  856loPI   PO413016   9.527   1.998   4.937 -0.1100 -0.1960  0.2058
  856loPI   GL113017   9.631   1.978   5.305 -0.0612  0.0328  0.1360
  856loPI   GL213018   9.451   2.252   5.331  0.1435 -0.2065 -0.0170
  856loPI   C1A13019   9.650   1.971   5.752  0.2047  0.1363 -0.0132
  856loPI   C2A13020   9.936   1.887   6.080  0.0307 -0.0234 -0.1411
  856loPI   C3A13021   9.821   1.904   6.531 -0.2402 -0.1031 -0.1537
  856loPI   C4A13022   9.694   1.969   6.970 -0.2680 -0.0884 -0.1413
  856loPI   C5A13023  10.004   1.991   7.383  0.0522  0.1522  0.0356
  856loPI   C6A13024  10.316   1.637   7.553  0.1354  0.1331  0.3101
  856loPI   C1B13025   9.376   2.367   5.735  0.0665  0.0335  0.1109
  856loPI   C2B13026   9.481   2.188   6.232 -0.0917  0.0812  0.3084
  856loPI   C3B13027   9.580   2.410   6.603 -0.1371 -0.2565  0.1259
  856loPI   C4B13028   9.468   2.435   7.037 -0.1914  0.2110  0.1314
  857loPI    C113029   2.626  17.195   4.720  0.1759  0.2537  0.0822
  857loPI    C213030   2.480  17.528   4.554 -0.1558  0.0084 -0.1323
  857loPI    C313031   2.776  17.328   4.374  0.0418  0.1808 -0.0047
  857loPI   PO413032   2.631  17.254   5.033  0.1764 -0.0122  0.0115
  857loPI   GL113033   2.667  17.422   5.393 -0.0019  0.1175 -0.2180
  857loPI   GL213034   2.552  17.695   5.414  0.1664  0.0626  0.0648
  857loPI   C1A13035   2.808  17.141   5.705  0.4299  0.1577 -0.1368
  857loPI   C2A13036   2.607  17.187   6.130 -0.0749  0.0001 -0.2542
  857loPI   C3A13037   2.401  17.106   6.456 -0.1376  0.1076 -0.1424
  857loPI   C4A13038   2.327  17.032   6.886  0.0578 -0.0311  0.0269
  857loPI   C5A13039   2.204  16.631   7.131 -0.1598  0.1956 -0.2665
  857loPI   C6A13040   1.929  16.468   7.422 -0.3858  0.1566  0.1732
  857loPI   C1B13041   2.632  17.674   5.891  0.1292 -0.0775 -0.1260
  857loPI   C2B13042   2.815  17.618   6.282  0.1979  0.0205 -0.0266
  857loPI   C3B13043   2.770  17.395   6.644 -0.0810 -0.1682 -0.1161
  857loPI   C4B13044   2.742  17.415   7.021 -0.1331 -0.1965  0.5505
  858loPI    C113045   6.320  18.221   4.943  0.1822  0.1488  0.1806
  858loPI    C213046   6.633  18.006   4.817  0.1852  0.1943  0.1097
  858loPI    C313047   6.607  18.394   4.725 -0.0524  0.1181 -0.1603
  858loPI   PO413048   6.299  18.262   5.260 -0.2089 -0.0310  0.2785
  858loPI   GL113049   6.087  18.585   5.545 -0.1273  0.0628  0.0980
  858loPI   GL213050   5.755  18.400   5.549  0.0657  0.2492 -0.1222
  858loPI   C1A13051   6.108  18.593   5.984 -0.2285  0.0905 -0.0185
  858loPI   C2A13052   6.112  18.518   6.405 -0.1594 -0.0033 -0.0236
  858loPI   C3A13053   6.050  18.392   6.826 -0.1542 -0.2922 -0.2363
  858loPI   C4A13054   6.069  18.005   6.961  0.4023  0.1884  0.1329
  858loPI   C5A13055   6.121  17.579   7.082 -0.1291 -0.0830  0.0045
  858loPI   C6A13056   6.469  17.358   6.892  0.2662  0.1290  0.0523
  858loPI   C1B13057   5.570  18.536   5.914 -0.0147  0.2520 -0.0637
  858loPI   C2B13058   5.474  18.561   6.373  0.0379 -0.0098 -0.3209
  858loPI   C3B13059   5.239  18.657   6.844 -0.3749  0.0465 -0.0339
  858loPI   C4B13060   5.281  18.457   7.278 -0.0316 -0.3948  0.1578
  859loPI    C113061   3.529  12.037   4.683  0.1098 -0.2887 -0.0594
  859loPI    C213062   3.339  11.704   4.568 -0.1998 -0.1083 -0.0831
  859loPI    C313063   3.132  12.039   4.636  0.0853  0.0298  0.1304
  859loPI   PO413064   3.670  11.968   4.975  0.1532  0.1003 -0.0623
  859loPI   GL113065   3.724  12.101   5.371  0.0122  0.2004  0.1207
  859loPI   GL213066   4.045  11.856   5.342  0.2005 -0.4487 -0.0141
  859loPI   C1A13067   3.733  11.774   5.725 -0.0897  0.4556  0.0162
  859loPI   C2A13068   3.753  11.658   6.227 -0.1287  0.0778 -0.0805
  859loPI   C3A13069   3.682  11.328   6.507  0.1123  0.0500  0.0045
  859loPI   C4A13070   3.331  11.424   6.900  0.1436  0.3837  0.2432
  859loPI   C5A13071   3.225  11.744   7.075 -0.1517  0.0192 -0.2853
  859loPI   C6A13072   3.045  12.126   7.194 -0.2940 -0.1223 -0.0068
  859loPI   C1B13073   4.125  12.223   5.625 -0.0963 -0.2230 -0.2124
  859loPI   C2B13074   4.385  12.576   5.863  0.3768  0.1193  0.1191
  859loPI   C3B13075   4.590  12.842   6.021 -0.1234  0.0478 -0.1173
  859loPI   C4B13076   4.727  13.074   6.478 -0.1256  0.0736 -0.0973
  860loPI    C113077   4.005   5.881   5.054 -0.2508 -0.2414 -0.4122
  860loPI    C213078   3.653   6.030   5.171 -0.0929 -0.0639 -0.1535
  860loPI    C313079   3.858   6.210   4.879 -0.0007  0.1077  0.0151
  860loPI   PO413080   4.042   5.665   5.058 -0.2102 -0.0652 -0.1264
  860loPI   GL113081   4.157   5.493   5.518  0.0473 -0.1533 -0.0430
  860loPI   GL213082   3.758   5.624   5.501 -0.3901 -0.2514 -0.1450
  860loPI   C1A13083   4.157   5.286   5.915  0.0539 -0.1787  0.0878
  860loPI   C2A13084   4.087   5.416   6.303  0.4031 -0.1236 -0.1657
  860loPI   C3A13085   4.137   5.653   6.779 -0.3614 -0.0455  0.2908
  860loPI   C4A13086   4.181   5.492   7.228  0.3078 -0.0216 -0.0316
  860loPI   C5A13087   4.182   5.060   7.457 -0.1621  0.0648  0.1128
  860loPI   C6A13088   3.870   4.676   7.583 -0.1140  0.2321 -0.0390
  860loPI   C1B13089   3.819   5.666   5.872 -0.2564 -0.1930 -0.1786
  860loPI   C2B13090   3.779   5.823   6.212 -0.0407 -0.2350 -0.0263
  860loPI   C3B13091   3.696   5.823   6.730  0.3607 -0.0090  0.1495
  860loPI   C4B13092   3.699   5.581   7.145  0.0845  0.1209  0.2572
  861loPI    C113093   7.962  13.917   4.762  0.1752  0.4127 -0.2381
  861loPI    C213094   8.295  13.754   4.913 -0.1098 -0.0636 -0.1052
  861loPI    C313095   8.238  13.761   4.517 -0.0323 -0.1660 -0.1188
  861loPI   PO413096   7.909  14.068   5.028  0.1044  0.0722  0.0023
  861loPI   GL113097   7.800  14.100   5.469  0.2438 -0.1172 -0.3354
  861loPI   GL213098   7.912  13.845   5.496 -0.1254 -0.3317  0.1582
  861loPI   C1A13099   7.893  14.221   5.941  0.2136 -0.0197 -0.1212
  861loPI   C2A13100   8.005  14.075   6.385  0.0729 -0.0928  0.2025
  861loPI   C3A13101   8.012  14.075   6.832 -0.0213  0.1242  0.1915
  861loPI   C4A13102   8.030  14.159   7.309 -0.0698  0.2207  0.0237
  861loPI   C5A13103   7.747  14.005   7.663 -0.0714  0.0725 -0.1687
  861loPI   C6A13104   7.302  13.702   7.872  0.1399  0.0215  0.2696
  861loPI   C1B13105   7.997  13.609   5.855 -0.1505  0.1759  0.1638
  861loPI   C2B13106   8.154  13.576   6.243  0.0706  0.1987  0.0812
  861loPI   C3B13107   8.263  13.575   6.722 -0.1074 -0.4914 -0.3350
  861loPI   C4B13108   8.454  13.581   7.104 -0.3162 -0.5022 -0.1365
  862loPI    C113109  16.403  11.934   5.005 -0.0649  0.0334 -0.0442
  862loPI    C213110  16.649  12.157   4.782  0.1633 -0.0584  0.1120
  862loPI    C313111  16.279  12.079   4.654  0.0440  0.4878  0.0978
  862loPI   PO413112  16.446  12.057   5.234 -0.0897 -0.2936 -0.2022
  862loPI   GL113113  16.599  12.137   5.658 -0.1957 -0.0556  0.1139
  862loPI   GL213114  16.915  12.177   5.798 -0.0960  0.2217  0.0035
  862loPI   C1A13115  16.504  11.926   5.904 -0.0717  0.0498  0.0863
  862loPI   C2A13116  16.390  11.794   6.352  0.1772 -0.2235 -0.0573
  862loPI   C3A13117  16.427  11.727   6.785 -0.1031  0.1745  0.2162
  862loPI   C4A13118  16.596  11.592   7.194  0.0282  0.1390 -0.0482
  862loPI   C5A13119  16.792  11.322   7.494  0.0618  0.0727 -0.4117
  862loPI   C6A13120  16.465  10.997   7.431  0.0192 -0.2447  0.1879
  862loPI   C1B13121  16.737  12.161   6.270  0.0799 -0.3883 -0.3861
  862loPI   C2B13122  16.569  12.222   6.660 -0.0634  0.0472  0.0700
  862loPI   C3B13123  16.422  12.121   7.074  0.0421 -0.1049  0.0380
  862loPI   C4B13124  16.429  12.053   7.549  0.0781 -0.2473 -0.2565
  863loPI    C113125  17.766   6.002   4.831 -0.0478 -0.0732 -0.0307
  863loPI    C213126  17.735   6.173   4.471 -0.1372 -0.0394 -0.0071
  863loPI    C313127  17.992   5.872   4.528 -0.2336 -0.1478 -0.1386
  863loPI   PO413128  17.509   6.109   4.962  0.1011  0.2571 -0.4257
  863loPI   GL113129  17.375   6.050   5.336 -0.2336  0.3134  0.0841
  863loPI   GL213130  17.692   6.216   5.422 -0.1078  0.2270  0.2038
  863loPI   C1A13131  17.118   5.792   5.702  0.0317  0.5836 -0.1117
  863loPI   C2A13132  17.211   5.657   6.053  0.0320  0.4388 -0.0453
  863loPI   C3A13133  17.189   5.656   6.520  0.0165  0.0666  0.0215
  863loPI   C4A13134  17.184   5.598   6.908 -0.0355 -0.0489 -0.4270
  863loPI   C5A13135  17.329   5.639   7.364  0.0290  0.0947  0.2494
  863loPI   C6A13136  17.651   5.554   7.635 -0.0222 -0.3374 -0.0360
  863loPI   C1B13137  17.482   6.065   5.844 -0.2913 -0.1521  0.0158
  863loPI   C2B13138  17.368   6.105   6.302 -0.1260  0.0667  0.3428
  863loPI   C3B13139  17.135   6.161   6.593  0.1294  0.0079  0.0009
  863loPI   C4B13140  16.717   6.372   6.749 -0.1612  0.0513  0.0214
  864loPI    C113141   9.821   5.273   4.671 -0.1701 -0.0960 -0.3366
  864loPI    C213142  10.137   5.056   4.555 -0.0226 -0.1453  0.1345
  864loPI    C313143  10.062   5.409   4.382  0.1330 -0.2548 -0.1642
  864loPI   PO413144   9.777   5.172   4.936  0.2207  0.1711 -0.4086
  864loPI   GL113145   9.748   5.338   5.312  0.0842 -0.2506 -0.0857
  864loPI   GL213146   9.884   5.015   5.445 -0.2236  0.2254 -0.0280
  864loPI   C1A13147   9.944   5.751   5.560 -0.1726 -0.0551  0.2060
  864loPI   C2A13148  10.037   6.011   5.865 -0.0533  0.1486  0.3429
  864loPI   C3A13149   9.883   6.183   6.307  0.1372  0.0682 -0.2108
  864loPI   C4A13150   9.575   6.509   6.597 -0.1218  0.0741  0.2334
  864loPI   C5A13151   9.669   6.748   6.929 -0.0830  0.1041 -0.0572
  864loPI   C6A13152   9.660   7.162   7.215 -0.2224 -0.3211  0.0521
  864loPI   C1B13153   9.739   5.213   5.822 -0.0138 -0.1596  0.1722
  864loPI   C2B13154   9.741   5.573   6.000  0.2008  0.0858  0.2183
  864loPI   C3B13155   9.674   5.756   6.370  0.0222  0.0211 -0.1556
  864loPI   C4B13156   9.633   6.026   6.701 -0.1365 -0.2613  0.1916
  865loPI    C113157  15.782   1.917   4.751  0.1284 -0.3995 -0.0648
  865loPI    C213158  16.077   1.825   4.498  0.0882 -0.1988 -0.1867
  865loPI    C313159  15.709   1.897   4.358  0.0781 -0.0339 -0.0783
  865loPI   PO413160  15.856   2.113   4.915  0.1904 -0.0153  0.2521
  865loPI   GL113161  15.934   1.947   5.369 -0.1845  0.0817  0.1021
  865loPI   GL213162  16.096   2.201   5.336 -0.1519  0.2194 -0.2713
  865loPI   C1A13163  15.988   1.782   5.799  0.3969 -0.0708 -0.2106
  865loPI   C2A13164  16.074   1.843   6.245  0.2538 -0.2894  0.1254
  865loPI   C3A13165  16.171   1.493   6.574  0.1070  0.0843 -0.0230
  865loPI   C4A13166  16.083   1.311   6.983 -0.4040 -0.0252  0.4886
  865loPI   C5A13167  15.619   1.144   7.157 -0.1804 -0.1310 -0.1367
  865loPI   C6A13168  15.366   1.272   7.474  0.3608  0.0613 -0.3086
  865loPI   C1B13169  15.780   2.216   5.729 -0.1111 -0.3858  0.4467
  865loPI   C2B13170  15.504   1.924   6.042 -0.0751  0.5251 -0.2856
  865loPI   C3B13171  15.307   1.574   6.299  0.1050  0.0405 -0.3009
  865loPI   C4B13172  15.153   1.327   6.587 -0.1346 -0.1032  0.0137
  866loPI    C113173   2.795   0.389   4.832 -0.2565 -0.1333 -0.3060
  866loPI    C213174   3.041   0.558   4.566  0.0155 -0.2440 -0.1284
  866loPI    C313175   2.647   0.622   4.542  0.0596 -0.0615 -0.4131
  866loPI   PO413176   2.921   0.103   4.778  0.0459 -0.0161 -0.0185
  866loPI   GL113177   2.952  -0.167   5.224  0.2032  0.0518 -0.1669
  866loPI   GL213178   2.619  -0.014   5.206  0.1438 -0.0354  0.0493
  866loPI   C1A13179   2.564  -0.340   5.585 -0.0374  0.1572  0.2111
  866loPI   C2A13180   2.508  -0.695   5.957  0.0297  0.1906  0.1935
  866loPI   C3A13181   2.480  -0.675   6.357 -0.1473  0.0665 -0.0631
  866loPI   C4A13182   2.408  -0.948   6.709  0.1952 -0.1398  0.0344
  866loPI   C5A13183   2.416  -1.361   6.816 -0.1427  0.0127  0.0809
  866loPI   C6A13184   2.081  -1.685   6.728  0.0822 -0.0703 -0.2963
  866loPI   C1B13185   2.802   0.121   5.608  0.0822 -0.1435 -0.0179
  866loPI   C2B13186   2.767   0.205   6.132  0.0646 -0.0663 -0.1284
  866loPI   C3B13187   2.786   0.202   6.607 -0.0626 -0.3108 -0.4326
  866loPI   C4B13188   2.626   0.145   7.048  0.0155  0.1811 -0.1437
  867loPI    C113189   8.695   3.799   4.900  0.0748  0.1110  0.0431
  867loPI    C213190   8.782   3.885   4.519  0.0885  0.0143  0.0240
  867loPI    C313191   8.586   3.548   4.608 -0.1885  0.1855  0.0751
  867loPI   PO413192   8.975   3.955   5.096  0.2330 -0.0257  0.3892
  867loPI   GL113193   9.213   4.074   5.476  0.1732  0.2055  0.2594
  867loPI   GL213194   9.262   4.363   5.613 -0.0174  0.1193 -0.2529
  867loPI   C1A13195   9.082   3.716   5.719 -0.1795  0.1095  0.0789
  867loPI   C2A13196   9.045   3.527   6.119 -0.1378 -0.2322 -0.1131
  867loPI   C3A13197   9.077   3.406   6.540 -0.2142  0.1704 -0.1149
  867loPI   C4A13198   9.025   3.298   6.862  0.1781  0.0551  0.0920
  867loPI   C5A13199   9.268   3.513   7.162 -0.2696  0.2768 -0.3122
  867loPI   C6A13200   9.224   3.833   7.450  0.2400  0.3412  0.0284
  867loPI   C1B13201   9.281   4.605   5.953  0.2760  0.1006  0.3088
  867loPI   C2B13202   9.186   4.573   6.393 -0.1554 -0.1346 -0.1084
  867loPI   C3B13203   8.954   4.320   6.815 -0.2086 -0.0047 -0.0395
  867loPI   C4B13204   9.192   3.981   7.010  0.0033 -0.3655 -0.2993
  868loPI    C113205   9.663   7.299   4.562 -0.1949  0.0848  0.0926
  868loPI    C213206   9.590   7.002   4.304 -0.0362 -0.1292  0.2904
  868loPI    C313207   9.671   7.369   4.168  0.0177 -0.2329  0.0369
  868loPI   PO413208   9.611   7.140   4.861 -0.0190  0.0244 -0.1132
  868loPI   GL113209   9.173   7.206   5.063 -0.3428 -0.1276 -0.0315
  868loPI   GL213210   8.907   6.998   5.139  0.1475  0.0074 -0.1967
  868loPI   C1A13211   9.353   7.064   5.417  0.1635 -0.1454 -0.0124
  868loPI   C2A13212   9.300   6.699   5.689  0.0722  0.1706  0.2396
  868loPI   C3A13213   9.087   6.319   5.708  0.0051  0.2312 -0.1290
  868loPI   C4A13214   8.850   6.079   6.006  0.1244  0.0327 -0.2055
  868loPI   C5A13215   8.743   6.112   6.353 -0.3485 -0.0758 -0.0592
  868loPI   C6A13216   8.679   6.006   6.830 -0.1536 -0.2007 -0.1573
  868loPI   C1B13217   8.834   6.844   5.560 -0.2845 -0.1395  0.2615
  868loPI   C2B13218   8.638   6.531   5.939 -0.3363 -0.0808  0.1842
  868loPI   C3B13219   8.406   6.540   6.235 -0.0456 -0.0853  0.0002
  868loPI   C4B13220   8.436   6.384   6.624  0.1241 -0.5827  0.0305
  869loPI    C113221   3.575   8.674   5.224 -0.1045  0.0916 -0.0497
  869loPI    C213222   3.752   8.484   4.920 -0.0412  0.3061 -0.1495
  869loPI    C313223   3.940   8.518   5.271 -0.1451 -0.0072 -0.0594
  869loPI   PO413224   3.355   8.509   5.331  0.0762  0.3287 -0.0528
  869loPI   GL113225   3.086   8.515   5.565 -0.0537 -0.1297 -0.7245
  869loPI   GL213226   3.231   8.831   5.772  0.3314  0.3073  0.0008
  869loPI   C1A13227   2.978   8.150   5.887 -0.0973  0.1043 -0.0702
  869loPI   C2A13228   3.305   8.069   6.287 -0.3998  0.0243  0.2583
  869loPI   C3A13229   3.376   8.075   6.790 -0.1147 -0.1039 -0.1587
  869loPI   C4A13230   3.492   8.115   7.290 -0.0206  0.0423 -0.1372
  869loPI   C5A13231   3.853   7.943   7.636 -0.3414 -0.1165 -0.0816
  869loPI   C6A13232   4.148   7.903   7.965 -0.1451 -0.1586  0.0516
  869loPI   C1B13233   3.233   8.656   6.214  0.2520  0.1253  0.0977
  869loPI   C2B13234   3.083   8.466   6.637 -0.2457  0.1866 -0.0962
  869loPI   C3B13235   2.883   8.769   6.857  0.0074 -0.0314 -0.2350
  869loPI   C4B13236   2.954   9.171   6.965 -0.1487  0.2169  0.3111
  870loPI    C113237  15.538   7.063   4.993  0.1648 -0.0103 -0.1993
  870loPI    C213238  15.257   7.063   4.708 -0.0030  0.2253 -0.0369
  870loPI    C313239  15.520   6.762   4.729 -0.1840  0.0486 -0.2471
  870loPI   PO413240  15.451   7.092   5.193 -0.2555 -0.2449  0.1165
  870loPI   GL113241  15.313   7.370   5.443 -0.0784  0.2429  0.0656
  870loPI   GL213242  15.180   7.515   5.470  0.5859  0.0030  0.2524
  870loPI   C1A13243  15.157   7.182   5.795 -0.1759  0.3481 -0.4369
  870loPI   C2A13244  15.035   7.136   6.148 -0.1321 -0.2143 -0.3031
  870loPI   C3A13245  15.053   6.948   6.559  0.3119 -0.0818  0.1331
  870loPI   C4A13246  15.149   6.810   6.930 -0.2375 -0.2023 -0.1792
  870loPI   C5A13247  15.084   6.636   7.275 -0.1566 -0.2391 -0.0545
  870loPI   C6A13248  14.922   6.472   7.509  0.2655 -0.2755 -0.2420
  870loPI   C1B13249  15.121   7.635   5.968 -0.1499  0.0198  0.2600
  870loPI   C2B13250  15.347   7.782   6.358  0.4075  0.0672  0.3039
  870loPI   C3B13251  15.597   7.925   6.623 -0.1207 -0.0085  0.0293
  870loPI   C4B13252  15.992   7.684   6.723 -0.0069  0.2627 -0.0401
  871loPI    C113253   2.434  11.332   5.075 -0.1190  0.0612  0.2956
  871loPI    C213254   2.044  11.367   4.992  0.0138  0.2917 -0.2754
  871loPI    C313255   2.295  11.219   4.718  0.3316  0.1348  0.0905
  871loPI   PO413256   2.462  11.566   5.176  0.0661 -0.1474  0.2674
  871loPI   GL113257   2.725  11.803   5.446 -0.1558 -0.3340 -0.2484
  871loPI   GL213258   2.735  12.123   5.525 -0.0854  0.0405 -0.3488
  871loPI   C1A13259   2.628  11.792   5.943  0.0673  0.0860  0.2170
  871loPI   C2A13260   2.801  11.730   6.355 -0.2144 -0.1133 -0.0012
  871loPI   C3A13261   2.706  11.902   6.860 -0.4828 -0.2395 -0.0138
  871loPI   C4A13262   2.679  11.812   7.312 -0.1450  0.0889  0.0248
  871loPI   C5A13263   2.671  12.162   7.620 -0.1069 -0.0742  0.1275
  871loPI   C6A13264   2.663  12.550   7.768 -0.2402  0.0576 -0.1304
  871loPI   C1B13265   2.472  12.245   5.983 -0.1193  0.0710 -0.0725
  871loPI   C2B13266   2.468  12.204   6.432 -0.4217  0.2485  0.2966
  871loPI   C3B13267   2.686  12.366   6.778  0.1353 -0.2097 -0.1689
  871loPI   C4B13268   2.710  12.490   7.234 -0.0768 -0.2257 -0.0106
  872loPI    C113269   7.236   8.878   4.582  0.0247  0.1140 -0.0991
  872loPI    C213270   7.305   8.573   4.333  0.1061  0.0292  0.0262
  872loPI    C313271   7.082   8.517   4.660  0.0305  0.1310 -0.0075
  872loPI   PO413272   7.438   8.953   4.683 -0.1455 -0.1259  0.1018
  872loPI   GL113273   7.702   8.923   5.045  0.1129  0.3150  0.0540
  872loPI   GL213274   8.004   8.704   5.029  0.1022  0.1070  0.1760
  872loPI   C1A13275   7.774   8.838   5.463 -0.1332  0.2258  0.1266
  872loPI   C2A13276   7.830   9.013   5.888  0.0315 -0.0743 -0.0174
  872loPI   C3A13277   7.986   9.268   6.275  0.1142  0.0086  0.1075
  872loPI   C4A13278   7.929   9.313   6.650  0.2932  0.0229  0.1581
  872loPI   C5A13279   8.003   8.955   6.988 -0.4603  0.1576 -0.0928
  872loPI   C6A13280   7.996   8.464   7.207  0.0899  0.0406 -0.1176
  872loPI   C1B13281   8.091   8.518   5.365 -0.1042  0.1962 -0.0738
  872loPI   C2B13282   7.992   8.516   5.815  0.0701 -0.0685 -0.0211
  872loPI   C3B13283   7.932   8.592   6.198 -0.4261 -0.5093  0.4549
  872loPI   C4B13284   8.086   8.826   6.416 -0.1557 -0.1144  0.0308
  873loPI    C113285  11.556   5.280   4.742 -0.1228  0.0432  0.0514
  873loPI    C213286  11.735   5.027   4.995 -0.0878 -0.1061 -0.1207
  873loPI    C313287  11.378   4.935   4.840 -0.0429 -0.0834 -0.2386
  873loPI   PO413288  11.595   5.532   4.886 -0.0004  0.1350 -0.0673
  873loPI   GL113289  11.651   5.882   5.145 -0.1375  0.1707  0.1754
  873loPI   GL213290  11.835   6.218   5.126  0.0667  0.2116 -0.1516
  873loPI   C1A13291  11.235   5.792   5.344 -0.2894 -0.1156 -0.2345
  873loPI   C2A13292  10.896   5.657   5.621 -0.0343 -0.0656  0.1442
  873loPI   C3A13293  10.698   5.571   5.984 -0.1211 -0.2738 -0.1121
  873loPI   C4A13294  10.684   5.708   6.442 -0.1864  0.0874  0.2540
  873loPI   C5A13295  10.485   5.684   6.868  0.3622 -0.0716  0.0214
  873loPI   C6A13296  10.534   5.663   7.267 -0.1994 -0.0148  0.5052
  873loPI   C1B13297  12.020   6.308   5.488 -0.0361 -0.2530 -0.1219
  873loPI   C2B13298  11.929   5.993   5.787  0.2477 -0.0048  0.0660
  873loPI   C3B13299  11.943   6.012   6.222 -0.3777  0.1959  0.1206
  873loPI   C4B13300  11.585   5.769   6.522  0.0846  0.3320 -0.0787
  874loPI    C113301   8.677   1.566   5.010  0.1921  0.2964  0.1461
  874loPI    C213302   8.561   1.736   4.667 -0.0130 -0.1856 -0.0317
  874loPI    C313303   8.657   1.964   4.980 -0.1920  0.2538 -0.2880
  874loPI   PO413304   8.660   1.259   5.032  0.2436  0.2493 -0.1272
  874loPI   GL113305   8.590   1.152   5.436 -0.2019 -0.1856 -0.2449
  874loPI   GL213306   8.702   1.461   5.483 -0.2675 -0.1194  0.0285
  874loPI   C1A13307   8.171   1.103   5.653  0.0302 -0.0489 -0.1656
  874loPI   C2A13308   8.029   0.897   6.077  0.3609 -0.1314  0.2214
  874loPI   C3A13309   8.006   0.786   6.508 -0.0125  0.0425  0.0273
  874loPI   C4A13310   7.757   0.759   6.856 -0.3425  0.0191  0.5917
  874loPI   C5A13311   7.510   0.935   7.247  0.1200  0.2528  0.0917
  874loPI   C6A13312   7.355   1.338   7.545 -0.3938  0.0508  0.1772
  874loPI   C1B13313   8.495   1.496   5.817  0.0463 -0.0751 -0.0319
  874loPI   C2B13314   8.217   1.585   6.013  0.1135  0.1795 -0.1018
  874loPI   C3B13315   7.872   1.446   6.173  0.2310 -0.2367  0.2921
  874loPI   C4B13316   7.652   1.124   6.420  0.0084  0.5712  0.1065
  875loPI    C113317   7.317   7.264   4.477 -0.1026 -0.0002 -0.1478
  875loPI    C213318   7.044   7.557   4.466 -0.1729 -0.0691 -0.2582
  875loPI    C313319   7.420   7.629   4.348 -0.1673  0.0000 -0.1996
  875loPI   PO413320   7.305   7.171   4.713  0.1183  0.2232 -0.0177
  875loPI   GL113321   7.342   7.137   5.093 -0.0194  0.0433 -0.0369
  875loPI   GL213322   7.674   6.944   4.929  0.2173  0.0721 -0.0266
  875loPI   C1A13323   7.159   7.366   5.429 -0.0575 -0.0185  0.4085
  875loPI   C2A13324   7.091   7.581   5.887  0.0082 -0.0093 -0.0788
  875loPI   C3A13325   6.984   7.560   6.213 -0.1185  0.0460  0.2324
  875loPI   C4A13326   7.036   7.695   6.595  0.0561  0.0239  0.0022
  875loPI   C5A13327   7.143   7.688   6.978 -0.2728 -0.2092  0.1281
  875loPI   C6A13328   7.156   7.329   7.271  0.2038  0.0055 -0.0336
  875loPI   C1B13329   7.986   6.949   5.240  0.3752 -0.1909 -0.1531
  875loPI   C2B13330   7.897   6.881   5.622 -0.1881 -0.1318  0.0995
  875loPI   C3B13331   7.761   6.996   6.020  0.1857 -0.2445 -0.3695
  875loPI   C4B13332   7.593   7.393   6.176 -0.2353  0.1107  0.0682
  876loPI    C113333   2.001  14.247   5.109 -0.0700 -0.1223 -0.0000
  876loPI    C213334   1.945  13.925   5.340  0.0150 -0.2229 -0.1182
  876loPI    C313335   1.948  13.887   4.942  0.1621 -0.0983 -0.1296
  876loPI   PO413336   2.186  14.467   5.282  0.0683 -0.1322  0.2012
  876loPI   GL113337   2.441  14.409   5.650 -0.4051 -0.0612 -0.3086
  876loPI   GL213338   2.402  14.704   5.641  0.2798 -0.1129 -0.3819
  876loPI   C1A13339   2.561  14.247   6.085  0.2959 -0.0113 -0.4113
  876loPI   C2A13340   2.658  14.215   6.420  0.3275 -0.0842  0.2579
  876loPI   C3A13341   2.654  14.047   6.818  0.0942  0.0020  0.0444
  876loPI   C4A13342   3.018  14.032   7.124  0.1635 -0.0697  0.3360
  876loPI   C5A13343   3.026  13.784   7.352 -0.0347  0.0599  0.0122
  876loPI   C6A13344   3.100  13.417   7.588  0.2036 -0.4617  0.1175
  876loPI   C1B13345   2.578  14.875   6.036  0.0555  0.0079  0.2350
  876loPI   C2B13346   2.617  14.980   6.473 -0.0922  0.1226 -0.1120
  876loPI   C3B13347   2.399  15.194   6.707 -0.0543  0.3185  0.0535
  876loPI   C4B13348   2.402  15.292   7.103 -0.3754  0.0389  0.1761
  877loPI    C113349  17.071   5.760   4.813  0.2077 -0.1001  0.0373
  877loPI    C213350  17.252   6.037   4.588  0.0050  0.0227  0.0226
  877loPI    C313351  17.102   5.709   4.417 -0.3166  0.2051 -0.0522
  877loPI   PO413352  17.174   5.743   5.008  0.0453 -0.1881  0.3178
  877loPI   GL113353  17.367   5.531   5.277  0.0501 -0.0141  0.0535
  877loPI   GL213354  17.622   5.515   5.172 -0.0541  0.0740 -0.1559
  877loPI   C1A13355  17.604   5.636   5.646  0.0090 -0.0174  0.3914
  877loPI   C2A13356  17.739   5.446   5.968  0.0115  0.0455  0.0538
  877loPI   C3A13357  17.711   5.509   6.420 -0.0594 -0.0548 -0.1170
  877loPI   C4A13358  18.076   5.728   6.631  0.0300  0.4116 -0.0323
  877loPI   C5A13359  18.456   5.827   6.857  0.0340 -0.2577 -0.2388
  877loPI   C6A13360  18.591   5.930   7.241  0.1008 -0.3013  0.3379
  877loPI   C1B13361  17.978   5.385   5.389  0.1870  0.0484 -0.3623
  877loPI   C2B13362  18.190   5.499   5.716  0.0170  0.1871  0.0736
  877loPI   C3B13363  18.324   5.698   6.185 -0.1830  0.1324 -0.0087
  877loPI   C4B13364  18.463   6.042   6.411  0.1557  0.0185 -0.0826
  878loPI    C113365  17.019  12.340   5.108  0.2787 -0.2191  0.0312
  878loPI    C213366  17.402  12.418   5.026  0.2532 -0.1045  0.0190
  878loPI    C313367  17.132  12.407   4.731  0.3236 -0.6442 -0.0358
  878loPI   PO413368  17.024  12.419   5.358  0.2280  0.0246 -0.2049
  878loPI   GL113369  16.949  12.691   5.676 -0.4172  0.1302 -0.0906
  878loPI   GL213370  17.242  12.595   5.826  0.0522  0.0487 -0.1500
  878loPI   C1A13371  16.744  12.666   5.989  0.0335  0.1604 -0.3399
  878loPI   C2A13372  16.593  12.653   6.404 -0.1879 -0.0600 -0.2684
  878loPI   C3A13373  16.429  12.607   6.870 -0.1902  0.0505 -0.0776
  878loPI   C4A13374  16.099  12.447   7.013 -0.2654 -0.0522 -0.1823
  878loPI   C5A13375  16.047  12.278   7.389 -0.0095  0.0721 -0.1909
  878loPI   C6A13376  16.008  11.958   7.736 -0.0482  0.1493  0.1608
  878loPI   C1B13377  17.226  12.506   6.225 -0.1715 -0.1959 -0.2902
  878loPI   C2B13378  17.139  12.296   6.574 -0.1961  0.1583 -0.3862
  878loPI   C3B13379  16.949  12.382   7.043 -0.1910  0.2921  0.1885
  878loPI   C4B13380  16.586  12.474   7.344  0.0374 -0.0166  0.1149
  879loPI    C113381  14.344  12.519   5.012  0.3287 -0.1100 -0.0256
  879loPI    C213382  14.434  12.205   4.781  0.1309 -0.0051 -0.2494
  879loPI    C313383  14.488  12.577   4.643  0.3006  0.0612 -0.0103
  879loPI   PO413384  14.101  12.409   5.175  0.0995 -0.2022 -0.1163
  879loPI   GL113385  13.909  12.138   5.549  0.3271 -0.2446  0.0320
  879loPI   GL213386  14.099  11.860   5.586 -0.0232 -0.1514 -0.1985
  879loPI   C1A13387  13.610  12.176   5.859  0.3357 -0.0468  0.1945
  879loPI   C2A13388  13.353  12.400   6.232  0.0080 -0.0101 -0.0030
  879loPI   C3A13389  13.298  12.743   6.553  0.1589  0.2108 -0.0291
  879loPI   C4A13390  13.307  12.821   7.057  0.1065 -0.0399 -0.0898
  879loPI   C5A13391  13.602  13.086   7.296 -0.0395  0.1624  0.0541
  879loPI   C6A13392  13.522  13.569   7.238  0.0366  0.0205  0.1694
  879loPI   C1B13393  14.020  11.922   6.076  0.1004 -0.2423 -0.3089
  879loPI   C2B13394  13.868  12.144   6.441 -0.3623 -0.4364  0.0079
  879loPI   C3B13395  13.743  11.808   6.778 -0.0252  0.2048  0.0876
  879loPI   C4B13396  13.692  11.559   7.096  0.0035 -0.0254  0.0980
  880loPI    C113397  17.466  17.307   4.968  0.0316 -0.1338  0.1101
  880loPI    C213398  17.846  17.235   5.069  0.0634 -0.1303 -0.0065
  880loPI    C313399  17.763  17.484   4.767 -0.0296 -0.1802 -0.0225
  880loPI   PO413400  17.386  17.414   5.238  0.2434 -0.0317 -0.3762
  880loPI   GL113401  17.352  17.646   5.579  0.0589 -0.0846  0.1186
  880loPI   GL213402  17.128  17.419   5.653  0.0426 -0.3109 -0.2131
  880loPI   C1A13403  17.506  17.882   5.999  0.5496  0.0015  0.0885
  880loPI   C2A13404  17.466  17.932   6.410  0.1447  0.1735 -0.0681
  880loPI   C3A13405  17.398  18.064   6.832 -0.1303  0.1406 -0.4038
  880loPI   C4A13406  17.453  17.692   7.179  0.3281  0.0646  0.1153
  880loPI   C5A13407  17.619  17.417   7.399  0.1080  0.1322 -0.0503
  880loPI   C6A13408  17.878  17.319   7.707  0.1175  0.0885  0.0277
  880loPI   C1B13409  17.194  17.375   6.017 -0.4576 -0.0699  0.4062
  880loPI   C2B13410  17.147  17.533   6.453 -0.0586  0.0788  0.3533
  880loPI   C3B13411  17.103  17.405   6.916 -0.4067  0.1624  0.2506
  880loPI   C4B13412  17.170  17.197   7.262  0.0653 -0.1974  0.1211
  881loPI    C113413  10.012   7.584   4.746 -0.1597  0.3219 -0.0554
  881loPI    C213414  10.216   7.655   4.409  0.1959  0.0619  0.0981
  881loPI    C313415  10.173   7.944   4.681  0.3326  0.1297  0.0486
  881loPI   PO413416  10.171   7.262   4.809  0.0836  0.0299  0.1314
  881loPI   GL113417  10.244   6.982   5.077  0.0899 -0.2128  0.1570
  881loPI   GL213418  10.040   6.702   5.149  0.0979  0.1729  0.0266
  881loPI   C1A13419  10.229   6.978   5.543  0.0596 -0.2463  0.1561
  881loPI   C2A13420  10.180   7.139   5.937 -0.0879  0.0209 -0.1385
  881loPI   C3A13421   9.896   7.310   6.268 -0.1182  0.1732  0.2702
  881loPI   C4A13422   9.664   7.636   6.460 -0.0653 -0.1412 -0.1106
  881loPI   C5A13423   9.674   7.821   6.813 -0.0086  0.1752 -0.2281
  881loPI   C6A13424   9.674   7.795   7.203 -0.0888  0.0652  0.3840
  881loPI   C1B13425   9.788   6.810   5.536  0.0443 -0.0372  0.1569
  881loPI   C2B13426   9.695   6.932   5.907  0.1120 -0.0456  0.0402
  881loPI   C3B13427   9.571   6.972   6.295 -0.0820 -0.2558  0.2018
  881loPI   C4B13428   9.619   7.150   6.661 -0.0761 -0.0212 -0.1369
  882loPI    C113429  16.423  18.699   5.300  0.1162  0.0236 -0.2565
  882loPI    C213430  16.121  18.935   5.417  0.0207 -0.1062 -0.2393
  882loPI    C313431  16.394  19.072   5.158  0.1805  0.1525  0.0603
  882loPI   PO413432  16.437  18.500   5.480 -0.1143 -0.0551  0.0721
  882loPI   GL113433  16.428  18.384   5.911  0.0476 -0.1879  0.0576
  882loPI   GL213434  16.441  18.672   6.111  0.0167  0.0388  0.1884
  882loPI   C1A13435  16.616  18.253   6.203  0.1581 -0.0367  0.2038
  882loPI   C2A13436  16.451  18.338   6.640 -0.0517  0.0878 -0.4473
  882loPI   C3A13437  16.540  18.140   7.051  0.2751  0.1475 -0.1540
  882loPI   C4A13438  16.723  18.205   7.451 -0.0357 -0.3173 -0.0619
  882loPI   C5A13439  16.880  18.315   7.838 -0.3340 -0.0055  0.1418
  882loPI   C6A13440  16.990  18.757   7.885 -0.1779 -0.3444  0.1605
  882loPI   C1B13441  16.120  18.662   6.427 -0.0353 -0.1791  0.3485
  882loPI   C2B13442  15.980  18.530   6.843 -0.1424  0.0752  0.1859
  882loPI   C3B13443  16.077  18.478   7.155  0.1952 -0.0312  0.1480
  882loPI   C4B13444  16.140  18.161   7.401  0.1263  0.1996  0.4472
  883loPI    C113445  12.467   5.371   4.600  0.2409 -0.1189 -0.0294
  883loPI    C213446  12.099   5.291   4.735  0.2657  0.1482  0.2084
  883loPI    C313447  12.223   5.136   4.387 -0.0513  0.0152  0.1506
  883loPI   PO413448  12.507   5.592   4.650 -0.0308  0.0141 -0.1768
  883loPI   GL113449  12.658   5.948   4.988 -0.2125  0.3028 -0.2446
  883loPI   GL213450  12.313   5.964   5.242 -0.0726 -0.0232  0.2644
  883loPI   C1A13451  12.851   5.770   5.446 -0.0750  0.0196  0.0472
  883loPI   C2A13452  12.946   6.101   5.940 -0.1049 -0.0108 -0.2562
  883loPI   C3A13453  13.173   6.296   6.253  0.2462 -0.0026 -0.2153
  883loPI   C4A13454  13.252   6.444   6.728 -0.0946 -0.0163 -0.1355
  883loPI   C5A13455  13.348   6.607   7.123 -0.1258 -0.1097  0.0188
  883loPI   C6A13456  13.788   6.792   7.137  0.4409  0.2506 -0.1088
  883loPI   C1B13457  12.370   5.740   5.494 -0.2175  0.4039  0.0972
  883loPI   C2B13458  12.327   5.319   5.637 -0.2315  0.2994 -0.1851
  883loPI   C3B13459  12.477   4.943   5.904  0.0178  0.0353 -0.0284
  883loPI   C4B13460  12.344   4.888   6.382 -0.0922  0.0076 -0.0761
  884loPI    C113461   3.261   6.879   4.776 -0.0091 -0.0003  0.3139
  884loPI    C213462   3.390   6.501   4.785  0.0235 -0.0073 -0.1816
  884loPI    C313463   3.463   6.730   4.465 -0.3247  0.3023 -0.0474
  884loPI   PO413464   2.935   6.776   4.924 -0.1985  0.4480  0.0035
  884loPI   GL113465   2.990   6.715   5.432 -0.1154 -0.5683  0.0203
  884loPI   GL213466   2.623   6.773   5.456  0.1985 -0.0647 -0.0202
  884loPI   C1A13467   3.065   6.587   5.941  0.2878 -0.3721  0.0563
  884loPI   C2A13468   2.880   6.543   6.384 -0.2617 -0.1715  0.0259
  884loPI   C3A13469   2.587   6.510   6.728 -0.1445 -0.0627  0.0614
  884loPI   C4A13470   2.539   6.718   7.139  0.4050 -0.2882 -0.2293
  884loPI   C5A13471   2.507   7.044   7.457  0.3824 -0.1276 -0.0903
  884loPI   C6A13472   2.773   7.266   7.770  0.0483 -0.2299  0.0377
  884loPI   C1B13473   2.493   6.654   5.833 -0.0314  0.0343  0.0260
  884loPI   C2B13474   2.411   6.733   6.226 -0.1444  0.0451 -0.1369
  884loPI   C3B13475   2.596   6.969   6.544 -0.0265 -0.0572  0.3560
  884loPI   C4B13476   2.954   6.875   6.818  0.0789  0.1256 -0.1334
  885loPI    C113477   2.105   1.901   4.709 -0.1047  0.1317  0.1809
  885loPI    C213478   1.726   1.783   4.662 -0.0520 -0.0457  0.1919
  885loPI    C313479   1.907   1.992   4.374 -0.0866 -0.1578  0.0879
  885loPI   PO413480   2.098   1.988   5.009 -0.0887 -0.1007  0.2120
  885loPI   GL113481   2.113   1.894   5.358  0.5411 -0.0228  0.0332
  885loPI   GL213482   1.956   2.206   5.434  0.3107 -0.0290 -0.0906
  885loPI   C1A13483   1.976   1.810   5.762  0.2445  0.0879  0.0841
  885loPI   C2A13484   1.963   1.890   6.258  0.2236  0.2345  0.0980
  885loPI   C3A13485   2.167   1.912   6.688  0.2235  0.1595 -0.1077
  885loPI   C4A13486   2.203   1.963   7.118  0.0439  0.0474 -0.2702
  885loPI   C5A13487   2.030   2.160   7.446 -0.2060 -0.0679 -0.1777
  885loPI   C6A13488   2.087   2.243   7.793 -0.2591 -0.0439  0.1166
  885loPI   C1B13489   2.001   2.430   5.753  0.1599  0.0899 -0.2630
  885loPI   C2B13490   2.157   2.454   6.205 -0.2553 -0.1264  0.3343
  885loPI   C3B13491   2.425   2.395   6.545 -0.0455  0.1929 -0.0331
  885loPI   C4B13492   2.481   2.413   6.944  0.0164 -0.0592 -0.1127
  886loPI    C113493   8.086  17.232   4.965  0.1138  0.1491  0.0214
  886loPI    C213494   8.409  17.009   5.044  0.0577  0.0551 -0.0131
  886loPI    C313495   8.152  16.895   4.760 -0.0731  0.0629  0.1011
  886loPI   PO413496   7.941  17.282   5.234 -0.0522 -0.0256 -0.0971
  886loPI   GL113497   7.774  17.447   5.622  0.0127 -0.2701 -0.0319
  886loPI   GL213498   8.196  17.531   5.709  0.4410  0.0605  0.0085
  886loPI   C1A13499   7.581  17.214   5.861 -0.0625 -0.0704 -0.1640
  886loPI   C2A13500   7.622  17.351   6.285 -0.1425  0.0684  0.1638
  886loPI   C3A13501   7.706  17.424   6.706  0.1636 -0.2577 -0.1613
  886loPI   C4A13502   7.734  17.183   6.950  0.3464 -0.0320  0.0649
  886loPI   C5A13503   7.683  16.948   7.408  0.0393 -0.4115 -0.2941
  886loPI   C6A13504   7.425  16.768   7.602 -0.2315  0.1805  0.0119
  886loPI   C1B13505   8.134  17.455   6.144 -0.1496  0.1208  0.0103
  886loPI   C2B13506   8.222  17.448   6.578  0.1763  0.1092  0.0475
  886loPI   C3B13507   8.184  17.440   6.999  0.1026  0.0691 -0.0283
  886loPI   C4B13508   7.970  17.387   7.343 -0.0810 -0.0696 -0.1112
  887loPI    C113509   2.354  12.828   4.806 -0.1519  0.0535 -0.3918
  887loPI    C213510   2.321  13.147   4.568  0.1753  0.0114 -0.4980
  887loPI    C313511   2.528  12.827   4.446  0.2408 -0.0601 -0.2074
  887loPI   PO413512   2.300  13.038   5.111 -0.0316  0.1034 -0.0296
  887loPI   GL113513   2.478  12.862   5.445 -0.1266 -0.0128 -0.1286
  887loPI   GL213514   2.676  13.107   5.530 -0.2286 -0.3351 -0.0238
  887loPI   C1A13515   2.409  12.756   5.898  0.1064  0.0946 -0.0289
  887loPI   C2A13516   2.223  12.658   6.239 -0.0696  0.1653  0.1501
  887loPI   C3A13517   2.194  12.682   6.698 -0.0916 -0.0687 -0.0406
  887loPI   C4A13518   2.202  12.604   7.024 -0.0197  0.1483  0.0587
  887loPI   C5A13519   2.267  12.606   7.482 -0.1118  0.1930  0.1071
  887loPI   C6A13520   2.232  13.177   7.486  0.0121 -0.3849  0.2371
  887loPI   C1B13521   2.709  13.190   5.944  0.3688  0.2244  0.0267
  887loPI   C2B13522   2.500  13.189   6.280 -0.1119  0.1668 -0.0398
  887loPI   C3B13523   2.407  13.262   6.706  0.2707 -0.0647  0.1151
  887loPI   C4B13524   2.243  13.432   7.073  0.0576  0.0236  0.0266
  888loPI    C113525   5.694   4.394   5.078  0.2621  0.0395  0.1569
  888loPI    C213526   5.908   4.066   5.162  0.1840 -0.0255  0.1026
  888loPI    C313527   6.003   4.291   4.845  0.0857 -0.1330 -0.0043
  888loPI   PO413528   5.608   4.462   5.399  0.5857  0.1655 -0.2379
  888loPI   GL113529   5.479   4.871   5.651  0.1426 -0.1731  0.0763
  888loPI   GL213530   5.478   5.236   5.534  0.1138 -0.1270 -0.1515
  888loPI   C1A13531   5.675   4.876   6.075 -0.2333  0.1037 -0.1575
  888loPI   C2A13532   5.656   4.840   6.548 -0.0272  0.0218 -0.3054
  888loPI   C3A13533   5.397   4.776   6.886  0.0156 -0.0140  0.0755
  888loPI   C4A13534   5.144   4.796   7.206  0.3493 -0.1405 -0.1314
  888loPI   C5A13535   4.847   4.478   7.407  0.1926 -0.0455  0.1506
  888loPI   C6A13536   4.732   4.151   7.157  0.0848 -0.1367 -0.0192
  888loPI   C1B13537   5.581   5.463   5.898  0.1800  0.0371  0.4840
  888loPI   C2B13538   5.724   5.426   6.231  0.0381  0.2570  0.1431
  888loPI   C3B13539   5.686   5.331   6.649  0.1497 -0.3775 -0.1218
  888loPI   C4B13540   5.998   5.052   6.930  0.4320 -0.1664  0.1249
  889loPI    C113541  15.184  16.152   4.863  0.0429 -0.2770 -0.1843
  889loPI    C213542  15.524  16.092   5.066  0.0838 -0.1468 -0.2132
  889loPI    C313543  15.522  16.331   4.745 -0.0919  0.0759 -0.0494
  889loPI   PO413544  15.008  16.167   5.062 -0.0662 -0.1688 -0.0869
  889loPI   GL113545  15.005  15.915   5.339 -0.2289 -0.1253 -0.0670
  889loPI   GL213546  14.788  15.631   5.382 -0.1028 -0.0306  0.0472
  889loPI   C1A13547  14.911  16.115   5.747  0.0531  0.1360 -0.1052
  889loPI   C2A13548  14.631  16.339   6.049 -0.1017 -0.2647  0.0875
  889loPI   C3A13549  14.502  16.085   6.395 -0.2682 -0.0820 -0.0861
  889loPI   C4A13550  14.552  16.170   6.846 -0.0842 -0.1761  0.1814
  889loPI   C5A13551  14.629  16.156   7.239  0.0471  0.3926 -0.0973
  889loPI   C6A13552  14.937  16.069   7.599 -0.0054  0.2130  0.0223
  889loPI   C1B13553  14.866  15.640   5.890  0.1257  0.1585 -0.4651
  889loPI   C2B13554  14.626  15.483   6.375  0.2672 -0.0762  0.0291
  889loPI   C3B13555  14.476  15.387   6.750 -0.0072  0.0075 -0.1751
  889loPI   C4B13556  14.538  14.945   6.993 -0.0470 -0.1314  0.4127
  890loPI    C113557   5.969   5.294   5.005 -0.1159 -0.1268  0.0335
  890loPI    C213558   5.692   5.172   4.742  0.0630 -0.4222 -0.0216
  890loPI    C313559   6.037   5.328   4.612  0.0052 -0.2377  0.0441
  890loPI   PO413560   5.837   5.486   5.145  0.2360  0.0081 -0.1288
  890loPI   GL113561   5.735   5.751   5.507  0.0916  0.1924  0.0779
  890loPI   GL213562   5.401   5.720   5.419 -0.0313  0.2275 -0.1614
  890loPI   C1A13563   5.987   5.670   5.789  0.1537 -0.0819  0.1901
  890loPI   C2A13564   6.078   5.725   6.311 -0.1563  0.2272  0.3319
  890loPI   C3A13565   6.110   5.675   6.855 -0.2311  0.0756  0.1371
  890loPI   C4A13566   6.077   5.656   7.349 -0.0453 -0.0668 -0.2167
  890loPI   C5A13567   6.587   5.651   7.533 -0.1015  0.0193 -0.0019
  890loPI   C6A13568   6.861   6.029   7.504 -0.0850  0.1480  0.2789
  890loPI   C1B13569   5.313   5.932   5.757  0.0399  0.1156 -0.2024
  890loPI   C2B13570   5.325   6.224   6.087  0.1207  0.2847  0.0510
  890loPI   C3B13571   5.345   6.328   6.518 -0.1708  0.0726  0.3180
  890loPI   C4B13572   5.347   6.161   6.788 -0.1161  0.0096  0.1509
  891loPI    C113573  17.963   0.411   5.173 -0.0498  0.3050 -0.0923
  891loPI    C213574  17.893   0.177   4.857 -0.0963  0.3275 -0.0986
  891loPI    C313575  18.245   0.363   4.894 -0.0210  0.1754 -0.0418
  891loPI   PO413576  17.724   0.323   5.381 -0.0390 -0.0993 -0.1414
  891loPI   GL113577  17.697   0.213   5.787  0.0768 -0.2537  0.0777
  891loPI   GL213578  17.448  -0.023   5.647 -0.2401 -0.2294  0.1710
  891loPI   C1A13579  17.885   0.328   6.156 -0.2057  0.3591 -0.0402
  891loPI   C2A13580  18.252   0.270   6.503 -0.0885 -0.4437  0.5162
  891loPI   C3A13581  18.288  -0.051   6.792  0.0021 -0.2464  0.0610
  891loPI   C4A13582  18.427  -0.274   7.150 -0.3127  0.2190 -0.3234
  891loPI   C5A13583  18.537  -0.560   7.432  0.2448 -0.1408  0.3103
  891loPI   C6A13584  18.732  -0.829   7.773 -0.1399  0.0712  0.0135
  891loPI   C1B13585  17.702  -0.169   6.091 -0.0095  0.1913 -0.0670
  891loPI   C2B13586  17.774  -0.288   6.537 -0.1641  0.0130  0.0886
  891loPI   C3B13587  17.764   0.125   6.790  0.1034 -0.1226  0.1468
  891loPI   C4B13588  17.635   0.590   6.555 -0.1036 -0.1083 -0.1099
  892loPI    C113589  17.708  16.637   4.491 -0.1844 -0.1806  0.1153
  892loPI    C213590  17.515  16.963   4.620 -0.1943 -0.0617 -0.1918
  892loPI    C313591  17.914  16.966   4.586 -0.2003 -0.0568 -0.2633
  892loPI   PO413592  17.673  16.438   4.625  0.2177 -0.0059 -0.0215
  892loPI   GL113593  17.564  16.312   5.063  0.0388  0.2833  0.1850
  892loPI   GL213594  17.824  16.396   5.300  0.0409 -0.2014 -0.1419
  892loPI   C1A13595  17.308  16.055   5.404  0.0346 -0.0104  0.1205
  892loPI   C2A13596  17.240  15.960   5.839  0.1563  0.1668  0.2052
  892loPI   C3A13597  17.131  16.031   6.241  0.3426  0.1873 -0.3398
  892loPI   C4A13598  16.703  16.043   6.537  0.1510  0.0813  0.0925
  892loPI   C5A13599  16.461  16.280   6.770  0.2630  0.1403  0.1618
  892loPI   C6A13600  16.565  16.398   7.117 -0.4404  0.1877 -0.3144
  892loPI   C1B13601  17.533  16.472   5.534 -0.0463  0.1232 -0.3777
  892loPI   C2B13602  17.304  16.504   5.996  0.0747  0.0016 -0.2303
  892loPI   C3B13603  17.316  16.459   6.471 -0.0106 -0.1062  0.2081
  892loPI   C4B13604  16.956  16.412   6.660 -0.0307 -0.0031 -0.3550
  893loPI    C113605  18.767  12.889   5.425  0.0597  0.1311  0.0723
  893loPI    C213606  18.755  12.849   5.027 -0.0542 -0.3727  0.1199
  893loPI    C313607  18.526  13.123   5.207 -0.2365 -0.3532 -0.1360
  893loPI   PO413608  18.742  12.606   5.528 -0.4851  0.0706 -0.3128
  893loPI   GL113609  18.937  12.664   5.922  0.0448 -0.0397  0.0516
  893loPI   GL213610  18.744  12.460   6.014  0.1427  0.0798 -0.1088
  893loPI   C1A13611  18.959  12.894   6.305 -0.0713 -0.1532 -0.2994
  893loPI   C2A13612  19.026  12.802   6.803 -0.1219  0.2636 -0.2773
  893loPI   C3A13613  19.253  12.652   7.210 -0.0247  0.1140 -0.0786
  893loPI   C4A13614  19.489  12.803   7.626  0.0481 -0.0998 -0.0413
  893loPI   C5A13615  19.941  12.789   7.710  0.3782  0.2411  0.3177
  893loPI   C6A13616  20.291  12.486   7.572 -0.1799  0.3271 -0.1889
  893loPI   C1B13617  18.993  12.299   6.347  0.0946 -0.0977 -0.4820
  893loPI   C2B13618  19.179  12.271   6.814  0.1358 -0.0461 -0.0979
  893loPI   C3B13619  19.505  12.086   7.031 -0.2020  0.0019 -0.0570
  893loPI   C4B13620  19.821  11.796   7.222  0.1957 -0.0013  0.2693
  894loPI    C113621   2.038   6.576   5.045 -0.2851 -0.0028  0.0859
  894loPI    C213622   2.175   6.227   4.905  0.1993  0.2479 -0.0879
  894loPI    C313623   1.801   6.342   4.823 -0.0058 -0.2768  0.0689
  894loPI   PO413624   2.065   6.450   5.328 -0.0041  0.1053  0.1675
  894loPI   GL113625   2.315   6.274   5.613 -0.0527 -0.0609  0.0324
  894loPI   GL213626   2.700   6.211   5.568 -0.3048 -0.1852  0.1665
  894loPI   C1A13627   2.131   6.338   6.027  0.1592 -0.0520 -0.1484
  894loPI   C2A13628   2.112   6.442   6.441 -0.0076  0.0633  0.1826
  894loPI   C3A13629   2.130   6.695   6.812  0.0890  0.1698 -0.0621
  894loPI   C4A13630   1.785   6.802   7.100  0.0599 -0.0144 -0.0607
  894loPI   C5A13631   1.603   6.831   7.509  0.0353 -0.1397  0.1472
  894loPI   C6A13632   1.305   6.482   7.615  0.0270 -0.0751 -0.1773
  894loPI   C1B13633   2.677   6.173   6.015 -0.3539 -0.2016 -0.3685
  894loPI   C2B13634   2.845   6.064   6.351 -0.0922  0.0582  0.2838
  894loPI   C3B13635   2.879   6.139   6.755  0.0773  0.3365  0.1836
  894loPI   C4B13636   2.822   6.226   7.186  0.2883  0.0554 -0.1490
  895loPI    C113637  10.105  15.232   4.931 -0.0790  0.1503  0.0132
  895loPI    C213638  10.053  15.379   4.563 -0.0978  0.1075 -0.0013
  895loPI    C313639  10.062  14.983   4.621  0.0729  0.1139  0.0204
  895loPI   PO413640  10.195  15.569   5.033  0.3666 -0.0686  0.3070
  895loPI   GL113641  10.431  15.561   5.304 -0.2075  0.0570  0.1107
  895loPI   GL213642  10.462  15.242   5.269 -0.1513 -0.1549 -0.0847
  895loPI   C1A13643  10.509  15.784   5.669 -0.0494 -0.0675 -0.0930
  895loPI   C2A13644  10.621  15.832   6.112  0.0963  0.3108  0.2165
  895loPI   C3A13645  10.734  15.797   6.587  0.3532  0.2163  0.1236
  895loPI   C4A13646  10.805  15.874   7.005  0.1601  0.4327  0.2406
  895loPI   C5A13647  10.998  15.880   7.363  0.0757 -0.4254 -0.2359
  895loPI   C6A13648  11.060  15.924   7.837 -0.1307 -0.2801  0.2521
  895loPI   C1B13649  10.341  15.248   5.799 -0.2021  0.0307 -0.1000
  895loPI   C2B13650  10.257  15.523   6.105 -0.1227  0.2352  0.2110
  895loPI   C3B13651  10.228  15.698   6.526  0.0082 -0.1917 -0.1363
  895loPI   C4B13652  10.282  15.663   6.915  0.1277  0.2735  0.3049
  896loPI    C113653  12.847  18.962   5.492 -0.0314 -0.1514 -0.0562
  896loPI    C213654  12.657  19.216   5.249  0.0281 -0.0432  0.0100
  896loPI    C313655  12.804  19.345   5.598  0.2580 -0.1157 -0.0587
  896loPI   PO413656  12.608  18.781   5.539 -0.0910 -0.0386 -0.1428
  896loPI   GL113657  12.363  18.827   5.835 -0.0712 -0.0503  0.1147
  896loPI   GL213658  12.111  18.800   5.761  0.1250 -0.2096 -0.2724
  896loPI   C1A13659  12.105  19.128   6.205  0.1715 -0.0645  0.0563
  896loPI   C2A13660  12.076  19.478   6.536  0.0319 -0.0185  0.2138
  896loPI   C3A13661  11.599  19.707   6.589  0.0361  0.1270 -0.4105
  896loPI   C4A13662  11.637  19.844   7.008 -0.0895 -0.1207  0.1976
  896loPI   C5A13663  11.362  19.919   7.353 -0.1637  0.3757 -0.1060
  896loPI   C6A13664  11.271  20.321   7.599  0.1413 -0.1383  0.0067
  896loPI   C1B13665  11.767  18.740   6.080  0.0346 -0.1533 -0.0850
  896loPI   C2B13666  11.748  18.739   6.520 -0.1794 -0.0242  0.0128
  896loPI   C3B13667  11.983  18.959   6.923 -0.0209  0.2473 -0.2154
  896loPI   C4B13668  12.029  19.024   7.330 -0.0454 -0.1094  0.0361
  897loPI    C113669  12.079   7.979   4.658 -0.1915 -0.1433 -0.1682
  897loPI    C213670  12.373   8.237   4.739 -0.5146  0.1739  0.0256
  897loPI    C313671  12.208   8.231   4.375 -0.1493 -0.1351 -0.1417
  897loPI   PO413672  12.037   7.936   4.895 -0.0861 -0.0342  0.0088
  897loPI   GL113673  12.066   8.064   5.339 -0.0948 -0.0860 -0.2456
  897loPI   GL213674  11.814   8.255   5.271  0.0118 -0.1444  0.2250
  897loPI   C1A13675  11.808   7.940   5.803 -0.0075 -0.0451  0.1237
  897loPI   C2A13676  11.745   7.834   6.124 -0.2403 -0.2541 -0.3606
  897loPI   C3A13677  11.604   8.107   6.414  0.0117 -0.4679  0.0885
  897loPI   C4A13678  11.290   8.439   6.299  0.3363 -0.1529  0.1651
  897loPI   C5A13679  10.950   8.638   6.087  0.2301 -0.4512 -0.1211
  897loPI   C6A13680  10.596   8.909   6.251 -0.0160 -0.0706  0.0993
  897loPI   C1B13681  11.715   8.387   5.695 -0.0174  0.2102 -0.1874
  897loPI   C2B13682  11.724   8.468   6.110 -0.1084 -0.1673 -0.3007
  897loPI   C3B13683  11.708   8.593   6.579 -0.2210  0.0604  0.2358
  897loPI   C4B13684  11.913   8.651   6.899 -0.0931 -0.0810  0.0422
  898loPI    C113685  18.818  17.354   4.919 -0.0419  0.1770  0.0225
  898loPI    C213686  19.066  17.625   4.760  0.1327  0.1246  0.2024
  898loPI    C313687  19.064  17.249   4.621  0.0421  0.1641  0.0960
  898loPI   PO413688  18.842  17.399   5.146  0.0241 -0.0108  0.3546
  898loPI   GL113689  19.052  17.389   5.471 -0.0536 -0.1386 -0.0859
  898loPI   GL213690  18.949  17.035   5.502 -0.1586  0.1018 -0.0854
  898loPI   C1A13691  18.759  17.515   5.769 -0.0250 -0.1224 -0.3654
  898loPI   C2A13692  18.738  17.648   6.162 -0.0651  0.0927 -0.1705
  898loPI   C3A13693  18.857  17.713   6.543  0.1879 -0.0200  0.2136
  898loPI   C4A13694  18.686  17.784   6.940  0.0466 -0.0699 -0.0023
  898loPI   C5A13695  18.411  17.680   7.191  0.1558  0.4940  0.2867
  898loPI   C6A13696  17.978  17.752   7.321  0.0321 -0.0605  0.1010
  898loPI   C1B13697  18.781  17.013   5.957  0.0404 -0.2067  0.0777
  898loPI   C2B13698  18.715  17.241   6.413  0.2934  0.2494 -0.1570
  898loPI   C3B13699  18.630  17.274   6.922  0.0451 -0.0196  0.3219
  898loPI   C4B13700  18.430  16.876   7.202  0.0716 -0.0711 -0.0293
  899loPI    C113701   3.863  17.679   4.983  0.0667 -0.1217  0.2010
  899loPI    C213702   4.232  17.796   4.884 -0.0244  0.0320  0.0367
  899loPI    C313703   3.966  17.708   4.598 -0.1142 -0.0839  0.1542
  899loPI   PO413704   3.914  17.596   5.207 -0.0993  0.1939  0.3786
  899loPI   GL113705   3.673  17.316   5.579 -0.1082  0.0198 -0.1797
  899loPI   GL213706   3.744  17.017   5.656 -0.0736  0.4152 -0.0210
  899loPI   C1A13707   3.593  17.650   5.893  0.0700  0.1295  0.1068
  899loPI   C2A13708   3.629  17.717   6.239 -0.1130  0.1553  0.1391
  899loPI   C3A13709   3.786  17.850   6.628 -0.2538  0.0273  0.2480
  899loPI   C4A13710   3.919  17.816   7.023  0.1138  0.3995 -0.1656
  899loPI   C5A13711   4.035  17.444   7.449 -0.0641  0.0889  0.0041
  899loPI   C6A13712   4.072  17.072   7.666  0.0911 -0.2756  0.2134
  899loPI   C1B13713   3.672  17.198   6.129  0.1975  0.1724 -0.1937
  899loPI   C2B13714   3.667  17.300   6.543  0.4112 -0.2822 -0.1117
  899loPI   C3B13715   3.820  17.341   6.834  0.0038 -0.0706  0.0589
  899loPI   C4B13716   3.917  17.077   7.113 -0.1500  0.0037 -0.0607
  900loPI    C113717   6.401   1.857   4.973  0.0551  0.1107  0.0829
  900loPI    C213718   6.253   2.015   4.637 -0.2097 -0.1487  0.0727
  900loPI    C313719   6.645   1.940   4.667 -0.1409  0.1377 -0.0681
  900loPI   PO413720   6.201   1.588   5.080 -0.1418  0.0775  0.0871
  900loPI   GL113721   6.309   1.254   5.341  0.0027 -0.5559  0.2486
  900loPI   GL213722   6.296   1.031   5.496  0.0891 -0.0856  0.3015
  900loPI   C1A13723   6.064   1.431   5.699  0.1705 -0.1042 -0.0433
  900loPI   C2A13724   6.078   1.541   6.133 -0.4184 -0.0427 -0.1389
  900loPI   C3A13725   5.790   1.539   6.575 -0.2027  0.0691  0.1059
  900loPI   C4A13726   5.718   1.319   7.024  0.0647 -0.0468  0.1943
  900loPI   C5A13727   5.327   1.122   7.344 -0.2871  0.2015 -0.0926
  900loPI   C6A13728   5.054   1.312   7.662 -0.1093  0.2970 -0.2545
  900loPI   C1B13729   6.330   1.157   5.995  0.0483  0.0625  0.2924
  900loPI   C2B13730   6.596   1.150   6.372 -0.0269  0.2842 -0.0421
  900loPI   C3B13731   6.728   0.698   6.646  0.2622  0.0209  0.2909
  900loPI   C4B13732   6.490   0.655   6.963 -0.3952 -0.1306 -0.0894
  901loPI    C113733  14.454  11.694   4.661 -0.4237 -0.0131 -0.0522
  901loPI    C213734  14.523  11.337   4.495 -0.0730  0.0688 -0.0901
  901loPI    C313735  14.538  11.668   4.271  0.3621  0.1763  0.0870
  901loPI   PO413736  14.505  11.576   4.904  0.1575 -0.1703 -0.0710
  901loPI   GL113737  14.525  11.931   5.306  0.1357 -0.0214  0.0514
  901loPI   GL213738  14.487  12.197   5.430  0.0982 -0.2953  0.3349
  901loPI   C1A13739  14.550  11.758   5.766  0.0807  0.1925 -0.3424
  901loPI   C2A13740  14.418  11.618   6.189  0.1086  0.0008 -0.0283
  901loPI   C3A13741  14.330  11.874   6.485  0.0272 -0.0686  0.4711
  901loPI   C4A13742  14.195  12.070   6.937 -0.1405 -0.1465  0.3900
  901loPI   C5A13743  13.991  12.376   7.023  0.2196  0.0062  0.1330
  901loPI   C6A13744  13.940  12.779   7.111  0.0346 -0.1213 -0.0135
  901loPI   C1B13745  14.436  12.261   5.827 -0.3229  0.0387 -0.2577
  901loPI   C2B13746  14.528  12.273   6.271 -0.3177  0.1002 -0.1871
  901loPI   C3B13747  14.643  12.293   6.775 -0.2560 -0.1281  0.1278
  901loPI   C4B13748  14.486  12.400   7.219  0.0683  0.1550  0.0631
  902loPI    C113749   3.278   3.343   5.074 -0.2679 -0.0954 -0.1525
  902loPI    C213750   3.144   3.124   5.380 -0.1404  0.0259 -0.0087
  902loPI    C313751   3.524   3.088   5.260 -0.1165  0.1732  0.0212
  902loPI   PO413752   3.096   3.524   5.041 -0.0402 -0.1295 -0.1092
  902loPI   GL113753   2.778   3.593   5.306  0.2788  0.3271  0.2475
  902loPI   GL213754   2.668   3.316   5.401  0.2559 -0.1994  0.0618
  902loPI   C1A13755   2.964   3.552   5.746 -0.1643 -0.0775  0.1213
  902loPI   C2A13756   3.072   3.535   6.143  0.0791  0.0996  0.2207
  902loPI   C3A13757   3.100   3.659   6.522 -0.0767 -0.1338 -0.0788
  902loPI   C4A13758   3.165   3.680   6.868 -0.1379 -0.3243 -0.0123
  902loPI   C5A13759   2.989   3.685   7.267 -0.0729  0.1854  0.2191
  902loPI   C6A13760   3.031   3.419   7.666 -0.2065 -0.1067  0.0687
  902loPI   C1B13761   2.416   3.110   5.672  0.3449 -0.0501  0.0010
  902loPI   C2B13762   2.297   2.872   6.048 -0.2144  0.1683  0.0904
  902loPI   C3B13763   2.327   2.887   6.458 -0.1233  0.4720  0.2170
  902loPI   C4B13764   2.096   2.824   6.727  0.0830  0.0776  0.1570
  903loPI    C113765   9.463   2.648   4.642  0.0809  0.0070  0.1215
  903loPI    C213766   9.535   2.275   4.517  0.0721  0.0564 -0.0318
  903loPI    C313767   9.771   2.576   4.397  0.0488  0.1078  0.0510
  903loPI   PO413768   9.542   2.674   4.979 -0.0452  0.3038  0.0859
  903loPI   GL113769   9.682   2.976   5.339 -0.0564  0.2169  0.2537
  903loPI   GL213770   9.357   3.106   5.458  0.3231  0.1969  0.3232
  903loPI   C1A13771   9.674   2.850   5.786 -0.1274  0.0135 -0.0985
  903loPI   C2A13772   9.777   2.698   6.177  0.3127  0.1625 -0.1373
  903loPI   C3A13773  10.014   2.799   6.568 -0.0063 -0.1760  0.2807
  903loPI   C4A13774   9.874   2.822   6.925  0.2081 -0.1402  0.2780
  903loPI   C5A13775   9.597   2.902   7.241  0.1110  0.1168  0.0335
  903loPI   C6A13776   9.277   2.824   7.501 -0.1989 -0.1959  0.3736
  903loPI   C1B13777   9.318   3.314   5.754  0.0057  0.1666  0.5010
  903loPI   C2B13778   9.378   3.131   6.196  0.1534  0.0210 -0.0671
  903loPI   C3B13779   9.540   3.159   6.633 -0.3182 -0.0740 -0.1355
  903loPI   C4B13780   9.728   3.437   6.916 -0.1978 -0.3497 -0.0375
  904loPI    C113781  11.472   0.933   4.858  0.1065 -0.0301 -0.1186
  904loPI    C213782  11.542   0.950   4.464 -0.1048  0.0651 -0.1535
  904loPI    C313783  11.781   0.733   4.701  0.0515  0.0458 -0.3268
  904loPI   PO413784  11.443   1.181   4.909  0.2342  0.0407 -0.1338
  904loPI   GL113785  11.255   1.350   5.310 -0.0254 -0.2893  0.0362
  904loPI   GL213786  11.436   1.099   5.485  0.0432  0.3736 -0.0417
  904loPI   C1A13787  11.047   1.386   5.722 -0.0976 -0.1027 -0.2084
  904loPI   C2A13788  10.971   1.163   6.035  0.0886  0.0334  0.0401
  904loPI   C3A13789  10.797   0.957   6.445  0.0477  0.1895 -0.1110
  904loPI   C4A13790  10.880   0.769   6.826  0.1161  0.3041  0.2850
  904loPI   C5A13791  11.131   0.400   6.919 -0.3768  0.2074  0.2551
  904loPI   C6A13792  11.046  -0.000   7.147  0.1940  0.3857  0.0052
  904loPI   C1B13793  11.720   0.995   5.892  0.2354  0.1207 -0.2814
  904loPI   C2B13794  11.892   0.688   6.207  0.1836  0.0353  0.3501
  904loPI   C3B13795  12.191   0.789   6.558 -0.4557 -0.0484 -0.1533
  904loPI   C4B13796  12.373   1.085   6.451  0.1730  0.0266 -0.0773
  905loPI    C113797  18.283   6.392   4.425 -0.0754  0.0320  0.1067
  905loPI    C213798  18.283   6.083   4.171 -0.0126 -0.1587  0.3350
  905loPI    C313799  18.460   6.427   4.068  0.0498 -0.2480  0.1388
  905loPI   PO413800  18.262   6.267   4.677 -0.0001 -0.2255 -0.4177
  905loPI   GL113801  18.275   5.984   4.940 -0.0994 -0.1896 -0.1087
  905loPI   GL213802  18.369   6.192   5.177  0.1066  0.0027  0.2263
  905loPI   C1A13803  18.067   5.870   5.363  0.0937 -0.0333 -0.1844
  905loPI   C2A13804  18.049   5.994   5.805 -0.3137  0.1294 -0.3278
  905loPI   C3A13805  17.840   5.951   6.226 -0.1196  0.1495  0.0572
  905loPI   C4A13806  17.622   5.897   6.717  0.0509 -0.0240 -0.2696
  905loPI   C5A13807  17.704   5.573   7.055  0.1235 -0.2075  0.0700
  905loPI   C6A13808  17.754   5.151   7.039  0.0466 -0.0583 -0.0105
  905loPI   C1B13809  18.297   6.304   5.478 -0.0021 -0.2632  0.0068
  905loPI   C2B13810  18.278   6.529   5.826 -0.3170 -0.1732 -0.1102
  905loPI   C3B13811  18.198   6.509   6.212  0.3551  0.1207 -0.1132
  905loPI   C4B13812  18.034   6.263   6.550  0.2762 -0.1218 -0.0918
  906loPI    C113813  17.302   7.214   4.891 -0.0769 -0.1349  0.0473
  906loPI    C213814  17.618   7.305   5.119 -0.0716 -0.1137  0.0317
  906loPI    C313815  17.648   7.021   4.838 -0.0348 -0.0350 -0.0444
  906loPI   PO413816  17.157   7.465   4.895  0.1417 -0.0133  0.0355
  906loPI   GL113817  17.129   7.770   5.095 -0.1901 -0.1008 -0.0981
  906loPI   GL213818  16.945   7.911   5.320 -0.1485  0.0758  0.1974
  906loPI   C1A13819  17.273   7.518   5.587  0.1275  0.0088 -0.3821
  906loPI   C2A13820  17.333   7.425   5.977  0.4518  0.1569 -0.2212
  906loPI   C3A13821  17.253   7.603   6.479  0.0642  0.3716  0.3852
  906loPI   C4A13822  17.347   7.657   6.925 -0.5853 -0.1408 -0.2336
  906loPI   C5A13823  17.766   7.924   7.116 -0.1937  0.2562  0.2132
  906loPI   C6A13824  18.115   8.052   6.986 -0.1839 -0.2205  0.2788
  906loPI   C1B13825  16.749   7.730   5.614 -0.3265 -0.3303  0.2504
  906loPI   C2B13826  16.657   7.334   5.777 -0.1872 -0.1212  0.4158
  906loPI   C3B13827  16.467   7.184   6.094  0.2201 -0.0535 -0.1126
  906loPI   C4B13828  16.060   7.458   6.269  0.1470 -0.1526 -0.4870
  907loPI    C113829   0.548   9.372   4.876  0.1641  0.0940 -0.1064
  907loPI    C213830   0.785   9.366   4.554  0.2481 -0.0110 -0.0433
  907loPI    C313831   0.422   9.534   4.532  0.2350 -0.0582 -0.2053
  907loPI   PO413832   0.491   9.110   4.929  0.0799 -0.0703  0.3983
  907loPI   GL113833   0.500   9.051   5.329 -0.1824 -0.2017  0.0739
  907loPI   GL213834   0.444   9.259   5.686  0.2917  0.2362 -0.0998
  907loPI   C1A13835   0.414   8.758   5.727 -0.2445  0.0189  0.1723
  907loPI   C2A13836   0.397   8.659   6.065 -0.3003 -0.0034  0.0270
  907loPI   C3A13837   0.237   8.569   6.424 -0.1157  0.0959 -0.1886
  907loPI   C4A13838   0.100   8.350   6.803 -0.0260  0.0415  0.1069
  907loPI   C5A13839  -0.037   8.185   7.223  0.3126  0.0968 -0.0135
  907loPI   C6A13840  -0.222   7.840   7.419 -0.1640  0.0148  0.0982
  907loPI   C1B13841   0.481   9.133   6.118 -0.0504  0.2643 -0.0397
  907loPI   C2B13842   0.402   9.203   6.463 -0.0140  0.0447 -0.2752
  907loPI   C3B13843   0.438   9.060   6.853  0.1377  0.0028 -0.3546
  907loPI   C4B13844   0.154   8.875   6.817  0.0956  0.1203 -0.1408
  908loPI    C113845  14.183  13.514   4.897  0.0041 -0.0876  0.2127
  908loPI    C213846  13.825  13.665   4.798  0.0012 -0.0574  0.2684
  908loPI    C313847  14.030  13.444   4.534  0.0221  0.0749  0.1729
  908loPI   PO413848  14.150  13.435   5.112  0.2996  0.1274 -0.2012
  908loPI   GL113849  14.156  13.412   5.506 -0.0846 -0.5035 -0.0169
  908loPI   GL213850  14.330  13.213   5.580 -0.0564  0.0752  0.0219
  908loPI   C1A13851  14.092  13.408   5.977  0.3973 -0.1659  0.1606
  908loPI   C2A13852  14.167  13.575   6.352  0.0399  0.0051 -0.3061
  908loPI   C3A13853  14.146  13.720   6.698 -0.1445 -0.2247  0.3824
  908loPI   C4A13854  14.200  14.071   7.006  0.0053 -0.0201 -0.0035
  908loPI   C5A13855  13.952  13.838   7.230  0.0057 -0.0606 -0.0986
  908loPI   C6A13856  14.087  13.575   7.584 -0.0262  0.1723  0.2365
  908loPI   C1B13857  14.592  13.437   5.896  0.0563 -0.0663 -0.0203
  908loPI   C2B13858  14.631  13.677   6.276 -0.0060  0.2999 -0.2657
  908loPI   C3B13859  14.671  13.965   6.675  0.1293  0.1088 -0.2561
  908loPI   C4B13860  15.112  13.934   6.914  0.4131  0.1341  0.2433
  909loPI    C113861  16.613   1.551   4.813 -0.0525 -0.2128 -0.1011
  909loPI    C213862  16.584   1.876   4.583 -0.1830 -0.0248  0.1758
  909loPI    C313863  16.866   1.603   4.508 -0.1161  0.1167 -0.1009
  909loPI   PO413864  16.592   1.634   5.075  0.2410 -0.0203 -0.2833
  909loPI   GL113865  16.571   2.002   5.362  0.2306 -0.0682 -0.2096
  909loPI   GL213866  16.426   1.698   5.558 -0.0557  0.0362 -0.1955
  909loPI   C1A13867  16.413   2.154   5.724  0.1055 -0.1082  0.0835
  909loPI   C2A13868  16.435   2.153   6.203 -0.1384  0.0041  0.0021
  909loPI   C3A13869  16.279   2.222   6.658 -0.2772 -0.0120 -0.1565
  909loPI   C4A13870  15.947   2.408   6.898 -0.1160  0.0242  0.1001
  909loPI   C5A13871  15.628   2.806   6.999 -0.1384  0.1120  0.1977
  909loPI   C6A13872  15.273   3.011   6.984  0.0753 -0.1603 -0.0700
  909loPI   C1B13873  16.483   1.676   5.972 -0.0737 -0.0554 -0.2283
  909loPI   C2B13874  16.550   1.639   6.233  0.1981  0.0094  0.0569
  909loPI   C3B13875  16.551   1.870   6.592 -0.0219 -0.0278 -0.0271
  909loPI   C4B13876  16.269   1.825   6.966 -0.1943  0.0353  0.0758
  910loPI    C113877   9.622  18.967   4.796  0.0614  0.0046 -0.2371
  910loPI    C213878   9.669  18.575   4.733 -0.1071 -0.0036 -0.3186
  910loPI    C313879   9.312  18.745   4.675 -0.0548  0.1474 -0.2041
  910loPI   PO413880   9.678  19.023   5.106 -0.0621  0.0764 -0.1571
  910loPI   GL113881   9.576  18.898   5.532  0.0481  0.2663 -0.0801
  910loPI   GL213882   9.841  19.139   5.586  0.3944 -0.0683 -0.1304
  910loPI   C1A13883   9.470  18.630   5.902  0.4927 -0.0197  0.0035
  910loPI   C2A13884   9.152  18.460   6.102 -0.0586  0.2332  0.2439
  910loPI   C3A13885   8.975  18.443   6.494 -0.3038 -0.0323  0.2429
  910loPI   C4A13886   8.703  18.662   6.879  0.2239 -0.0313 -0.0067
  910loPI   C5A13887   8.464  18.835   7.184 -0.0119  0.3902  0.0362
  910loPI   C6A13888   8.330  18.693   7.526  0.0040  0.0864 -0.2307
  910loPI   C1B13889   9.525  19.214   5.893 -0.1084 -0.0003  0.2628
  910loPI   C2B13890   9.240  19.062   6.057 -0.0266  0.0684 -0.0892
  910loPI   C3B13891   9.295  18.845   6.396 -0.0212 -0.0800 -0.0427
  910loPI   C4B13892   9.329  18.869   6.861  0.1632 -0.0726 -0.2420
  911loPI    C113893   8.984   2.637   4.585 -0.1164 -0.1548 -0.1354
  911loPI    C213894   8.787   2.648   4.237 -0.0797  0.0632 -0.1510
  911loPI    C313895   9.132   2.449   4.265 -0.3708 -0.4489 -0.0842
  911loPI   PO413896   8.867   2.713   4.771 -0.3616  0.0445 -0.1525
  911loPI   GL113897   8.926   2.693   5.221 -0.0902  0.0543  0.2037
  911loPI   GL213898   9.192   2.671   5.316  0.0225 -0.1772 -0.1150
  911loPI   C1A13899   8.616   2.796   5.486 -0.1238  0.2401  0.1243
  911loPI   C2A13900   8.670   2.877   5.881  0.1425  0.4021 -0.2452
  911loPI   C3A13901   8.885   2.962   6.223 -0.1555  0.0166  0.0225
  911loPI   C4A13902   8.754   3.042   6.605  0.0362  0.2768 -0.2113
  911loPI   C5A13903   8.460   3.179   6.929 -0.0478 -0.2497 -0.2405
  911loPI   C6A13904   8.104   3.420   7.124 -0.1850 -0.1370  0.1319
  911loPI   C1B13905   9.183   2.808   5.811 -0.1955 -0.2440  0.0416
  911loPI   C2B13906   9.277   2.617   6.196  0.0418 -0.3796 -0.0126
  911loPI   C3B13907   9.138   2.708   6.693 -0.2201 -0.2430  0.0464
  911loPI   C4B13908   8.981   2.495   7.048  0.1010 -0.0300 -0.0325
  912loPI    C113909  15.351   2.454   4.869  0.1027  0.2342 -0.1271
  912loPI    C213910  15.327   2.722   4.573 -0.3380  0.0331 -0.2826
  912loPI    C313911  15.481   2.360   4.502 -0.1100  0.1063 -0.1713
  912loPI   PO413912  15.078   2.431   4.943 -0.1357 -0.0950  0.0657
  912loPI   GL113913  14.944   2.591   5.381  0.1085 -0.1853  0.3343
  912loPI   GL213914  15.237   2.704   5.431  0.0799  0.0324  0.2619
  912loPI   C1A13915  14.835   2.453   5.793 -0.2228 -0.1758  0.0802
  912loPI   C2A13916  15.076   2.732   6.083 -0.0916 -0.0447 -0.4362
  912loPI   C3A13917  15.222   3.004   6.234 -0.0254  0.1704 -0.1133
  912loPI   C4A13918  15.513   3.022   6.500  0.2005 -0.0857  0.0327
  912loPI   C5A13919  15.872   3.206   6.635  0.4561  0.0255 -0.1661
  912loPI   C6A13920  16.295   3.176   6.536  0.1201  0.0190  0.0387
  912loPI   C1B13921  15.335   2.964   5.688 -0.1219  0.2258  0.1958
  912loPI   C2B13922  15.563   3.224   5.846 -0.1758 -0.1451  0.0357
  912loPI   C3B13923  15.583   3.461   6.241  0.3527 -0.0311 -0.3089
  912loPI   C4B13924  15.653   3.659   6.570 -0.0661  0.3250 -0.1219
  913loPI    C113925   7.269  14.675   4.703 -0.0920  0.0979 -0.1957
  913loPI    C213926   7.638  14.779   4.817  0.0312 -0.1981 -0.3128
  913loPI    C313927   7.401  15.047   4.638  0.1079  0.0553 -0.0440
  913loPI   PO413928   7.089  14.536   4.972 -0.0171  0.1110  0.3180
  913loPI   GL113929   7.112  14.708   5.470 -0.0109 -0.0151  0.0872
  913loPI   GL213930   6.844  14.910   5.549  0.2739  0.0685  0.1442
  913loPI   C1A13931   6.892  14.385   5.642 -0.2256  0.4977 -0.2519
  913loPI   C2A13932   6.897  14.165   5.923 -0.0128 -0.1158  0.1440
  913loPI   C3A13933   6.910  14.295   6.358  0.0762  0.0779 -0.3313
  913loPI   C4A13934   6.881  14.370   6.743 -0.0366  0.3381 -0.1837
  913loPI   C5A13935   6.765  14.676   7.163  0.0857  0.0093  0.5269
  913loPI   C6A13936   6.265  14.792   7.376  0.2366 -0.0460 -0.0667
  913loPI   C1B13937   6.780  14.732   5.960  0.1792 -0.0189 -0.3984
  913loPI   C2B13938   6.874  14.841   6.351 -0.0215 -0.3767 -0.3359
  913loPI   C3B13939   6.919  15.091   6.846  0.4063 -0.1149  0.1344
  913loPI   C4B13940   7.177  15.330   7.200 -0.1162  0.1110  0.3833
  914loPI    C113941   3.779  11.046   4.751  0.1274 -0.0262 -0.1465
  914loPI    C213942   4.018  10.749   4.629  0.1067  0.0097 -0.2751
  914loPI    C313943   4.051  11.113   4.465  0.0035  0.0297 -0.2523
  914loPI   PO413944   3.821  11.086   5.045 -0.1089  0.0245  0.2227
  914loPI   GL113945   3.699  11.007   5.448  0.0111  0.2088 -0.0281
  914loPI   GL213946   3.818  10.713   5.481 -0.2505  0.1714  0.1151
  914loPI   C1A13947   3.848  11.249   5.831 -0.0058  0.0522  0.1094
  914loPI   C2A13948   4.157  11.311   6.255  0.0343 -0.0204  0.0590
  914loPI   C3A13949   4.151  11.387   6.723 -0.1533  0.1637 -0.0974
  914loPI   C4A13950   4.296  11.595   7.073  0.0496  0.2380  0.1138
  914loPI   C5A13951   4.536  11.884   7.216  0.2831  0.0355  0.0955
  914loPI   C6A13952   4.647  12.359   7.167 -0.3845  0.0658  0.2913
  914loPI   C1B13953   3.635  10.761   5.919  0.1668  0.0102 -0.1677
  914loPI   C2B13954   3.919  10.845   6.247 -0.2459  0.1093 -0.4148
  914loPI   C3B13955   3.915  10.933   6.683  0.4455  0.2831 -0.0796
  914loPI   C4B13956   4.010  10.884   7.117 -0.0152 -0.1205 -0.4016
  915loPI    C113957  17.695  10.747   5.036  0.0939  0.0613 -0.0515
  915loPI    C213958  17.334  10.625   4.914  0.0224  0.1085  0.1099
  915loPI    C313959  17.475  10.981   4.798  0.0589  0.0484 -0.0320
  915loPI   PO413960  17.680  10.621   5.300  0.2354 -0.0628  0.2258
  915loPI   GL113961  17.679  10.695   5.741 -0.0733  0.0591 -0.0389
  915loPI   GL213962  17.630  11.014   5.823 -0.0447 -0.1045  0.1147
  915loPI   C1A13963  17.458  10.652   6.123  0.0112  0.0133 -0.0045
  915loPI   C2A13964  17.337  10.740   6.559 -0.0312 -0.2082  0.1584
  915loPI   C3A13965  17.333  10.971   6.854  0.0428 -0.0770 -0.2943
  915loPI   C4A13966  17.378  11.192   7.328 -0.0466 -0.1511  0.1251
  915loPI   C5A13967  17.307  11.230   7.701  0.1179 -0.0131 -0.2855
  915loPI   C6A13968  17.583  11.501   8.029 -0.3725 -0.1375 -0.1632
  915loPI   C1B13969  17.739  11.060   6.259  0.1236 -0.0136  0.0204
  915loPI   C2B13970  17.779  11.153   6.632  0.2007 -0.1396  0.0116
  915loPI   C3B13971  17.954  11.276   6.953 -0.1164 -0.1349  0.1042
  915loPI   C4B13972  18.249  11.403   7.325  0.1647  0.3148  0.2615
  916loPI    C113973   3.758   4.463   4.773 -0.0293 -0.1825  0.1318
  916loPI    C213974   3.360   4.484   4.739 -0.0096 -0.0887 -0.0538
  916loPI    C313975   3.556   4.161   4.608 -0.0415 -0.2202  0.2150
  916loPI   PO413976   3.892   4.560   5.080  0.1154 -0.2994 -0.1024
  916loPI   GL113977   3.759   4.779   5.504  0.0871  0.1282 -0.0195
  916loPI   GL213978   3.654   5.041   5.586  0.2227  0.2251  0.2242
  916loPI   C1A13979   4.138   4.623   5.670  0.0107 -0.0158  0.0223
  916loPI   C2A13980   4.411   4.888   5.933 -0.0785  0.2684  0.0287
  916loPI   C3A13981   4.733   4.756   6.211 -0.1021  0.0230  0.1570
  916loPI   C4A13982   4.782   4.888   6.715  0.0691 -0.2359 -0.2362
  916loPI   C5A13983   4.688   4.985   7.241  0.0725 -0.3228  0.2569
  916loPI   C6A13984   4.632   4.986   7.655  0.0012 -0.0215 -0.1099
  916loPI   C1B13985   3.692   5.096   5.944 -0.1467 -0.1439 -0.1158
  916loPI   C2B13986   3.911   4.772   6.180 -0.0397  0.1125  0.1300
  916loPI   C3B13987   3.982   4.608   6.635  0.1026 -0.2311 -0.0727
  916loPI   C4B13988   3.944   4.563   7.110  0.1792  0.1275 -0.0566
  917loPI    C113989   4.069   9.968   4.777 -0.0257 -0.1178  0.0064
  917loPI    C213990   3.674   9.997   4.722 -0.0914 -0.0176  0.4841
  917loPI    C313991   3.916  10.280   4.578 -0.1795 -0.1239  0.1130
  917loPI   PO413992   4.099   9.919   5.043  0.0180 -0.0901 -0.1107
  917loPI   GL113993   3.971  10.097   5.319  0.2550 -0.1394 -0.0582
  917loPI   GL213994   3.651   9.927   5.326  0.2843 -0.4522 -0.1133
  917loPI   C1A13995   4.091  10.129   5.701  0.1297  0.0301  0.2408
  917loPI   C2A13996   4.126  10.360   5.990 -0.1307 -0.0614 -0.2584
  917loPI   C3A13997   4.244  10.467   6.418  0.2733  0.0377 -0.2389
  917loPI   C4A13998   4.242  10.531   6.845  0.0848  0.1822 -0.2746
  917loPI   C5A13999   4.114  10.320   7.238 -0.0161 -0.2055  0.0082
  917loPI   C6A14000   4.405  10.200   7.500  0.1990 -0.1232 -0.0263
  917loPI   C1B14001   3.623  10.004   5.733 -0.2496 -0.1066 -0.1497
  917loPI   C2B14002   3.596  10.258   6.050 -0.0840 -0.2217 -0.1393
  917loPI   C3B14003   3.757  10.357   6.505  0.0080 -0.2582 -0.0063
  917loPI   C4B14004   3.694  10.371   6.875  0.1678  0.1336 -0.1438
  918loPI    C114005   7.573  10.515   4.488 -0.2108 -0.3240 -0.0381
  918loPI    C214006   7.579  10.866   4.295 -0.0755 -0.2787  0.0467
  918loPI    C314007   7.480  10.531   4.099 -0.1640 -0.1999 -0.0446
  918loPI   PO414008   7.427  10.569   4.647  0.2467 -0.1156 -0.1247
  918loPI   GL114009   7.366  10.737   5.113 -0.1300 -0.0949  0.3290
  918loPI   GL214010   7.365  11.096   5.191  0.0476 -0.3391  0.0706
  918loPI   C1A14011   7.347  10.704   5.498  0.1273 -0.1614  0.0900
  918loPI   C2A14012   7.481  10.717   6.006 -0.2176 -0.1882  0.0115
  918loPI   C3A14013   7.546  10.758   6.421 -0.2920  0.1301  0.3552
  918loPI   C4A14014   7.837  10.817   6.809  0.0695 -0.2653 -0.1099
  918loPI   C5A14015   7.796  10.983   7.172 -0.5676 -0.1079  0.5590
  918loPI   C6A14016   7.652  10.844   7.504  0.0596 -0.2045  0.2698
  918loPI   C1B14017   7.284  11.220   5.721  0.0594 -0.1082 -0.1462
  918loPI   C2B14018   7.177  11.105   6.094  0.3764  0.0152  0.0006
  918loPI   C3B14019   7.087  11.254   6.496 -0.2611  0.3368  0.0867
  918loPI   C4B14020   6.902  11.133   6.900 -0.0714  0.1331  0.2012
  919loPI    C114021  10.981  13.329   4.569 -0.1552 -0.3851 -0.1906
  919loPI    C214022  10.736  13.523   4.319  0.0657  0.1105 -0.0352
  919loPI    C314023  10.900  13.175   4.209 -0.3942 -0.0329 -0.2929
  919loPI   PO414024  10.896  13.452   4.887  0.1449 -0.1772  0.4658
  919loPI   GL114025  10.883  13.828   5.193 -0.0762 -0.2309 -0.0269
  919loPI   GL214026  11.179  13.734   5.209  0.2137  0.0626  0.3515
  919loPI   C1A14027  11.026  14.081   5.530  0.2747 -0.0235  0.0162
  919loPI   C2A14028  10.969  14.417   5.818 -0.0316 -0.2428  0.3136
  919loPI   C3A14029  11.238  14.636   6.085  0.1080  0.1302  0.1115
  919loPI   C4A14030  11.506  14.702   6.480  0.1125 -0.0152  0.1130
  919loPI   C5A14031  11.858  14.479   6.749 -0.0291 -0.1676  0.2053
  919loPI   C6A14032  12.147  14.729   7.019 -0.3046  0.2214  0.1059
  919loPI   C1B14033  11.462  13.645   5.618  0.4415  0.0703  0.1657
  919loPI   C2B14034  11.598  13.346   5.899  0.2299  0.0038 -0.0254
  919loPI   C3B14035  11.699  13.224   6.338 -0.3032 -0.1008 -0.1923
  919loPI   C4B14036  11.493  13.047   6.770 -0.1007 -0.0322  0.0950
  920loPI    C114037  13.666   4.133   4.893 -0.0121 -0.1600 -0.1206
  920loPI    C214038  13.383   4.345   4.708  0.1344  0.0993 -0.0525
  920loPI    C314039  13.577   4.056   4.511  0.0247  0.1157 -0.1862
  920loPI   PO414040  13.795   4.381   5.081  0.0656  0.0136  0.2136
  920loPI   GL114041  13.669   4.609   5.473  0.2286 -0.0217  0.0649
  920loPI   GL214042  14.085   4.504   5.529  0.1550  0.0497  0.1206
  920loPI   C1A14043  13.582   5.010   5.658  0.1925  0.2373 -0.2050
  920loPI   C2A14044  13.461   5.184   5.984 -0.0549 -0.2092  0.0927
  920loPI   C3A14045  13.492   5.482   6.257  0.2252  0.2335  0.0075
  920loPI   C4A14046  13.636   5.525   6.590  0.0086  0.0043 -0.1798
  920loPI   C5A14047  13.597   5.806   6.901 -0.2511  0.1486 -0.0434
  920loPI   C6A14048  13.418   6.090   7.075  0.2198 -0.0194 -0.1126
  920loPI   C1B14049  13.996   4.752   5.916  0.1234 -0.2255  0.1710
  920loPI   C2B14050  13.736   4.903   6.224 -0.3186  0.1014 -0.0726
  920loPI   C3B14051  13.403   4.954   6.428 -0.3596 -0.0230  0.0513
  920loPI   C4B14052  13.074   5.308   6.476  0.3626  0.1899 -0.0670
  921loPI    C114053  13.086  13.981   4.903  0.0607 -0.0601  0.1401
  921loPI    C214054  12.852  13.683   4.775  0.2580 -0.0493 -0.2594
  921loPI    C314055  12.822  14.047   4.610  0.2093  0.0839  0.0368
  921loPI   PO414056  13.048  13.953   5.193 -0.0473 -0.0908  0.3571
  921loPI   GL114057  13.116  13.584   5.263 -0.0130  0.2352 -0.1044
  921loPI   GL214058  13.197  13.375   5.301 -0.3405  0.1182 -0.5054
  921loPI   C1A14059  13.008  13.705   5.789  0.2999  0.1087  0.1485
  921loPI   C2A14060  12.955  14.062   6.076 -0.1973 -0.1568  0.1879
  921loPI   C3A14061  12.697  14.267   6.343 -0.4471 -0.1212 -0.1823
  921loPI   C4A14062  12.367  14.271   6.620 -0.1115  0.1786  0.1557
  921loPI   C5A14063  12.161  14.111   6.884 -0.0847  0.0873  0.5969
  921loPI   C6A14064  11.743  13.977   6.909  0.0064  0.0003 -0.0405
  921loPI   C1B14065  12.879  13.187   5.600  0.0485  0.0217  0.3268
  921loPI   C2B14066  12.887  13.012   6.019  0.0059  0.1376 -0.3192
  921loPI   C3B14067  12.914  12.587   6.164  0.2692 -0.0672  0.2726
  921loPI   C4B14068  12.939  12.387   6.567 -0.2585 -0.1196 -0.3412
  922loPI    C114069  17.451   2.788   4.732  0.0401  0.1122 -0.1879
  922loPI    C214070  17.076   2.921   4.769 -0.0427 -0.1822  0.0782
  922loPI    C314071  17.195   2.751   4.427 -0.1159  0.0156 -0.0473
  922loPI   PO414072  17.610   2.635   4.936 -0.0536 -0.2090  0.0383
  922loPI   GL114073  17.780   2.488   5.341  0.1055  0.0287  0.0480
  922loPI   GL214074  18.061   2.393   5.347  0.0877 -0.3365 -0.2174
  922loPI   C1A14075  17.737   2.454   5.748 -0.2457  0.0064  0.2313
  922loPI   C2A14076  17.928   2.393   6.212 -0.0551  0.0281 -0.0582
  922loPI   C3A14077  17.871   2.533   6.726 -0.2252 -0.0646  0.3609
  922loPI   C4A14078  17.984   2.446   7.050 -0.2980  0.2042 -0.2313
  922loPI   C5A14079  18.324   2.350   7.273  0.2495 -0.2256  0.1155
  922loPI   C6A14080  18.749   2.331   7.455  0.1157  0.0531  0.1365
  922loPI   C1B14081  18.198   2.252   5.736  0.0106 -0.1682  0.1532
  922loPI   C2B14082  18.352   2.167   6.131  0.1443  0.2754 -0.1028
  922loPI   C3B14083  18.307   2.241   6.590 -0.0549  0.0798  0.0878
  922loPI   C4B14084  18.176   2.006   6.920 -0.1198  0.1527 -0.1862
  923loPI    C114085   6.239  13.722   4.965 -0.1032  0.1228 -0.1089
  923loPI    C214086   6.096  13.363   4.862  0.0266  0.0828 -0.1525
  923loPI    C314087   6.474  13.459   4.776  0.0278  0.1858 -0.0350
  923loPI   PO414088   5.976  13.842   4.981  0.0284 -0.0256 -0.0663
  923loPI   GL114089   5.811  13.994   5.294  0.4190  0.1329  0.2395
  923loPI   GL214090   6.119  13.744   5.467 -0.1093  0.1256  0.0780
  923loPI   C1A14091   5.639  13.756   5.620 -0.0105  0.1547  0.1841
  923loPI   C2A14092   5.621  13.889   6.071 -0.1548  0.0550  0.3023
  923loPI   C3A14093   5.530  13.843   6.431 -0.2394  0.1708 -0.0793
  923loPI   C4A14094   5.682  13.760   6.864 -0.2921 -0.1396 -0.0389
  923loPI   C5A14095   6.063  13.697   7.066 -0.0681 -0.2474 -0.0420
  923loPI   C6A14096   6.046  13.844   7.502 -0.0410  0.2557  0.1056
  923loPI   C1B14097   6.095  13.883   5.984  0.3274 -0.0972 -0.0557
  923loPI   C2B14098   6.509  13.926   6.271 -0.1073  0.1146 -0.2298
  923loPI   C3B14099   6.814  13.796   6.568 -0.1106  0.1259  0.1789
  923loPI   C4B14100   6.877  13.696   6.919  0.0402 -0.0304  0.2439
  924loPI    C114101   3.538   7.299   4.741  0.1866 -0.2143  0.0821
  924loPI    C214102   3.776   7.535   4.523  0.0424 -0.0746  0.0743
  924loPI    C314103   3.704   7.160   4.404 -0.0227 -0.0046 -0.1114
  924loPI   PO414104   3.612   7.198   4.970  0.1459 -0.1992  0.3617
  924loPI   GL114105   3.619   7.293   5.383  0.0112 -0.0194 -0.1128
  924loPI   GL214106   3.362   7.476   5.564 -0.1581 -0.1550  0.1615
  924loPI   C1A14107   3.854   7.451   5.683  0.1857  0.0597 -0.1008
  924loPI   C2A14108   3.726   7.550   6.106 -0.1764 -0.1284 -0.1575
  924loPI   C3A14109   3.528   7.351   6.448  0.3688 -0.1759  0.0908
  924loPI   C4A14110   3.526   7.441   6.784 -0.4430  0.0030 -0.0712
  924loPI   C5A14111   3.206   7.310   7.144 -0.0171  0.1047  0.5259
  924loPI   C6A14112   2.969   7.090   7.286  0.3394  0.0376  0.0365
  924loPI   C1B14113   3.419   7.059   5.774 -0.0293 -0.0952 -0.1057
  924loPI   C2B14114   3.715   7.069   6.055 -0.2765  0.0719 -0.1976
  924loPI   C3B14115   4.225   7.026   6.221  0.0014  0.1925  0.1006
  924loPI   C4B14116   4.428   6.891   6.595 -0.0893  0.1421 -0.1576
  925loPI    C114117   0.521  10.055   5.054 -0.0322 -0.2189  0.1440
  925loPI    C214118   0.896   9.944   5.139  0.0662  0.0368  0.0555
  925loPI    C314119   0.748   9.882   4.773  0.1763  0.3314 -0.0424
  925loPI   PO414120   0.497  10.351   5.247  0.1702 -0.1261 -0.0906
  925loPI   GL114121   0.315  10.511   5.570  0.0643  0.2379 -0.0137
  925loPI   GL214122   0.415  10.327   5.837  0.1401  0.1187  0.3120
  925loPI   C1A14123   0.368  10.801   5.853 -0.1841  0.1471  0.0022
  925loPI   C2A14124   0.331  11.012   6.203  0.3907 -0.2552  0.2985
  925loPI   C3A14125   0.298  10.979   6.554 -0.1599  0.2576  0.0229
  925loPI   C4A14126   0.196  10.894   6.995  0.3668  0.0407 -0.0898
  925loPI   C5A14127   0.303  10.475   7.257 -0.1362  0.1996 -0.0778
  925loPI   C6A14128   0.133  10.243   7.522  0.1710 -0.0652 -0.3185
  925loPI   C1B14129   0.244  10.538   6.303 -0.2698  0.1362  0.2740
  925loPI   C2B14130   0.215  10.517   6.695  0.4059  0.0305 -0.0360
  925loPI   C3B14131   0.381  10.161   6.765 -0.0135 -0.0164  0.0935
  925loPI   C4B14132   0.708  10.265   7.007  0.0594 -0.1586 -0.0118
  926loPI    C114133   6.770  14.295   4.733  0.0744  0.1971 -0.0269
  926loPI    C214134   6.484  14.365   4.462 -0.1125  0.0050  0.1173
  926loPI    C314135   6.514  14.598   4.786 -0.0893  0.0404  0.0898
  926loPI   PO414136   6.674  13.983   4.819  0.2171  0.0865 -0.3305
  926loPI   GL114137   6.641  13.868   5.285  0.0994 -0.0608 -0.0295
  926loPI   GL214138   6.902  13.733   5.504 -0.0730 -0.0673  0.1888
  926loPI   C1A14139   6.482  13.993   5.698 -0.2637  0.2566  0.2558
  926loPI   C2A14140   6.393  14.327   5.919 -0.2560  0.0853 -0.0148
  926loPI   C3A14141   6.426  14.378   6.394  0.2476 -0.1705 -0.1849
  926loPI   C4A14142   6.267  14.509   6.895 -0.0179  0.0717 -0.0814
  926loPI   C5A14143   6.191  14.275   7.256  0.0458  0.2737  0.0610
  926loPI   C6A14144   6.356  14.277   7.602 -0.2602  0.0550 -0.1552
  926loPI   C1B14145   6.928  13.668   5.949 -0.0499  0.0670  0.1622
  926loPI   C2B14146   7.084  13.473   6.260  0.1577 -0.0816  0.0747
  926loPI   C3B14147   7.266  13.441   6.643 -0.0174 -0.0390  0.2573
  926loPI   C4B14148   7.482  13.205   6.763  0.1627 -0.0697 -0.1244
  927loPI    C114149  10.905   5.352   4.679  0.1057  0.0313 -0.2059
  927loPI    C214150  10.880   4.953   4.686 -0.0023  0.0383 -0.1815
  927loPI    C314151  10.599   5.167   4.500  0.0848  0.1007 -0.2419
  927loPI   PO414152  11.072   5.404   4.900  0.0221  0.1447 -0.1229
  927loPI   GL114153  11.173   5.117   5.240  0.2983 -0.0939  0.0718
  927loPI   GL214154  11.408   5.355   5.323 -0.2620 -0.1145  0.0264
  927loPI   C1A14155  11.149   5.092   5.757  0.0669 -0.1562  0.1145
  927loPI   C2A14156  11.059   4.984   6.105  0.0553  0.1465  0.1392
  927loPI   C3A14157  10.965   4.858   6.468 -0.0601  0.2721 -0.2582
  927loPI   C4A14158  10.896   4.923   6.874 -0.0271  0.1620 -0.0912
  927loPI   C5A14159  10.910   4.867   7.304  0.1449  0.1075 -0.0219
  927loPI   C6A14160  11.007   4.888   7.741  0.1278  0.0197  0.1267
  927loPI   C1B14161  11.626   5.055   5.480 -0.1510 -0.1986  0.1533
  927loPI   C2B14162  11.974   5.016   5.738  0.2753  0.0939 -0.1589
  927loPI   C3B14163  12.052   5.291   6.068 -0.1647  0.2183  0.5643
  927loPI   C4B14164  12.076   5.550   6.412 -0.0205  0.0392  0.0308
  928loPI    C114165   1.005  14.126   5.086  0.1190  0.1785  0.1440
  928loPI    C214166   1.010  13.799   4.856  0.5002  0.2870 -0.0092
  928loPI    C314167   0.802  14.120   4.741 -0.0667  0.0294  0.2531
  928loPI   PO414168   0.954  14.077   5.324 -0.2571 -0.0995 -0.1267
  928loPI   GL114169   0.988  14.281   5.688 -0.1586 -0.1033  0.0475
  928loPI   GL214170   1.241  14.489   5.742  0.2342 -0.1213  0.0436
  928loPI   C1A14171   1.089  14.126   6.100  0.1687 -0.1164 -0.0449
  928loPI   C2A14172   1.064  14.229   6.477 -0.1778  0.0804  0.2576
  928loPI   C3A14173   1.347  14.440   6.622 -0.2062 -0.2517  0.0270
  928loPI   C4A14174   1.513  14.669   6.960 -0.2101 -0.0347 -0.1438
  928loPI   C5A14175   1.739  14.822   7.251  0.1643  0.1766 -0.0672
  928loPI   C6A14176   1.994  15.157   7.408  0.1326 -0.0121  0.0282
  928loPI   C1B14177   1.510  14.597   6.130  0.0184  0.2432  0.1164
  928loPI   C2B14178   1.774  14.752   6.437  0.3890  0.3934 -0.1091
  928loPI   C3B14179   1.970  14.736   6.806  0.0758  0.1981 -0.1333
  928loPI   C4B14180   2.261  14.790   7.076  0.2239  0.2005 -0.0016
  929loPI    C114181   4.425  10.492   4.789 -0.0075  0.1707  0.2131
  929loPI    C214182   4.416  10.234   4.484  0.1128  0.1237  0.2490
  929loPI    C314183   4.425  10.627   4.413 -0.2309  0.1244  0.1951
  929loPI   PO414184   4.270  10.408   4.957  0.0349 -0.0090  0.1651
  929loPI   GL114185   4.297  10.595   5.344  0.0754  0.0145  0.0026
  929loPI   GL214186   4.617  10.709   5.284  0.0082  0.0317  0.1306
  929loPI   C1A14187   4.566  10.436   5.701 -0.0911  0.1299 -0.0489
  929loPI   C2A14188   4.710  10.383   6.189 -0.0864 -0.0473  0.0271
  929loPI   C3A14189   4.683  10.194   6.603  0.0733 -0.0585  0.0389
  929loPI   C4A14190   4.681  10.198   7.056  0.2590  0.2311  0.1940
  929loPI   C5A14191   4.883  10.258   7.446  0.0542 -0.1529  0.3056
  929loPI   C6A14192   4.741  10.199   7.842  0.1830  0.1547 -0.0482
  929loPI   C1B14193   4.692  11.125   5.512  0.0540  0.0979 -0.0900
  929loPI   C2B14194   4.610  11.189   5.897  0.1218  0.1640 -0.0328
  929loPI   C3B14195   4.665  11.365   6.286  0.0204 -0.1337  0.0716
  929loPI   C4B14196   4.688  11.616   6.704  0.1711 -0.0408 -0.0954
  930loPI    C114197  15.330   0.861   4.840  0.0404 -0.1086 -0.0904
  930loPI    C214198  15.012   1.001   4.640 -0.0119 -0.1457 -0.0338
  930loPI    C314199  15.376   1.016   4.474 -0.0070  0.1168 -0.0022
  930loPI   PO414200  15.323   0.591   4.946 -0.0911  0.1042  0.2043
  930loPI   GL114201  15.372   0.496   5.330  0.4441  0.1419 -0.0447
  930loPI   GL214202  15.234   0.753   5.454  0.0422  0.2138  0.0053
  930loPI   C1A14203  15.443   0.375   5.808 -0.0990 -0.0321 -0.1664
  930loPI   C2A14204  15.370   0.539   6.178  0.0907  0.0645 -0.0346
  930loPI   C3A14205  15.067   0.799   6.368 -0.1637 -0.2673 -0.0103
  930loPI   C4A14206  14.809   0.765   6.680 -0.1969  0.0322  0.0224
  930loPI   C5A14207  14.576   0.953   7.100  0.4121 -0.0130  0.3219
  930loPI   C6A14208  14.566   1.184   7.502 -0.5044  0.1770 -0.0026
  930loPI   C1B14209  15.436   0.903   5.885 -0.0160  0.1747  0.3700
  930loPI   C2B14210  15.507   1.054   6.248 -0.0295 -0.0386 -0.0936
  930loPI   C3B14211  15.616   1.252   6.631 -0.0526  0.0187 -0.1872
  930loPI   C4B14212  15.356   1.576   6.983 -0.0341 -0.1323 -0.0072
  931loPI    C114213  13.970   2.337   5.082 -0.1615  0.2274  0.0560
  931loPI    C214214  14.339   2.200   5.153 -0.1327  0.0313 -0.4348
  931loPI    C314215  14.024   1.956   5.188 -0.2087  0.1696 -0.1234
  931loPI   PO414216  13.882   2.448   5.200  0.0035  0.2919 -0.0693
  931loPI   GL114217  14.112   2.439   5.647  0.2663 -0.1221 -0.0364
  931loPI   GL214218  14.320   2.362   5.639 -0.2886  0.0740  0.1111
  931loPI   C1A14219  14.154   2.633   6.083 -0.1984 -0.1341 -0.1598
  931loPI   C2A14220  14.174   2.443   6.444  0.1477 -0.2265  0.2118
  931loPI   C3A14221  14.118   2.455   6.936  0.1583 -0.4171  0.2192
  931loPI   C4A14222  14.261   2.675   7.278 -0.1189 -0.1596  0.3968
  931loPI   C5A14223  14.563   3.022   7.200 -0.0142  0.2240  0.2570
  931loPI   C6A14224  14.523   3.412   7.288 -0.2064  0.1655  0.1204
  931loPI   C1B14225  14.527   2.203   5.976  0.0275  0.1695  0.1274
  931loPI   C2B14226  14.418   2.014   6.464  0.1393 -0.3513  0.1790
  931loPI   C3B14227  14.455   1.920   6.925 -0.1288 -0.0692  0.1034
  931loPI   C4B14228  14.451   1.720   7.398 -0.0655  0.1035 -0.0284
  932loPI    C114229  15.128   6.418   4.832  0.1482  0.1228  0.1224
  932loPI    C214230  14.887   6.464   4.515  0.3252  0.2038 -0.0019
  932loPI    C314231  15.223   6.248   4.482  0.1243 -0.1578  0.2496
  932loPI   PO414232  14.989   6.473   5.030  0.1296 -0.3948  0.0767
  932loPI   GL114233  15.071   6.811   5.373  0.1713 -0.1829 -0.1774
  932loPI   GL214234  15.162   6.452   5.536 -0.0087  0.0122 -0.0373
  932loPI   C1A14235  14.668   6.849   5.602  0.2200 -0.0977  0.0329
  932loPI   C2A14236  14.609   6.996   5.993 -0.0023  0.2767  0.1196
  932loPI   C3A14237  14.574   7.098   6.460 -0.0828 -0.0057 -0.1675
  932loPI   C4A14238  14.726   7.258   6.789 -0.4711 -0.1265 -0.0009
  932loPI   C5A14239  15.053   7.322   7.172  0.1644  0.0649  0.0774
  932loPI   C6A14240  15.375   7.165   7.360  0.1759 -0.0107  0.0058
  932loPI   C1B14241  15.109   6.730   5.898 -0.0579 -0.1281 -0.0745
  932loPI   C2B14242  15.204   6.548   6.316  0.0783 -0.0791  0.0152
  932loPI   C3B14243  15.195   6.310   6.737 -0.0195  0.2618 -0.0229
  932loPI   C4B14244  14.800   6.319   7.048  0.0083 -0.0753  0.1428
  933loPI    C114245   9.618   4.388   4.786  0.2080 -0.0765 -0.0244
  933loPI    C214246   9.791   4.679   4.573 -0.1217 -0.0523 -0.2673
  933loPI    C314247   9.464   4.757   4.789  0.0992 -0.1223  0.1019
  933loPI   PO414248   9.753   4.263   4.908 -0.3891 -0.2044  0.1044
  933loPI   GL114249   9.693   4.220   5.369  0.0601  0.0155 -0.1609
  933loPI   GL214250   9.648   4.563   5.330 -0.0685 -0.1494  0.0675
  933loPI   C1A14251   9.718   4.200   5.872  0.1597 -0.0681  0.0689
  933loPI   C2A14252   9.669   4.151   6.219 -0.1223  0.1525 -0.1448
  933loPI   C3A14253   9.583   4.291   6.580  0.0731 -0.1242  0.2739
  933loPI   C4A14254   9.569   4.505   7.060 -0.2373 -0.0006 -0.0272
  933loPI   C5A14255   9.796   4.656   7.520 -0.0174 -0.1676 -0.2058
  933loPI   C6A14256  10.081   4.795   7.791 -0.0982 -0.0100 -0.1831
  933loPI   C1B14257   9.709   4.700   5.762  0.1255  0.1654 -0.1327
  933loPI   C2B14258   9.679   4.763   6.170  0.1209  0.1584 -0.2736
  933loPI   C3B14259   9.835   4.768   6.632  0.0597  0.0828 -0.3250
  933loPI   C4B14260  10.021   4.857   7.064  0.3425 -0.1733 -0.0477
  934loPI    C114261  17.447   3.367   4.766 -0.1109 -0.2063  0.0521
  934loPI    C214262  17.458   3.581   4.428 -0.0530 -0.0184  0.1712
  934loPI    C314263  17.642   3.226   4.446  0.0870  0.0471  0.0574
  934loPI   PO414264  17.376   3.570   4.913 -0.1416  0.3046  0.0504
  934loPI   GL114265  17.304   3.628   5.292 -0.0428 -0.0532  0.0027
  934loPI   GL214266  17.049   3.716   5.345  0.0684 -0.2066 -0.1071
  934loPI   C1A14267  17.189   3.334   5.548  0.1512  0.3072 -0.1274
  934loPI   C2A14268  17.184   3.446   5.923  0.1747  0.2522 -0.0242
  934loPI   C3A14269  17.219   3.417   6.370  0.0184  0.1074 -0.1003
  934loPI   C4A14270  17.142   3.607   6.872  0.0700  0.0457 -0.3125
  934loPI   C5A14271  17.059   3.415   7.279  0.1492  0.3564 -0.1000
  934loPI   C6A14272  17.230   3.051   7.341  0.3666  0.2001  0.1147
  934loPI   C1B14273  16.745   3.737   5.593 -0.0749  0.0405  0.1152
  934loPI   C2B14274  16.505   3.750   5.955  0.1868  0.0476 -0.0824
  934loPI   C3B14275  16.383   4.018   6.195 -0.0502 -0.0913 -0.1320
  934loPI   C4B14276  16.048   4.144   6.446  0.0303  0.0165  0.3109
  935loPI    C114277  16.871   6.931   4.857 -0.1665 -0.3074 -0.1140
  935loPI    C214278  16.586   6.815   4.601 -0.1307 -0.1436 -0.2295
  935loPI    C314279  16.886   7.048   4.475 -0.0376 -0.1752 -0.0691
  935loPI   PO414280  17.013   6.791   5.027 -0.1389  0.4651 -0.0549
  935loPI   GL114281  17.470   6.759   5.221  0.0366 -0.3310 -0.2872
  935loPI   GL214282  17.201   6.566   5.425  0.3875  0.2912 -0.0833
  935loPI   C1A14283  17.554   7.108   5.612 -0.1610  0.2485 -0.0655
  935loPI   C2A14284  17.510   6.966   6.057  0.0794 -0.1127 -0.0886
  935loPI   C3A14285  17.474   7.153   6.485 -0.0887 -0.1118 -0.3116
  935loPI   C4A14286  17.798   7.134   6.793  0.4514 -0.4790  0.1689
  935loPI   C5A14287  18.235   7.065   7.026  0.2767 -0.1562 -0.0404
  935loPI   C6A14288  18.646   6.869   6.904  0.0182 -0.2848  0.0473
  935loPI   C1B14289  17.583   6.587   5.755  0.2519 -0.4018 -0.0486
  935loPI   C2B14290  17.735   6.440   6.154  0.1043  0.0416 -0.1939
  935loPI   C3B14291  17.624   6.653   6.484  0.1389 -0.0168  0.2872
  935loPI   C4B14292  17.489   6.452   6.878 -0.1340 -0.3126  0.2458
  936loPI    C114293  10.799   0.571   4.789 -0.1310  0.0306  0.1018
  936loPI    C214294  10.691   0.868   4.544 -0.0461  0.0612  0.1013
  936loPI    C314295  11.078   0.778   4.591 -0.0681 -0.0104  0.1470
  936loPI   PO414296  10.802   0.623   4.958  0.2724 -0.0189 -0.0209
  936loPI   GL114297  11.104   0.713   5.216 -0.0007 -0.0661  0.0451
  936loPI   GL214298  11.100   0.336   5.288 -0.0644  0.1182 -0.0722
  936loPI   C1A14299  11.031   0.872   5.636 -0.0763 -0.2155 -0.2515
  936loPI   C2A14300  10.903   0.582   5.972  0.0733 -0.0091 -0.0900
  936loPI   C3A14301  11.079   0.518   6.454 -0.1840 -0.2100 -0.0183
  936loPI   C4A14302  11.137   0.082   6.565 -0.1047 -0.0912  0.3121
  936loPI   C5A14303  11.318  -0.243   6.410 -0.2311 -0.0405 -0.0159
  936loPI   C6A14304  11.288  -0.457   6.086 -0.1328 -0.0186  0.2900
  936loPI   C1B14305  10.944   0.202   5.613  0.1060 -0.0390  0.0030
  936loPI   C2B14306  10.812  -0.192   5.927 -0.1071 -0.1991  0.6392
  936loPI   C3B14307  10.781  -0.179   6.449  0.3245  0.0154 -0.1812
  936loPI   C4B14308  10.719  -0.270   6.862  0.0302  0.1792  0.1108
  937loPI    C114309  11.782   0.172   4.745 -0.0581  0.1599 -0.0359
  937loPI    C214310  11.772  -0.228   4.742 -0.0859  0.1609 -0.0734
  937loPI    C314311  11.501  -0.020   4.535  0.0611  0.1969 -0.2320
  937loPI   PO414312  12.008   0.173   4.971  0.0835 -0.0060  0.2896
  937loPI   GL114313  12.075   0.277   5.427  0.0233 -0.2114  0.2316
  937loPI   GL214314  12.335   0.073   5.655 -0.3675 -0.4214 -0.3600
  937loPI   C1A14315  11.842   0.137   5.852 -0.1968  0.1409 -0.1976
  937loPI   C2A14316  11.667   0.108   6.289 -0.1326 -0.1855 -0.4336
  937loPI   C3A14317  11.613   0.020   6.755 -0.0294 -0.0742  0.1242
  937loPI   C4A14318  11.543  -0.312   7.111 -0.1123 -0.0810  0.0129
  937loPI   C5A14319  11.175  -0.471   7.348  0.0988  0.0569  0.1999
  937loPI   C6A14320  10.977  -0.514   7.754 -0.0615 -0.4547  0.0374
  937loPI   C1B14321  12.579   0.080   6.089  0.5038  0.2196  0.0132
  937loPI   C2B14322  12.925  -0.059   6.428 -0.2781  0.1625 -0.0453
  937loPI   C3B14323  13.254  -0.014   6.616  0.1656  0.0491 -0.0409
  937loPI   C4B14324  13.562   0.161   6.523  0.2079 -0.0480 -0.0693
  938loPI    C114325  17.889   3.678   4.669  0.0854  0.0812  0.2674
  938loPI    C214326  18.197   3.458   4.538 -0.1598 -0.1057 -0.0073
  938loPI    C314327  17.945   3.626   4.277  0.0325  0.5290  0.1953
  938loPI   PO414328  17.913   3.618   4.910 -0.0293  0.1168 -0.1506
  938loPI   GL114329  17.661   3.260   5.262 -0.1662  0.0426  0.0306
  938loPI   GL214330  17.413   3.097   5.177 -0.1642 -0.0662 -0.2192
  938loPI   C1A14331  17.641   3.379   5.683  0.2366  0.0389 -0.0313
  938loPI   C2A14332  17.607   3.101   6.031  0.1161 -0.1996 -0.3087
  938loPI   C3A14333  17.539   2.657   6.214  0.2511  0.1968  0.1755
  938loPI   C4A14334  17.304   2.499   6.607  0.0783 -0.0710  0.4396
  938loPI   C5A14335  17.257   2.235   7.035  0.0629 -0.1567  0.0458
  938loPI   C6A14336  17.281   1.842   7.166 -0.0360  0.1417  0.3367
  938loPI   C1B14337  17.454   2.908   5.554 -0.1602  0.1301 -0.4823
  938loPI   C2B14338  17.242   2.572   5.800 -0.2782 -0.2359  0.4974
  938loPI   C3B14339  17.042   2.495   6.200  0.0445 -0.2700 -0.0236
  938loPI   C4B14340  16.786   2.381   6.522 -0.2133 -0.3146 -0.0878
  939loPI    C114341  18.305   2.868   4.538 -0.3119 -0.0016  0.0369
  939loPI    C214342  18.086   3.080   4.279 -0.1145 -0.0003 -0.1318
  939loPI    C314343  18.225   2.719   4.176 -0.0301  0.0023 -0.0294
  939loPI   PO414344  18.486   3.029   4.703  0.1817 -0.4490  0.1231
  939loPI   GL114345  18.685   2.906   5.057 -0.0702 -0.1386 -0.2234
  939loPI   GL214346  18.894   2.948   5.276  0.0565  0.0459 -0.1402
  939loPI   C1A14347  18.219   2.952   5.310  0.3174 -0.2873  0.2663
  939loPI   C2A14348  17.993   2.942   5.737  0.2305  0.0580 -0.2183
  939loPI   C3A14349  18.069   3.282   6.031  0.1294  0.0798 -0.0993
  939loPI   C4A14350  18.029   3.588   6.327  0.2629  0.1459  0.2295
  939loPI   C5A14351  17.690   3.524   6.599 -0.1825  0.1996 -0.1087
  939loPI   C6A14352  17.355   3.167   6.848  0.0409  0.0022 -0.2710
  939loPI   C1B14353  18.930   2.825   5.739 -0.1237 -0.1542 -0.3525
  939loPI   C2B14354  18.902   2.938   6.220  0.0667  0.4108  0.2051
  939loPI   C3B14355  18.784   3.043   6.644  0.2783 -0.0414  0.1127
  939loPI   C4B14356  18.573   3.152   6.965  0.1870  0.0486 -0.1457
  940loPI    C114357   6.459   4.103   5.126 -0.1603  0.1131  0.0403
  940loPI    C214358   6.647   3.827   4.905 -0.0805  0.0573  0.1765
  940loPI    C314359   6.457   4.131   4.727 -0.1069 -0.0450  0.0281
  940loPI   PO414360   6.403   4.124   5.277 -0.2561  0.2914 -0.4593
  940loPI   GL114361   6.602   4.189   5.657 -0.2520 -0.1640 -0.3168
  940loPI   GL214362   6.585   4.431   5.879  0.1559 -0.1895  0.0522
  940loPI   C1A14363   6.268   4.092   6.086  0.2653  0.0421  0.1842
  940loPI   C2A14364   6.101   4.069   6.453 -0.0664 -0.2347  0.1724
  940loPI   C3A14365   5.892   4.399   6.817 -0.0484 -0.3677  0.0020
  940loPI   C4A14366   5.598   4.336   7.079  0.3688  0.1045  0.1827
  940loPI   C5A14367   5.740   4.052   7.346  0.1227 -0.0429  0.1158
  940loPI   C6A14368   5.947   3.851   7.494  0.1600  0.0577 -0.2269
  940loPI   C1B14369   6.659   4.449   6.262  0.0077  0.0865 -0.0082
  940loPI   C2B14370   6.487   4.290   6.773  0.1685 -0.4929  0.1657
  940loPI   C3B14371   6.169   3.992   7.009  0.1624 -0.1465  0.0620
  940loPI   C4B14372   6.080   3.563   7.120 -0.1826 -0.3143 -0.0494
  941loPI    C114373   2.572   2.005   4.876 -0.1856 -0.1001  0.0900
  941loPI    C214374   2.818   2.305   4.974 -0.0344 -0.2361  0.1296
  941loPI    C314375   2.423   2.348   5.019 -0.0234  0.0059  0.0074
  941loPI   PO414376   2.691   1.813   4.988 -0.1600 -0.0788 -0.1258
  941loPI   GL114377   2.580   1.660   5.365  0.0432  0.0800  0.0977
  941loPI   GL214378   2.610   2.052   5.395  0.0726 -0.1225 -0.0108
  941loPI   C1A14379   2.845   1.664   5.709 -0.3584  0.0195  0.0507
  941loPI   C2A14380   2.849   1.733   6.122  0.0988  0.3109  0.0708
  941loPI   C3A14381   3.036   1.853   6.384 -0.3838 -0.2384 -0.2821
  941loPI   C4A14382   3.217   1.890   6.742 -0.0748 -0.0530  0.0531
  941loPI   C5A14383   3.356   2.093   7.099 -0.0465  0.1831  0.2420
  941loPI   C6A14384   3.310   2.152   7.493 -0.1077 -0.2088 -0.0354
  941loPI   C1B14385   2.420   2.094   5.730 -0.0615 -0.2120  0.2940
  941loPI   C2B14386   2.413   2.047   6.083 -0.0029  0.3728 -0.0953
  941loPI   C3B14387   2.574   1.932   6.484 -0.3032 -0.3600 -0.3322
  941loPI   C4B14388   2.651   1.909   6.871 -0.3499  0.1030 -0.0280
  942loPI    C114389   7.774  18.614   4.823  0.0636  0.0493 -0.1192
  942loPI    C214390   7.474  18.618   4.557  0.0471  0.2378 -0.0994
  942loPI    C314391   7.561  18.282   4.756 -0.2068  0.2032 -0.0428
  942loPI   PO414392   7.791  18.810   5.016  0.2106 -0.1372 -0.1368
  942loPI   GL114393   7.940  18.829   5.386 -0.1549  0.0157  0.0288
  942loPI   GL214394   8.115  18.940   5.494 -0.0801  0.3020  0.1520
  942loPI   C1A14395   7.968  18.508   5.739  0.0565  0.0764 -0.1919
  942loPI   C2A14396   7.571  18.312   6.029 -0.0318  0.1306 -0.2110
  942loPI   C3A14397   7.381  18.103   6.480 -0.0800  0.1932  0.1392
  942loPI   C4A14398   7.364  17.686   6.547  0.0045 -0.2217 -0.0795
  942loPI   C5A14399   7.221  17.275   6.756  0.1756 -0.0899 -0.2370
  942loPI   C6A14400   7.235  17.020   7.180 -0.0592 -0.2206 -0.1279
  942loPI   C1B14401   7.818  19.093   5.789  0.2216 -0.0134  0.1619
  942loPI   C2B14402   7.464  18.895   5.930  0.0495  0.1756 -0.0194
  942loPI   C3B14403   7.039  18.696   5.800 -0.3618 -0.1025 -0.1708
  942loPI   C4B14404   6.516  18.765   5.744  0.4873 -0.0786  0.0249
  943loPI    C114405   6.399   0.115   4.636  0.2466  0.1125 -0.0919
  943loPI    C214406   6.125   0.258   4.383 -0.0061  0.1018  0.1701
  943loPI    C314407   6.317  -0.083   4.299 -0.0389  0.1331 -0.0367
  943loPI   PO414408   6.340   0.080   4.930 -0.1426 -0.3672 -0.0915
  943loPI   GL114409   6.522   0.336   5.297 -0.2762 -0.0919 -0.3182
  943loPI   GL214410   6.467   0.536   5.556 -0.1466  0.2595  0.0035
  943loPI   C1A14411   6.470   0.019   5.523  0.2993  0.0928 -0.2980
  943loPI   C2A14412   6.576   0.118   5.946  0.1734  0.0243 -0.1394
  943loPI   C3A14413   6.671   0.198   6.438  0.0055 -0.2170  0.0729
  943loPI   C4A14414   6.497   0.153   6.834  0.1402  0.2123 -0.3586
  943loPI   C5A14415   6.528   0.321   7.295 -0.2995  0.1963 -0.0585
  943loPI   C6A14416   6.586   0.324   7.813  0.2328  0.1902  0.0209
  943loPI   C1B14417   6.113   0.446   5.930 -0.1393  0.0800 -0.3536
  943loPI   C2B14418   6.053   0.203   6.305  0.0520 -0.0963  0.1126
  943loPI   C3B14419   6.034   0.009   6.723  0.0063 -0.0997 -0.1449
  943loPI   C4B14420   6.106  -0.235   7.086  0.1115 -0.0321 -0.0223
  944loPI    C114421  17.702  12.112   4.820  0.1551 -0.1865  0.0973
  944loPI    C214422  17.630  11.841   4.535  0.1162  0.0610 -0.1313
  944loPI    C314423  17.548  12.227   4.469  0.0107  0.1081  0.2536
  944loPI   PO414424  17.509  11.918   5.024  0.2108 -0.0862  0.0474
  944loPI   GL114425  17.354  12.021   5.478 -0.1083  0.2028 -0.2795
  944loPI   GL214426  17.479  12.123   5.786 -0.0201  0.1050 -0.1723
  944loPI   C1A14427  17.179  11.721   5.772  0.0494 -0.0416  0.3004
  944loPI   C2A14428  17.163  11.896   6.189  0.2124 -0.0905  0.0814
  944loPI   C3A14429  17.334  11.841   6.530 -0.3228 -0.1343 -0.1450
  944loPI   C4A14430  17.374  11.919   7.024  0.2702 -0.0423  0.0767
  944loPI   C5A14431  17.187  11.732   7.280  0.0302 -0.2262 -0.0976
  944loPI   C6A14432  17.205  11.722   7.746  0.1095  0.3949  0.1228
  944loPI   C1B14433  17.671  12.313   6.184 -0.0844 -0.1558  0.0452
  944loPI   C2B14434  17.626  12.242   6.574 -0.2822 -0.1753 -0.1423
  944loPI   C3B14435  17.842  12.134   6.890 -0.2015  0.1139  0.3283
  944loPI   C4B14436  18.155  12.164   7.248 -0.2381 -0.2605 -0.0074
  945loPI    C114437  17.601   1.683   5.006  0.0522  0.0523 -0.2065
  945loPI    C214438  17.464   1.908   4.704  0.1465  0.0937 -0.2187
  945loPI    C314439  17.601   1.539   4.633 -0.2479 -0.0685 -0.1628
  945loPI   PO414440  17.417   1.776   5.222  0.0627 -0.0814  0.1049
  945loPI   GL114441  17.088   1.942   5.470  0.3321  0.1406 -0.0522
  945loPI   GL214442  17.319   2.111   5.642 -0.1137 -0.2319  0.1430
  945loPI   C1A14443  16.949   1.533   5.806 -0.1716 -0.1060  0.2746
  945loPI   C2A14444  17.014   1.342   6.145 -0.0762 -0.1212 -0.2864
  945loPI   C3A14445  16.942   1.440   6.579 -0.3695  0.1522  0.2169
  945loPI   C4A14446  17.108   1.271   7.012 -0.0265  0.3005 -0.0773
  945loPI   C5A14447  17.354   1.373   7.365 -0.2077 -0.2646  0.1118
  945loPI   C6A14448  17.708   1.586   7.448  0.2229  0.1467 -0.2305
  945loPI   C1B14449  17.406   2.124   6.032  0.1617 -0.0190 -0.0436
  945loPI   C2B14450  17.454   2.098   6.365 -0.1899 -0.0218  0.0667
  945loPI   C3B14451  17.706   2.082   6.761  0.1181  0.3642  0.0534
  945loPI   C4B14452  17.719   2.019   7.169  0.4026  0.3245 -0.0740
  946loPI    C114453   1.875  19.063   4.740 -0.0450 -0.2592 -0.0292
  946loPI    C214454   1.645  19.252   4.473  0.2069  0.0658 -0.0237
  946loPI    C314455   2.033  19.192   4.396  0.1696 -0.3006  0.0519
  946loPI   PO414456   1.890  19.214   4.959  0.0973  0.0484  0.2815
  946loPI   GL114457   1.725  19.303   5.339 -0.0127 -0.0511  0.0963
  946loPI   GL214458   1.456  19.407   5.529 -0.1487  0.0959  0.2092
  946loPI   C1A14459   1.762  19.162   5.817  0.0892 -0.0575 -0.0246
  946loPI   C2A14460   1.766  19.233   6.297  0.3338 -0.0688  0.1991
  946loPI   C3A14461   1.666  18.966   6.712  0.2034  0.0359  0.2256
  946loPI   C4A14462   1.839  19.121   7.149 -0.1617 -0.0987  0.0218
  946loPI   C5A14463   2.140  19.466   7.415 -0.0334 -0.1679  0.0789
  946loPI   C6A14464   2.245  19.889   7.453  0.2830  0.0842  0.3650
  946loPI   C1B14465   1.135  19.634   5.797 -0.1872  0.2122  0.1652
  946loPI   C2B14466   1.289  19.765   6.169 -0.0025  0.1138 -0.0463
  946loPI   C3B14467   1.458  19.644   6.566  0.1758 -0.0261  0.1761
  946loPI   C4B14468   1.339  19.445   6.864  0.0947  0.2561 -0.0540
  947loPI    C114469   5.118   1.149   5.371 -0.0501 -0.1121 -0.1494
  947loPI    C214470   5.110   0.967   5.015  0.1581 -0.0365 -0.1942
  947loPI    C314471   4.826   0.890   5.286  0.0641 -0.1824 -0.3328
  947loPI   PO414472   5.275   1.378   5.271 -0.2615 -0.2007  0.2458
  947loPI   GL114473   5.249   1.657   5.537  0.2021 -0.0766 -0.1024
  947loPI   GL214474   5.163   1.905   5.568 -0.0822 -0.1876  0.1269
  947loPI   C1A14475   5.217   1.484   6.030 -0.0588  0.2843 -0.3175
  947loPI   C2A14476   5.257   1.534   6.488 -0.1655 -0.3531  0.0132
  947loPI   C3A14477   5.393   1.806   6.789  0.1916 -0.1554  0.0689
  947loPI   C4A14478   5.590   1.788   7.137  0.0973  0.0619 -0.0414
  947loPI   C5A14479   5.631   1.525   7.522  0.1227 -0.2555 -0.2410
  947loPI   C6A14480   5.575   1.262   7.753  0.1327 -0.0389 -0.2185
  947loPI   C1B14481   5.123   2.024   5.948 -0.1988 -0.2494 -0.2148
  947loPI   C2B14482   5.064   2.097   6.346 -0.0722 -0.1504 -0.1924
  947loPI   C3B14483   4.935   2.184   6.829  0.1664 -0.2097 -0.0336
  947loPI   C4B14484   5.127   2.060   7.163  0.2410  0.3236 -0.1523
  948loPI    C114485   3.812   7.846   5.295  0.0920  0.2609  0.0853
  948loPI    C214486   3.899   7.631   4.969 -0.2297  0.0392  0.1404
  948loPI    C314487   4.131   7.605   5.294 -0.0185  0.1134 -0.0017
  948loPI   PO414488   3.702   8.067   5.234 -0.0366  0.0245  0.1508
  948loPI   GL114489   3.625   8.315   5.685 -0.0664 -0.0451 -0.1237
  948loPI   GL214490   3.588   7.899   5.764 -0.1802 -0.4006 -0.0822
  948loPI   C1A14491   3.670   8.578   6.010 -0.0232  0.0510 -0.4568
  948loPI   C2A14492   3.612   8.477   6.508 -0.3709  0.3980 -0.0454
  948loPI   C3A14493   3.881   8.336   6.902 -0.0869 -0.2453 -0.1030
  948loPI   C4A14494   4.204   8.309   7.290 -0.0889 -0.0245  0.2210
  948loPI   C5A14495   4.302   8.618   7.578 -0.1660 -0.0406  0.2317
  948loPI   C6A14496   4.259   8.822   7.967  0.2405 -0.0373  0.5762
  948loPI   C1B14497   3.855   8.124   6.067  0.0832  0.2237 -0.0600
  948loPI   C2B14498   3.967   8.029   6.507 -0.1068  0.0209 -0.2814
  948loPI   C3B14499   3.888   7.674   6.574 -0.2273  0.1639 -0.0858
  948loPI   C4B14500   4.033   7.333   6.891 -0.1756  0.1992 -0.0441
  949loPI    C114501   9.095  10.313   4.412 -0.0243  0.3102  0.2413
  949loPI    C214502   8.894  10.627   4.266 -0.1911  0.0730 -0.0501
  949loPI    C314503   9.015  10.335   4.021  0.0762 -0.0305  0.1985
  949loPI   PO414504   9.228  10.458   4.640  0.0430  0.2497 -0.3044
  949loPI   GL114505   9.446  10.422   5.092  0.1407  0.1419  0.0416
  949loPI   GL214506   9.079  10.508   5.152  0.0642 -0.0406 -0.3520
  949loPI   C1A14507   9.723  10.244   5.323 -0.0390  0.2055  0.0019
  949loPI   C2A14508  10.060   9.896   5.413  0.2270 -0.1388 -0.2290
  949loPI   C3A14509  10.319   9.671   5.770  0.1507 -0.1012  0.1657
  949loPI   C4A14510  10.309   9.298   6.094  0.0627  0.6009 -0.0479
  949loPI   C5A14511  10.244   9.111   6.497 -0.1109  0.0580 -0.1329
  949loPI   C6A14512  10.443   8.685   6.768  0.0587 -0.3270 -0.2925
  949loPI   C1B14513   9.179  10.034   5.269  0.2211 -0.1720  0.3821
  949loPI   C2B14514   8.951   9.720   5.490  0.1970 -0.0842  0.4486
  949loPI   C3B14515   8.884   9.811   5.954  0.0912 -0.1099  0.0541
  949loPI   C4B14516   8.996  10.095   6.245  0.2653 -0.1224 -0.0307
  950loPI    C114517   6.004  14.631   4.886  0.0271  0.3170 -0.0351
  950loPI    C214518   6.072  14.677   4.495  0.3619 -0.1137 -0.0363
  950loPI    C314519   5.921  14.333   4.632  0.0296  0.1173  0.1943
  950loPI   PO414520   6.052  14.778   4.987 -0.0745 -0.0697  0.4191
  950loPI   GL114521   5.968  15.032   5.400 -0.0871  0.0882  0.0088
  950loPI   GL214522   6.315  15.067   5.437  0.2133 -0.1537  0.1820
  950loPI   C1A14523   6.060  14.808   5.774  0.2022  0.0365 -0.0986
  950loPI   C2A14524   6.197  14.831   6.188 -0.2590  0.1219 -0.3681
  950loPI   C3A14525   6.346  14.882   6.513 -0.2882 -0.1791  0.3415
  950loPI   C4A14526   6.443  15.041   6.893 -0.1113  0.3662  0.2323
  950loPI   C5A14527   6.653  15.153   7.294  0.1212 -0.3887  0.1418
  950loPI   C6A14528   6.778  15.044   7.742 -0.0025 -0.0842  0.0059
  950loPI   C1B14529   6.435  15.097   5.833 -0.2840  0.1111  0.0454
  950loPI   C2B14530   6.543  15.190   6.175  0.0167  0.2092  0.0999
  950loPI   C3B14531   6.550  15.398   6.549  0.3700  0.0951 -0.0701
  950loPI   C4B14532   6.592  15.538   7.025  0.3129  0.0093 -0.1832
  951loPI    C114533   3.587   3.216   4.595 -0.2180 -0.1010  0.0849
  951loPI    C214534   3.913   3.133   4.378 -0.0644  0.3628  0.1278
  951loPI    C314535   3.596   3.305   4.205 -0.4182 -0.3616  0.0177
  951loPI   PO414536   3.720   3.329   4.804  0.4826  0.2422 -0.0942
  951loPI   GL114537   3.928   3.416   5.180 -0.0383 -0.3292 -0.0400
  951loPI   GL214538   4.210   3.522   5.230 -0.1911 -0.2451  0.0482
  951loPI   C1A14539   3.969   3.317   5.597  0.2499  0.1384  0.4304
  951loPI   C2A14540   3.775   2.962   5.706 -0.2433  0.0669  0.2864
  951loPI   C3A14541   3.451   2.790   5.646  0.1716 -0.2561 -0.2610
  951loPI   C4A14542   3.175   2.523   5.948 -0.1337  0.2620 -0.1007
  951loPI   C5A14543   2.871   2.274   6.278  0.0252 -0.0352  0.1186
  951loPI   C6A14544   2.920   2.278   6.697 -0.1122  0.1516  0.4338
  951loPI   C1B14545   4.361   3.522   5.746 -0.1580 -0.0952  0.3766
  951loPI   C2B14546   4.243   3.447   6.261 -0.4419 -0.1451  0.2597
  951loPI   C3B14547   4.258   3.426   6.647  0.4902  0.0348  0.0054
  951loPI   C4B14548   4.262   3.308   7.103 -0.3583  0.2861  0.0060
  952loPI    C114549   3.191  11.148   4.583  0.3201  0.0951  0.1570
  952loPI    C214550   3.513  11.214   4.354  0.2294 -0.2453 -0.0762
  952loPI    C314551   3.146  11.244   4.198  0.1535 -0.1162  0.1222
  952loPI   PO414552   3.331  11.242   4.886  0.1861 -0.1255  0.2605
  952loPI   GL114553   3.177  11.262   5.289  0.0109  0.0226 -0.0812
  952loPI   GL214554   2.927  11.374   5.339  0.2528 -0.1452 -0.0738
  952loPI   C1A14555   3.349  11.232   5.728 -0.2526  0.0156 -0.0952
  952loPI   C2A14556   3.389  11.219   6.105 -0.0109  0.2318 -0.4574
  952loPI   C3A14557   3.432  10.871   6.581 -0.2601  0.0846  0.0620
  952loPI   C4A14558   3.225  10.610   6.981  0.0982 -0.0137  0.0004
  952loPI   C5A14559   2.976  10.423   7.226 -0.2054 -0.0134 -0.0858
  952loPI   C6A14560   2.917  10.206   7.598  0.0345 -0.0315  0.2753
  952loPI   C1B14561   2.808  11.378   5.727 -0.1434  0.1192  0.2844
  952loPI   C2B14562   2.788  11.281   6.146 -0.2327  0.1095  0.1796
  952loPI   C3B14563   2.589  11.380   6.656  0.1573 -0.0533 -0.2012
  952loPI   C4B14564   2.476  11.328   7.100  0.1214  0.0032  0.2029
  953loPI    C114565  17.209  17.934   5.200  0.4785  0.2775  0.0405
  953loPI    C214566  17.206  18.148   4.861 -0.2407  0.0566 -0.1109
  953loPI    C314567  17.314  17.762   4.854  0.1777  0.1658  0.0018
  953loPI   PO414568  17.277  18.091   5.342  0.0914 -0.2466 -0.2713
  953loPI   GL114569  17.315  18.240   5.665  0.3012  0.0279  0.1573
  953loPI   GL214570  17.558  18.416   5.861  0.1596  0.1993 -0.1902
  953loPI   C1A14571  17.141  18.243   6.083 -0.0542  0.0927 -0.0954
  953loPI   C2A14572  17.050  18.203   6.463 -0.0117 -0.0109  0.0154
  953loPI   C3A14573  16.927  17.879   6.797 -0.0882  0.2144 -0.3248
  953loPI   C4A14574  16.983  17.845   7.202 -0.1226 -0.1522  0.1237
  953loPI   C5A14575  17.090  17.877   7.599  0.2705 -0.2086 -0.0320
  953loPI   C6A14576  16.738  17.745   7.969 -0.2039  0.1900  0.1430
  953loPI   C1B14577  17.439  18.560   6.220  0.1145  0.3322 -0.2185
  953loPI   C2B14578  17.327  18.540   6.645 -0.0396  0.0535  0.4521
  953loPI   C3B14579  17.120  18.482   6.965 -0.1113  0.0026 -0.2798
  953loPI   C4B14580  17.170  18.439   7.422  0.0352  0.2193 -0.0330
  954loPI    C114581  12.230   6.050   4.628 -0.1249  0.1175 -0.0617
  954loPI    C214582  12.029   5.787   4.851  0.1231  0.0642  0.1029
  954loPI    C314583  12.041   5.744   4.454 -0.1035  0.0112  0.1003
  954loPI   PO414584  12.205   6.284   4.867 -0.1057  0.0321  0.2728
  954loPI   GL114585  12.031   6.694   5.083  0.3930  0.0735  0.1056
  954loPI   GL214586  11.630   6.707   5.068  0.0977  0.2013  0.2291
  954loPI   C1A14587  12.164   6.832   5.468  0.0180  0.2566  0.0226
  954loPI   C2A14588  12.343   6.599   5.799  0.0847  0.0834 -0.1461
  954loPI   C3A14589  12.696   6.551   5.988 -0.1315  0.0442 -0.3830
  954loPI   C4A14590  12.642   6.339   6.295 -0.2793  0.1168 -0.2114
  954loPI   C5A14591  12.843   6.294   6.616  0.1212  0.3721  0.0741
  954loPI   C6A14592  12.833   6.442   7.094  0.0642  0.2231 -0.3172
  954loPI   C1B14593  11.574   6.676   5.404 -0.0685  0.1282 -0.0718
  954loPI   C2B14594  11.593   6.667   5.821  0.3980  0.1769  0.2956
  954loPI   C3B14595  11.866   6.515   6.151  0.1898 -0.0581  0.2393
  954loPI   C4B14596  12.253   6.560   6.403 -0.2380 -0.1409 -0.0322
  955loPI    C114597   2.542   9.089   4.902 -0.1079 -0.2221 -0.0297
  955loPI    C214598   2.678   8.986   4.540  0.0686 -0.1076  0.0029
  955loPI    C314599   2.539   9.355   4.604 -0.2622 -0.2235 -0.0299
  955loPI   PO414600   2.688   9.080   5.062 -0.1685 -0.1683  0.1629
  955loPI   GL114601   2.672   9.109   5.470 -0.0568  0.3483  0.0525
  955loPI   GL214602   2.515   9.361   5.593  0.0492  0.0307 -0.1117
  955loPI   C1A14603   2.790   9.072   5.921 -0.3006  0.1040  0.1217
  955loPI   C2A14604   2.927   9.093   6.362 -0.2425  0.0377 -0.0495
  955loPI   C3A14605   3.130   9.404   6.540  0.1057 -0.3104 -0.1958
  955loPI   C4A14606   3.365   9.424   6.956  0.1352 -0.0061 -0.1951
  955loPI   C5A14607   3.638   9.347   7.257 -0.1085 -0.1511  0.1501
  955loPI   C6A14608   4.036   9.495   7.462  0.0897 -0.0493  0.0167
  955loPI   C1B14609   2.208   9.411   5.858  0.0031 -0.4735 -0.0644
  955loPI   C2B14610   1.862   9.467   6.151  0.2944  0.1042 -0.0661
  955loPI   C3B14611   1.600   9.468   6.506 -0.0060 -0.0597 -0.0110
  955loPI   C4B14612   1.459   9.320   6.917 -0.0688  0.0192  0.0275
  956loPI    C114613   3.280   2.442   4.570  0.0170 -0.2162  0.0932
  956loPI    C214614   2.981   2.188   4.490 -0.0811 -0.0566 -0.0543
  956loPI    C314615   3.181   2.363   4.190  0.0383 -0.0205  0.0457
  956loPI   PO414616   3.340   2.295   4.797  0.1411  0.1299  0.1190
  956loPI   GL114617   3.240   2.168   5.215  0.2981 -0.0541  0.1701
  956loPI   GL214618   3.150   1.889   5.359 -0.2157 -0.1131  0.1183
  956loPI   C1A14619   3.419   2.323   5.575  0.0990  0.0254  0.0526
  956loPI   C2A14620   3.663   2.511   5.967  0.3072  0.2486  0.1355
  956loPI   C3A14621   3.752   2.739   6.360  0.0196 -0.0644 -0.0177
  956loPI   C4A14622   3.590   2.898   6.754 -0.2132 -0.1912  0.0891
  956loPI   C5A14623   3.238   2.719   6.931 -0.0926  0.0225 -0.2333
  956loPI   C6A14624   2.953   2.733   7.331 -0.1915 -0.1218 -0.1600
  956loPI   C1B14625   2.939   2.112   5.753 -0.1809 -0.1167 -0.2196
  956loPI   C2B14626   3.298   2.050   6.030 -0.3773  0.0538  0.1124
  956loPI   C3B14627   3.451   2.252   6.370  0.0995  0.2124 -0.1604
  956loPI   C4B14628   3.537   2.364   6.687  0.0072  0.0570  0.0493
  957loPI    C114629  10.073  13.164   4.887 -0.1166 -0.2076  0.0641
  957loPI    C214630   9.723  13.199   4.697 -0.1347 -0.2994  0.0803
  957loPI    C314631  10.028  13.008   4.521 -0.0768 -0.1764  0.0457
  957loPI   PO414632  10.014  13.234   5.101 -0.1289  0.2087 -0.0696
  957loPI   GL114633  10.001  13.031   5.460 -0.2157  0.0319 -0.4482
  957loPI   GL214634  10.156  13.292   5.618  0.1781  0.0455  0.3257
  957loPI   C1A14635   9.626  13.310   5.713  0.2141 -0.2139 -0.0315
  957loPI   C2A14636   9.616  13.473   6.096  0.1535 -0.1168 -0.4165
  957loPI   C3A14637   9.574  13.418   6.455 -0.2327  0.1515  0.0250
  957loPI   C4A14638   9.691  13.677   6.780 -0.3133 -0.0350 -0.1268
  957loPI   C5A14639   9.923  14.030   7.023  0.0290 -0.1084 -0.0142
  957loPI   C6A14640  10.308  14.121   7.025 -0.0954  0.3159 -0.1471
  957loPI   C1B14641   9.986  13.007   6.005  0.0756  0.2308 -0.1322
  957loPI   C2B14642  10.006  12.804   6.470 -0.0420 -0.1600 -0.0633
  957loPI   C3B14643   9.903  12.707   6.856 -0.1225 -0.2033  0.3492
  957loPI   C4B14644   9.650  12.870   7.199  0.0606  0.1722  0.3175
  958loPI    C114645   6.123   9.178   4.443 -0.2421 -0.0163  0.0760
  958loPI    C214646   6.100   9.432   4.135 -0.2276 -0.1250 -0.0150
  958loPI    C314647   5.766   9.280   4.293 -0.2246 -0.2613 -0.1376
  958loPI   PO414648   6.282   9.265   4.606  0.0191 -0.1076 -0.0482
  958loPI   GL114649   6.414   9.322   4.999 -0.2818 -0.2630  0.0812
  958loPI   GL214650   6.503   9.039   5.006  0.1365 -0.1063 -0.0606
  958loPI   C1A14651   6.254   9.426   5.459  0.1126  0.0208  0.0221
  958loPI   C2A14652   6.375   9.557   5.935  0.0258 -0.1251 -0.1111
  958loPI   C3A14653   6.697   9.746   6.128  0.3147  0.0780 -0.0529
  958loPI   C4A14654   7.095   9.919   6.274 -0.0866 -0.2374 -0.0581
  958loPI   C5A14655   7.489   9.993   6.641 -0.1424 -0.2294  0.2932
  958loPI   C6A14656   7.612  10.400   6.731  0.0968  0.0838 -0.0434
  958loPI   C1B14657   6.258   8.957   5.336 -0.0034  0.0378 -0.0842
  958loPI   C2B14658   6.313   8.998   5.856  0.1589 -0.0045  0.0300
  958loPI   C3B14659   6.155   9.056   6.330  0.3496  0.1346 -0.0419
  958loPI   C4B14660   6.345   9.073   6.685  0.0874  0.2451 -0.1599
  959loPI    C114661   0.893   5.368   4.835  0.0790  0.0850  0.0714
  959loPI    C214662   1.021   5.386   4.457  0.3431 -0.0241  0.1533
  959loPI    C314663   0.669   5.216   4.541  0.1074  0.3345 -0.0820
  959loPI   PO414664   0.862   5.612   4.966 -0.2141  0.0098 -0.1266
  959loPI   GL114665   0.701   5.776   5.381  0.0750  0.3206  0.0981
  959loPI   GL214666   0.380   5.763   5.474  0.2646  0.0092  0.0517
  959loPI   C1A14667   1.092   6.011   5.701  0.1893  0.0163 -0.1405
  959loPI   C2A14668   1.345   5.955   6.019  0.2791 -0.2271 -0.0095
  959loPI   C3A14669   1.496   5.569   6.181 -0.0947  0.3649  0.0793
  959loPI   C4A14670   1.717   5.418   6.567 -0.0221 -0.1937  0.1208
  959loPI   C5A14671   2.013   5.611   6.837 -0.2614  0.0849  0.1964
  959loPI   C6A14672   2.002   5.730   7.290 -0.2076  0.0078 -0.4360
  959loPI   C1B14673   0.528   5.450   5.707 -0.2874  0.4310 -0.0230
  959loPI   C2B14674   0.483   5.287   6.045 -0.0194 -0.2382  0.0235
  959loPI   C3B14675   0.352   5.343   6.434  0.0027 -0.0329 -0.1588
  959loPI   C4B14676   0.359   5.434   6.838  0.1586  0.2080  0.0618
  960loPI    C114677   7.245   4.663   5.013  0.1970 -0.0169  0.1754
  960loPI    C214678   7.223   4.836   4.652  0.1609 -0.0749  0.1497
  960loPI    C314679   7.561   4.655   4.768  0.1852 -0.0230  0.1602
  960loPI   PO414680   7.163   4.878   5.214 -0.0713 -0.1208 -0.1014
  960loPI   GL114681   7.153   5.085   5.612 -0.0782 -0.2494 -0.1043
  960loPI   GL214682   7.475   4.998   5.556  0.1224 -0.0363  0.0962
  960loPI   C1A14683   7.365   5.198   6.021 -0.0217  0.0810 -0.0594
  960loPI   C2A14684   7.216   5.168   6.316 -0.0151 -0.0804 -0.1714
  960loPI   C3A14685   7.251   5.033   6.663  0.4418  0.0969 -0.0112
  960loPI   C4A14686   7.175   5.105   7.118 -0.2932  0.0189 -0.0148
  960loPI   C5A14687   7.288   5.332   7.452  0.2662  0.1663  0.2637
  960loPI   C6A14688   7.486   5.434   7.770  0.1934  0.1442 -0.0258
  960loPI   C1B14689   7.733   4.689   5.762 -0.0109 -0.0749 -0.0400
  960loPI   C2B14690   7.917   4.633   6.165  0.1890  0.1759  0.0594
  960loPI   C3B14691   7.865   4.414   6.560 -0.3849  0.1470  0.0823
  960loPI   C4B14692   7.956   4.437   7.019  0.1370  0.1241  0.0802
  961loPI    C114693   0.150   9.588   5.101 -0.0132 -0.3340  0.0189
  961loPI    C214694  -0.228   9.458   5.090 -0.0781 -0.1379 -0.1243
  961loPI    C314695   0.035   9.329   4.819 -0.0389 -0.2821 -0.0185
  961loPI   PO414696   0.156   9.783   5.276 -0.0457 -0.0798  0.3447
  961loPI   GL114697   0.203   9.891   5.672  0.1199 -0.0853 -0.1598
  961loPI   GL214698   0.512   9.824   5.792  0.3146 -0.0223 -0.2207
  961loPI   C1A14699   0.018   9.536   5.929 -0.4204 -0.0983 -0.2939
  961loPI   C2A14700   0.071   9.540   6.344  0.0398 -0.2117 -0.0751
  961loPI   C3A14701   0.234   9.577   6.767  0.0020  0.1724  0.2744
  961loPI   C4A14702   0.379   9.411   7.220 -0.2407 -0.1783  0.1744
  961loPI   C5A14703   0.680   9.376   7.588  0.0275 -0.2120  0.3060
  961loPI   C6A14704   0.812   9.248   8.023  0.4198 -0.0175 -0.6062
  961loPI   C1B14705   0.498   9.627   6.158  0.2863  0.1906 -0.2001
  961loPI   C2B14706   0.700   9.642   6.421  0.0155 -0.0777 -0.0676
  961loPI   C3B14707   0.664   9.742   6.873  0.1213 -0.0319  0.0512
  961loPI   C4B14708   0.795   9.787   7.309 -0.0648  0.3784  0.0965
  962loPI    C114709  12.864  10.376   4.648  0.0501 -0.1147  0.2176
  962loPI    C214710  12.873   9.993   4.763 -0.1647 -0.0815  0.3512
  962loPI    C314711  12.618  10.111   4.478  0.1455 -0.1022  0.0588
  962loPI   PO414712  12.804  10.499   4.814 -0.3224 -0.0072  0.0128
  962loPI   GL114713  12.760  10.461   5.212 -0.1985 -0.0754 -0.2687
  962loPI   GL214714  12.513  10.734   5.311  0.2413  0.3275 -0.4166
  962loPI   C1A14715  12.979  10.787   5.510  0.1183 -0.1093  0.0080
  962loPI   C2A14716  13.114  10.902   5.924  0.1357  0.4593  0.3089
  962loPI   C3A14717  13.000  10.934   6.268 -0.0445 -0.3961  0.2629
  962loPI   C4A14718  13.027  10.979   6.721 -0.2499  0.1417 -0.2848
  962loPI   C5A14719  13.047  10.808   7.035 -0.1547  0.3021 -0.1981
  962loPI   C6A14720  13.471  10.732   7.288 -0.1714  0.0140  0.0220
  962loPI   C1B14721  12.603  10.583   5.725 -0.3060 -0.0946  0.1188
  962loPI   C2B14722  12.649  10.666   6.056 -0.1485  0.4186  0.1141
  962loPI   C3B14723  12.553  10.844   6.487 -0.1997  0.0001 -0.1633
  962loPI   C4B14724  12.322  11.008   6.862 -0.1596  0.0619  0.1206
  963loPI    C114725  14.275  10.194   4.328 -0.1405 -0.3130  0.2071
  963loPI    C214726  14.610   9.986   4.265  0.1734  0.2190  0.0621
  963loPI    C314727  14.325   9.995   3.985  0.0453 -0.2080  0.1720
  963loPI   PO414728  14.131  10.104   4.554 -0.0605  0.0610  0.0656
  963loPI   GL114729  14.123  10.309   4.996  0.1177  0.0434  0.0531
  963loPI   GL214730  14.351  10.311   5.233 -0.0638  0.0577 -0.1890
  963loPI   C1A14731  13.920  10.317   5.433  0.3921  0.3610  0.0151
  963loPI   C2A14732  14.082  10.409   5.864  0.1203 -0.0294  0.3083
  963loPI   C3A14733  13.945  10.362   6.216 -0.0346 -0.0973 -0.2859
  963loPI   C4A14734  13.869  10.358   6.503  0.1404 -0.0315 -0.1342
  963loPI   C5A14735  13.837  10.170   6.831 -0.0617 -0.0441 -0.0921
  963loPI   C6A14736  14.116   9.983   7.241 -0.4070  0.0869  0.0289
  963loPI   C1B14737  14.515  10.307   5.580 -0.0940 -0.1051 -0.1561
  963loPI   C2B14738  14.744  10.273   6.009  0.3574  0.0202 -0.0790
  963loPI   C3B14739  14.768  10.383   6.366 -0.0109  0.2356  0.1908
  963loPI   C4B14740  14.769  10.296   6.715 -0.2980  0.2097  0.1433
  964loPI    C114741  15.809  10.071   4.367  0.1245 -0.1039 -0.0693
  964loPI    C214742  15.512   9.804   4.393 -0.1407  0.1956  0.0371
  964loPI    C314743  15.602   9.969   4.040  0.0256 -0.0321 -0.0294
  964loPI   PO414744  15.995   9.853   4.586 -0.1978 -0.2681 -0.1615
  964loPI   GL114745  16.229   9.735   4.966 -0.1477 -0.1838 -0.1809
  964loPI   GL214746  16.170   9.988   5.071 -0.1413  0.1897  0.1773
  964loPI   C1A14747  16.417   9.632   5.317 -0.2267  0.0497 -0.2043
  964loPI   C2A14748  16.627   9.798   5.690  0.1741  0.0452  0.2229
  964loPI   C3A14749  16.809   9.789   6.122 -0.1493  0.5252 -0.2230
  964loPI   C4A14750  16.988   9.926   6.533 -0.2625  0.0255  0.0374
  964loPI   C5A14751  17.161   9.962   6.912  0.1090 -0.0649  0.1368
  964loPI   C6A14752  17.482  10.002   7.233  0.1266  0.1155 -0.1409
  964loPI   C1B14753  16.166  10.093   5.461 -0.2362 -0.1794  0.0979
  964loPI   C2B14754  16.066   9.900   5.872 -0.1345  0.3174 -0.1912
  964loPI   C3B14755  15.997   9.908   6.273 -0.1061 -0.0112  0.0027
  964loPI   C4B14756  16.139   9.883   6.714  0.0169 -0.1926 -0.1216
  965loPI    C114757   9.431  16.770   4.628  0.1277  0.0396 -0.1163
  965loPI    C214758   9.747  17.013   4.594  0.2354 -0.0469  0.2293
  965loPI    C314759   9.788  16.620   4.528  0.1112 -0.0074 -0.1047
  965loPI   PO414760   9.375  16.886   4.906 -0.0556 -0.0169  0.1794
  965loPI   GL114761   9.494  16.812   5.341 -0.0112  0.2956  0.3896
  965loPI   GL214762   9.256  16.662   5.540  0.1982  0.2086  0.1272
  965loPI   C1A14763   9.767  16.771   5.807 -0.0779 -0.0616  0.1031
  965loPI   C2A14764  10.235  16.643   6.026 -0.0601 -0.1597  0.3623
  965loPI   C3A14765  10.305  16.713   6.442 -0.0362  0.1727 -0.1019
  965loPI   C4A14766  10.301  16.611   6.888  0.3682 -0.2248 -0.1992
  965loPI   C5A14767  10.206  16.611   7.341  0.0181 -0.0553  0.1829
  965loPI   C6A14768  10.206  16.503   7.747  0.3048 -0.3289  0.0862
  965loPI   C1B14769   9.342  16.635   6.032 -0.0289  0.0660  0.2038
  965loPI   C2B14770   9.091  16.655   6.319 -0.0766 -0.0593  0.1046
  965loPI   C3B14771   9.093  16.511   6.710  0.2987  0.1883  0.2105
  965loPI   C4B14772   9.070  16.674   7.133 -0.1024  0.0218 -0.1466
  966loPI    C114773   1.433   7.337   4.960 -0.1351  0.1580  0.0094
  966loPI    C214774   1.418   7.324   4.560 -0.0587 -0.1135  0.0133
  966loPI    C314775   1.180   7.087   4.777 -0.1565  0.0901  0.1313
  966loPI   PO414776   1.387   7.469   5.128  0.1790  0.0654  0.0624
  966loPI   GL114777   1.454   7.836   5.280 -0.1020 -0.0735  0.0510
  966loPI   GL214778   1.581   8.089   5.402 -0.2550 -0.2381 -0.0578
  966loPI   C1A14779   1.513   7.762   5.727 -0.1585 -0.0883  0.3942
  966loPI   C2A14780   1.497   7.828   6.167 -0.2078 -0.1157 -0.2950
  966loPI   C3A14781   1.567   7.942   6.557 -0.3327 -0.1432 -0.2798
  966loPI   C4A14782   1.549   7.970   6.937  0.1236 -0.1819 -0.2457
  966loPI   C5A14783   1.510   8.047   7.346  0.3048 -0.0572 -0.0693
  966loPI   C6A14784   1.686   8.296   7.593  0.0836  0.2274  0.3358
  966loPI   C1B14785   1.632   8.285   5.830  0.2019 -0.1100 -0.1444
  966loPI   C2B14786   1.666   8.348   6.213  0.1697  0.0769 -0.2091
  966loPI   C3B14787   1.559   8.471   6.667 -0.2938  0.2460 -0.0212
  966loPI   C4B14788   1.546   8.461   7.080 -0.0059 -0.3316  0.0212
  967loPI    C114789  15.797   0.469   5.017  0.1019  0.1834  0.0893
  967loPI    C214790  15.929   0.095   4.965 -0.0532  0.0901  0.3455
  967loPI    C314791  15.588   0.212   4.793 -0.0133  0.1099  0.2792
  967loPI   PO414792  15.928   0.521   5.250 -0.3766 -0.1629 -0.0429
  967loPI   GL114793  16.230   0.256   5.401  0.0498  0.0203  0.1113
  967loPI   GL214794  16.507   0.267   5.581 -0.1585 -0.3198  0.0942
  967loPI   C1A14795  15.915   0.301   5.881 -0.0567  0.2090  0.0010
  967loPI   C2A14796  15.929   0.542   6.229  0.1198  0.1982 -0.0916
  967loPI   C3A14797  15.695   0.656   6.555 -0.0144 -0.1757  0.1248
  967loPI   C4A14798  15.398   0.773   6.739 -0.0174 -0.1383 -0.2192
  967loPI   C5A14799  15.169   1.029   6.951 -0.3710  0.4184 -0.0886
  967loPI   C6A14800  14.950   1.369   7.251  0.1331 -0.1415  0.3655
  967loPI   C1B14801  16.529   0.598   5.972 -0.0042  0.3050 -0.0536
  967loPI   C2B14802  16.502   0.650   6.455  0.0189 -0.1487 -0.0106
  967loPI   C3B14803  16.754   0.778   6.855 -0.4245  0.0530 -0.0025
  967loPI   C4B14804  17.006   0.638   7.169 -0.1695 -0.2109 -0.2145
  968loPI    C114805  14.367   3.700   4.236  0.0431  0.2118  0.0813
  968loPI    C214806  14.087   3.986   4.237  0.0681  0.2369  0.2548
  968loPI    C314807  14.461   4.072   4.122  0.0425  0.2408  0.1741
  968loPI   PO414808  14.344   3.579   4.479 -0.0399  0.1397 -0.0957
  968loPI   GL114809  14.505   3.662   4.962 -0.1132 -0.2091  0.0837
  968loPI   GL214810  14.490   3.995   5.204  0.0802  0.1493 -0.0434
  968loPI   C1A14811  14.409   3.548   5.389  0.0652 -0.1819 -0.1188
  968loPI   C2A14812  14.472   3.355   5.803 -0.0215  0.3673  0.0375
  968loPI   C3A14813  14.681   3.249   6.174  0.1622  0.0044 -0.1931
  968loPI   C4A14814  15.018   3.309   6.537  0.0014 -0.3798 -0.3214
  968loPI   C5A14815  15.249   3.436   6.762 -0.0412  0.0648  0.1409
  968loPI   C6A14816  15.654   3.372   7.046  0.1702 -0.3478  0.0016
  968loPI   C1B14817  14.326   3.973   5.565  0.1478 -0.0223 -0.0684
  968loPI   C2B14818  14.131   4.171   5.875  0.0982 -0.1780  0.0264
  968loPI   C3B14819  14.048   4.394   6.244  0.2146  0.1148  0.0205
  968loPI   C4B14820  14.131   4.316   6.707  0.0516  0.0171  0.5346
  969loPI    C114821   6.662  12.476   4.653 -0.0143 -0.0556  0.1662
  969loPI    C214822   6.621  12.099   4.526  0.0122  0.0526 -0.1757
  969loPI    C314823   6.963  12.297   4.459 -0.0534  0.1847 -0.1246
  969loPI   PO414824   6.688  12.529   4.929  0.1518 -0.0075 -0.0733
  969loPI   GL114825   6.662  12.510   5.380 -0.0217 -0.1615 -0.2080
  969loPI   GL214826   6.302  12.288   5.286 -0.2929  0.0078  0.2310
  969loPI   C1A14827   6.664  12.492   5.894 -0.0331 -0.3374 -0.0972
  969loPI   C2A14828   7.022  12.506   6.186  0.1188 -0.4288 -0.0458
  969loPI   C3A14829   7.079  12.699   6.698 -0.0929 -0.1166  0.2421
  969loPI   C4A14830   7.026  12.992   7.049 -0.1949 -0.2868 -0.0583
  969loPI   C5A14831   7.261  13.384   7.153 -0.0064  0.2243 -0.0553
  969loPI   C6A14832   7.153  13.674   7.319  0.0169 -0.0292 -0.0349
  969loPI   C1B14833   6.280  12.202   5.691  0.0256  0.2739 -0.1119
  969loPI   C2B14834   6.256  12.292   6.129  0.0874 -0.4186  0.1637
  969loPI   C3B14835   6.567  12.504   6.447 -0.0077  0.1467 -0.0023
  969loPI   C4B14836   6.592  12.362   6.803 -0.0781  0.2690 -0.1332
  970loPI    C114837  14.010  15.820   5.294 -0.0222  0.0824  0.0166
  970loPI    C214838  13.975  15.433   5.201  0.1541  0.0614  0.0329
  970loPI    C314839  14.337  15.601   5.220  0.0736  0.2465 -0.0515
  970loPI   PO414840  13.691  15.905   5.161  0.3916 -0.1696  0.0258
  970loPI   GL114841  13.352  16.053   5.458 -0.2947 -0.0894  0.1706
  970loPI   GL214842  13.689  16.028   5.610 -0.0664 -0.1813 -0.1118
  970loPI   C1A14843  13.255  16.121   5.794 -0.0939 -0.0389 -0.3149
  970loPI   C2A14844  13.171  15.984   6.190 -0.0707  0.1345  0.2869
  970loPI   C3A14845  12.922  15.931   6.570  0.1932 -0.0780 -0.2677
  970loPI   C4A14846  12.912  15.967   6.945  0.2422  0.2575 -0.2046
  970loPI   C5A14847  13.051  16.224   7.367  0.1573 -0.1004 -0.1477
  970loPI   C6A14848  13.235  16.632   7.341 -0.3488 -0.3063 -0.1250
  970loPI   C1B14849  13.742  15.873   6.056  0.1136 -0.2419  0.0103
  970loPI   C2B14850  13.588  15.916   6.432 -0.0523 -0.0530  0.1280
  970loPI   C3B14851  13.578  16.027   6.724 -0.0208  0.0572 -0.0798
  970loPI   C4B14852  13.471  16.037   7.203 -0.0607  0.0431 -0.0876
  971loPI    C114853   4.971   8.457   4.777  0.1690 -0.0404  0.1743
  971loPI    C214854   5.017   8.588   4.401 -0.1554 -0.0552  0.1273
  971loPI    C314855   5.254   8.298   4.542  0.0268  0.0127 -0.0360
  971loPI   PO414856   4.953   8.602   4.979 -0.1699 -0.2403  0.1967
  971loPI   GL114857   5.187   8.550   5.427  0.2819 -0.1590  0.0169
  971loPI   GL214858   4.825   8.472   5.498  0.1768 -0.2041 -0.0658
  971loPI   C1A14859   5.270   8.504   5.803  0.0566  0.0152  0.0553
  971loPI   C2A14860   5.204   8.524   6.180  0.1484 -0.0204  0.3260
  971loPI   C3A14861   5.193   8.531   6.668 -0.0228 -0.1264 -0.4605
  971loPI   C4A14862   5.138   8.832   7.038  0.0193 -0.3379 -0.1635
  971loPI   C5A14863   4.653   9.033   7.239 -0.1279 -0.1923 -0.3225
  971loPI   C6A14864   4.381   9.104   7.505  0.1725 -0.4299 -0.0015
  971loPI   C1B14865   4.717   8.349   5.966 -0.1447  0.2119  0.2103
  971loPI   C2B14866   4.751   8.313   6.395 -0.4457  0.0410  0.1389
  971loPI   C3B14867   4.944   8.087   6.642 -0.0140 -0.3297 -0.5209
  971loPI   C4B14868   5.274   8.180   6.997  0.2341  0.3025 -0.2765
  972loPI    C114869  12.345   2.603   4.768 -0.0690  0.1766  0.1154
  972loPI    C214870  12.283   2.467   4.397  0.4596  0.3244 -0.0371
  972loPI    C314871  12.044   2.749   4.550  0.2005  0.2182 -0.2380
  972loPI   PO414872  12.319   2.330   5.010 -0.1438  0.0140 -0.1520
  972loPI   GL114873  12.463   2.230   5.410 -0.1209  0.1564  0.2312
  972loPI   GL214874  12.796   2.027   5.394 -0.0288  0.2167  0.1061
  972loPI   C1A14875  12.561   2.352   5.862 -0.2820  0.0299  0.3022
  972loPI   C2A14876  12.715   2.605   6.243  0.0971 -0.0744  0.1748
  972loPI   C3A14877  12.403   2.850   6.501  0.2977 -0.1569 -0.1348
  972loPI   C4A14878  12.337   3.215   6.857  0.3433  0.1396 -0.1087
  972loPI   C5A14879  12.492   3.439   7.282  0.0043 -0.0343 -0.1841
  972loPI   C6A14880  12.576   3.714   7.594 -0.0579 -0.0193  0.0816
  972loPI   C1B14881  12.782   1.885   5.835 -0.1629 -0.1750 -0.1772
  972loPI   C2B14882  12.656   1.973   6.313  0.0345  0.1942 -0.1138
  972loPI   C3B14883  12.722   2.026   6.796 -0.1621 -0.1497 -0.3220
  972loPI   C4B14884  12.965   1.832   7.127  0.3380  0.1777 -0.3850
  973loPI    C114885   1.074   7.788   4.910 -0.1532 -0.1523  0.0951
  973loPI    C214886   0.738   7.840   4.699 -0.1193 -0.1070  0.0521
  973loPI    C314887   0.944   7.498   4.668 -0.0517 -0.0552 -0.0773
  973loPI   PO414888   0.994   7.855   5.108  0.2026  0.0685 -0.1848
  973loPI   GL114889   0.997   7.708   5.532 -0.0250  0.0597 -0.5348
  973loPI   GL214890   1.169   7.426   5.596 -0.3534 -0.2561  0.2858
  973loPI   C1A14891   0.735   7.808   5.823  0.0485 -0.3001  0.0531
  973loPI   C2A14892   0.472   7.683   6.232  0.0109  0.1544 -0.2878
  973loPI   C3A14893   0.564   7.618   6.617 -0.0644 -0.1403 -0.1631
  973loPI   C4A14894   0.310   7.781   7.006 -0.2096  0.2240 -0.1753
  973loPI   C5A14895   0.250   7.781   7.383  0.2217  0.2046 -0.2243
  973loPI   C6A14896   0.231   8.008   7.801  0.0633 -0.0162  0.0996
  973loPI   C1B14897   1.155   7.540   5.999 -0.0156 -0.0314  0.4507
  973loPI   C2B14898   0.944   7.670   6.240  0.1535  0.0286 -0.6023
  973loPI   C3B14899   1.104   7.837   6.617  0.0213 -0.4090  0.2060
  973loPI   C4B14900   1.053   8.001   7.086 -0.1281 -0.1212 -0.2897
  974loPI    C114901  13.979   1.634   4.756 -0.0455  0.1258 -0.1518
  974loPI    C214902  14.306   1.863   4.764 -0.0506  0.1342 -0.1807
  974loPI    C314903  13.950   2.026   4.681 -0.0730  0.1380 -0.0783
  974loPI   PO414904  14.052   1.441   4.951 -0.2440 -0.0901  0.0677
  974loPI   GL114905  13.972   1.434   5.347  0.3714 -0.1435 -0.0152
  974loPI   GL214906  14.249   1.291   5.594 -0.1086 -0.1484 -0.0197
  974loPI   C1A14907  14.077   1.791   5.658  0.0389  0.0591 -0.0781
  974loPI   C2A14908  14.094   1.958   6.080  0.2325  0.1109 -0.0432
  974loPI   C3A14909  13.858   1.899   6.493 -0.1376  0.1213 -0.1372
  974loPI   C4A14910  13.944   1.927   6.863  0.2382  0.0646  0.0366
  974loPI   C5A14911  13.833   1.759   7.371 -0.0992 -0.4565 -0.0630
  974loPI   C6A14912  13.724   2.050   7.799 -0.3182  0.2223  0.0159
  974loPI   C1B14913  13.999   1.421   5.919 -0.0217  0.1860  0.1798
  974loPI   C2B14914  14.059   1.371   6.390 -0.0473  0.0902 -0.1316
  974loPI   C3B14915  14.264   1.532   6.711 -0.2436 -0.0573  0.1996
  974loPI   C4B14916  14.254   1.315   7.134 -0.1720 -0.1220 -0.1615
  975loPI    C114917   5.287  13.381   4.942  0.1519 -0.2457  0.0410
  975loPI    C214918   5.408  13.186   4.614 -0.0756 -0.0726 -0.1502
  975loPI    C314919   5.200  13.526   4.579 -0.0453 -0.0166  0.1762
  975loPI   PO414920   5.157  13.260   5.151  0.0066 -0.0031  0.0320
  975loPI   GL114921   5.249  13.391   5.543 -0.0206 -0.0448 -0.3433
  975loPI   GL214922   5.194  13.758   5.649 -0.2016 -0.0306 -0.0246
  975loPI   C1A14923   5.413  13.424   5.991 -0.1799 -0.1053 -0.1172
  975loPI   C2A14924   5.564  13.338   6.396 -0.2813 -0.1479  0.1567
  975loPI   C3A14925   5.885  13.232   6.652 -0.0817 -0.0234 -0.0573
  975loPI   C4A14926   5.765  12.855   6.839  0.1698  0.0288  0.0051
  975loPI   C5A14927   6.060  12.711   7.065  0.0154 -0.1089  0.1728
  975loPI   C6A14928   6.525  12.738   7.229  0.0456 -0.1972 -0.0083
  975loPI   C1B14929   5.130  13.822   6.101  0.2461 -0.0127  0.2740
  975loPI   C2B14930   5.099  13.474   6.406 -0.0030 -0.0721 -0.4792
  975loPI   C3B14931   4.827  13.397   6.845 -0.0221 -0.2320  0.2342
  975loPI   C4B14932   4.522  13.402   7.125  0.2409  0.2662  0.0927
  976loPI    C114933  11.030   7.425   4.560  0.0606  0.0076  0.0388
  976loPI    C214934  11.263   7.655   4.331 -0.2226  0.2068 -0.0555
  976loPI    C314935  11.314   7.258   4.334  0.2573  0.2633  0.0924
  976loPI   PO414936  11.153   7.460   4.859 -0.0575 -0.3713 -0.0315
  976loPI   GL114937  11.462   7.390   5.231 -0.3838  0.0658  0.0849
  976loPI   GL214938  11.361   7.086   5.211  0.0857 -0.0907 -0.1204
  976loPI   C1A14939  11.536   7.521   5.691 -0.0878 -0.2099 -0.3356
  976loPI   C2A14940  11.551   7.371   6.077 -0.2728 -0.3981  0.3601
  976loPI   C3A14941  11.439   7.249   6.447  0.2285 -0.1674  0.0633
  976loPI   C4A14942  11.369   7.374   6.881 -0.0581  0.0565  0.2209
  976loPI   C5A14943  11.731   7.494   7.114  0.1056 -0.0188 -0.3137
  976loPI   C6A14944  11.873   7.746   7.348  0.1637  0.2655 -0.3063
  976loPI   C1B14945  11.353   7.097   5.627  0.3776  0.0190  0.1849
  976loPI   C2B14946  11.283   6.964   6.008  0.3170 -0.3240 -0.2173
  976loPI   C3B14947  11.453   6.759   6.452 -0.0101  0.2016 -0.0609
  976loPI   C4B14948  11.569   6.639   6.847 -0.0473  0.2517  0.0458
  977loPI    C114949  14.588  18.579   4.737 -0.2574 -0.0739 -0.3180
  977loPI    C214950  14.243  18.775   4.787 -0.1272  0.0714  0.0483
  977loPI    C314951  14.401  18.739   4.421 -0.4319  0.1678 -0.0969
  977loPI   PO414952  14.571  18.328   4.888 -0.2262  0.0080  0.2769
  977loPI   GL114953  14.894  18.342   5.203 -0.0057  0.2482  0.1354
  977loPI   GL214954  14.577  18.364   5.448 -0.1857 -0.0915 -0.2117
  977loPI   C1A14955  14.989  18.140   5.643  0.0219  0.0298 -0.0566
  977loPI   C2A14956  14.845  17.914   5.976  0.0084  0.0270 -0.1349
  977loPI   C3A14957  14.752  17.787   6.335  0.1971  0.2095  0.1266
  977loPI   C4A14958  14.562  17.599   6.598  0.0410 -0.2450  0.0313
  977loPI   C5A14959  14.644  17.502   6.968 -0.0785  0.0196  0.0480
  977loPI   C6A14960  15.002  17.675   7.194 -0.0306 -0.2504  0.3521
  977loPI   C1B14961  14.467  18.278   5.782  0.0764 -0.3054 -0.2608
  977loPI   C2B14962  14.395  18.286   6.242 -0.4864  0.1965  0.0777
  977loPI   C3B14963  14.510  18.143   6.584  0.0078 -0.0247 -0.0477
  977loPI   C4B14964  14.291  17.926   6.882  0.1778  0.1929 -0.1859
  978loPI    C114965   9.178   0.608   5.053 -0.0079  0.0226 -0.1259
  978loPI    C214966   9.263   0.658   4.665  0.3605  0.2175 -0.0249
  978loPI    C314967   8.990   0.891   4.842 -0.0234 -0.0647 -0.2299
  978loPI   PO414968   9.410   0.575   5.190  0.0273 -0.0797  0.0321
  978loPI   GL114969   9.508   0.689   5.573 -0.1805 -0.0780 -0.1340
  978loPI   GL214970   9.629   1.064   5.543 -0.1843 -0.1434  0.4685
  978loPI   C1A14971   9.390   0.911   5.931  0.1113  0.4629  0.0667
  978loPI   C2A14972   9.111   0.884   6.338 -0.1431 -0.0138 -0.1714
  978loPI   C3A14973   8.876   0.832   6.710 -0.1047 -0.1705  0.0449
  978loPI   C4A14974   8.811   0.622   7.097 -0.0647 -0.1133  0.0307
  978loPI   C5A14975   9.042   0.354   7.232 -0.3043 -0.0250  0.2244
  978loPI   C6A14976   9.151   0.402   7.592  0.1023 -0.1930 -0.1588
  978loPI   C1B14977   9.560   1.480   5.737  0.0350 -0.0235  0.0681
  978loPI   C2B14978   9.506   1.650   6.167  0.0219  0.0089 -0.0038
  978loPI   C3B14979   9.262   1.719   6.521  0.2683  0.0059  0.0302
  978loPI   C4B14980   9.142   1.940   6.930  0.1296  0.1336 -0.1633
  979loPI    C114981  15.515   1.462   4.889  0.0176  0.0340  0.1878
  979loPI    C214982  15.778   1.161   4.880  0.0509  0.0645  0.1326
  979loPI    C314983  15.726   1.390   4.557 -0.3666 -0.2179 -0.0089
  979loPI   PO414984  15.604   1.558   5.093 -0.0569  0.1639 -0.1716
  979loPI   GL114985  15.493   1.702   5.482 -0.0283  0.3782 -0.0739
  979loPI   GL214986  15.150   1.465   5.537  0.0277 -0.0314  0.0773
  979loPI   C1A14987  15.610   1.428   5.875 -0.0855  0.0337  0.0717
  979loPI   C2A14988  15.781   1.462   6.229  0.1690  0.1965  0.1277
  979loPI   C3A14989  15.765   1.784   6.612 -0.0800  0.3023 -0.1446
  979loPI   C4A14990  15.811   1.862   7.062  0.4038 -0.2513  0.0353
  979loPI   C5A14991  16.094   2.021   7.497 -0.3897 -0.2881 -0.1818
  979loPI   C6A14992  16.378   2.337   7.642  0.1909  0.1579  0.0142
  979loPI   C1B14993  15.054   1.238   6.044 -0.1914  0.2931  0.2497
  979loPI   C2B14994  14.776   1.441   6.286  0.0467 -0.1998  0.2443
  979loPI   C3B14995  14.853   1.751   6.655 -0.3378  0.1500  0.2883
  979loPI   C4B14996  14.992   1.985   6.943  0.0653  0.1391 -0.0141
  980loPI    C114997   9.668   6.194   4.677  0.5790 -0.0732 -0.1510
  980loPI    C214998   9.462   6.510   4.545  0.4618 -0.0739  0.0274
  980loPI    C314999   9.618   6.251   4.284  0.1494 -0.1284 -0.1093
  980loPI   PO415000   9.756   6.378   4.936 -0.4231 -0.3362  0.3643
  980loPI   GL115001   9.627   6.356   5.372 -0.2326  0.3385  0.0385
  980loPI   GL215002   9.458   6.032   5.393 -0.0046 -0.2526 -0.3445
  980loPI   C1A15003   9.668   6.428   5.818 -0.1519 -0.0245 -0.1977
  980loPI   C2A15004   9.476   6.560   6.133 -0.0044 -0.3100 -0.1115
  980loPI   C3A15005   9.081   6.497   6.313  0.0514  0.0339 -0.3324
  980loPI   C4A15006   8.737   6.757   6.516 -0.0538 -0.0402 -0.1416
  980loPI   C5A15007   8.429   6.907   6.877  0.0237  0.1381  0.2341
  980loPI   C6A15008   8.054   6.801   7.018 -0.0744 -0.2250 -0.2147
  980loPI   C1B15009   9.474   5.986   5.826  0.3482  0.3410 -0.0741
  980loPI   C2B15010   9.311   6.081   6.212  0.1337  0.0887  0.2063
  980loPI   C3B15011   9.159   6.104   6.649  0.1916 -0.1797  0.0729
  980loPI   C4B15012   8.930   6.450   6.880 -0.0996 -0.1470 -0.0553
  981loPI    C115013  10.099  12.470   4.793  0.1458 -0.2119  0.1735
  981loPI    C215014  10.292  12.764   4.984 -0.1846  0.0005  0.1883
  981loPI    C315015  10.444  12.610   4.648 -0.0856  0.2976  0.0945
  981loPI   PO415016  10.026  12.310   5.046 -0.1655  0.1419  0.4754
  981loPI   GL115017   9.890  12.440   5.448  0.0629  0.0363 -0.3071
  981loPI   GL215018   9.930  12.374   5.762 -0.0355  0.2835  0.0553
  981loPI   C1A15019   9.792  12.014   5.540 -0.0225 -0.1753  0.0212
  981loPI   C2A15020   9.774  11.557   5.701 -0.0872  0.3122  0.2838
  981loPI   C3A15021   9.820  11.510   6.148  0.1183 -0.1723  0.0596
  981loPI   C4A15022   9.666  11.649   6.567  0.0266 -0.0890 -0.1981
  981loPI   C5A15023   9.605  11.520   6.951  0.0689  0.0214 -0.0412
  981loPI   C6A15024   9.494  11.409   7.325 -0.1229 -0.0641 -0.1588
  981loPI   C1B15025   9.832  12.506   6.113 -0.2096  0.1433  0.1909
  981loPI   C2B15026   9.856  12.296   6.581 -0.0271 -0.1842  0.0223
  981loPI   C3B15027   9.780  12.090   6.990  0.1749  0.2239  0.2022
  981loPI   C4B15028   9.645  12.005   7.373 -0.0564  0.1214 -0.1799
  982loPI    C115029   5.002   5.703   5.022  0.0977 -0.0013  0.1787
  982loPI    C215030   4.786   5.459   4.790  0.0526  0.0022  0.2167
  982loPI    C315031   5.011   5.745   4.624  0.2862 -0.2117  0.1589
  982loPI   PO415032   4.973   5.474   5.313 -0.0246  0.1918 -0.2317
  982loPI   GL115033   4.992   5.554   5.702  0.0585 -0.2695  0.1151
  982loPI   GL215034   4.639   5.523   5.743 -0.0089  0.1965 -0.1008
  982loPI   C1A15035   4.997   5.653   6.142 -0.2359 -0.0295 -0.0722
  982loPI   C2A15036   5.233   5.674   6.409  0.0189  0.1019  0.5047
  982loPI   C3A15037   5.453   5.683   6.848  0.1337  0.4272  0.1830
  982loPI   C4A15038   5.597   5.447   7.179 -0.0040  0.1505 -0.0013
  982loPI   C5A15039   5.524   5.045   7.391 -0.1676  0.0286  0.1645
  982loPI   C6A15040   5.696   4.622   7.653 -0.3537 -0.3550  0.4209
  982loPI   C1B15041   4.577   5.210   6.293  0.1074 -0.2048  0.1937
  982loPI   C2B15042   4.248   5.032   6.529 -0.2022  0.0433  0.1343
  982loPI   C3B15043   4.186   5.029   6.974  0.2371  0.1214  0.2682
  982loPI   C4B15044   3.773   5.034   7.167  0.0441  0.1164  0.0449
  983loPI    C115045   6.131   7.320   4.739  0.4068  0.0802 -0.0511
  983loPI    C215046   6.310   7.127   4.437 -0.0419 -0.1590 -0.1727
  983loPI    C315047   5.912   7.170   4.440 -0.0201  0.0709  0.2574
  983loPI   PO415048   6.274   7.185   4.924 -0.3489 -0.0409  0.0332
  983loPI   GL115049   6.445   7.207   5.331  0.2803  0.3547  0.2124
  983loPI   GL215050   6.484   6.927   5.321 -0.1595 -0.0632  0.1312
  983loPI   C1A15051   6.579   7.467   5.669 -0.0547  0.3033 -0.1971
  983loPI   C2A15052   6.559   7.739   5.892 -0.0820  0.0379 -0.2408
  983loPI   C3A15053   6.501   7.732   6.406 -0.2092  0.0494  0.0604
  983loPI   C4A15054   6.615   7.680   6.816  0.1772  0.2631  0.2593
  983loPI   C5A15055   6.704   7.294   7.058  0.1572 -0.1919  0.1397
  983loPI   C6A15056   6.643   6.879   7.114 -0.0186 -0.0195 -0.0016
  983loPI   C1B15057   6.448   6.922   5.746  0.1734  0.1017 -0.1009
  983loPI   C2B15058   6.636   7.245   6.077 -0.2289 -0.0767  0.1924
  983loPI   C3B15059   6.779   7.263   6.501  0.0443 -0.4176  0.4289
  983loPI   C4B15060   7.018   6.981   6.652 -0.0109  0.0986  0.0454
  984loPI    C115061  15.745  10.637   4.397  0.1399 -0.1666  0.1433
  984loPI    C215062  16.145  10.642   4.377  0.1316  0.2144 -0.0264
  984loPI    C315063  15.929  10.827   4.096 -0.1686 -0.0489  0.0252
  984loPI   PO415064  15.693  10.796   4.574  0.1436  0.3108  0.0572
  984loPI   GL115065  15.633  10.754   4.997 -0.0954  0.2643  0.0717
  984loPI   GL215066  15.702  10.908   5.283 -0.1334  0.0470  0.0796
  984loPI   C1A15067  15.591  10.380   5.333 -0.0940  0.2269  0.2199
  984loPI   C2A15068  15.637  10.265   5.756  0.2105  0.3915  0.1870
  984loPI   C3A15069  15.607  10.266   6.235  0.0290 -0.0303 -0.1004
  984loPI   C4A15070  15.607  10.186   6.707 -0.2392  0.3207  0.3671
  984loPI   C5A15071  15.821  10.061   7.041 -0.2703 -0.1009 -0.0559
  984loPI   C6A15072  16.196  10.169   7.164  0.0274 -0.4119 -0.0727
  984loPI   C1B15073  15.482  10.783   5.584 -0.1077  0.0029 -0.0702
  984loPI   C2B15074  15.701  10.747   6.011  0.0565  0.1735 -0.2056
  984loPI   C3B15075  15.825  10.740   6.445  0.4412 -0.2059 -0.0615
  984loPI   C4B15076  15.946  10.569   6.918  0.2631 -0.0397  0.2159
  985loPI    C115077   7.884   6.709   4.294  0.0166  0.1253 -0.0289
  985loPI    C215078   8.084   6.365   4.328  0.0510  0.1820  0.4124
  985loPI    C315079   7.687   6.361   4.277  0.0706  0.0784  0.2581
  985loPI   PO415080   7.994   6.888   4.496 -0.1708  0.0215 -0.2363
  985loPI   GL115081   8.282   7.139   4.707 -0.1410  0.0800 -0.1417
  985loPI   GL215082   8.475   7.151   4.960  0.2186  0.1562  0.0910
  985loPI   C1A15083   7.979   7.396   5.054  0.2283 -0.2952  0.1442
  985loPI   C2A15084   8.151   7.532   5.397 -0.3161  0.0273 -0.0668
  985loPI   C3A15085   8.028   7.582   5.776 -0.0138  0.1034 -0.0463
  985loPI   C4A15086   8.134   7.494   6.208  0.3798 -0.1472  0.0752
  985loPI   C5A15087   8.299   7.376   6.631 -0.0925 -0.2728  0.1100
  985loPI   C6A15088   8.153   7.304   7.063  0.3454  0.3535 -0.1818
  985loPI   C1B15089   8.446   7.172   5.339  0.0857  0.0517  0.0545
  985loPI   C2B15090   8.456   7.336   5.835 -0.0495 -0.0663  0.1878
  985loPI   C3B15091   8.618   7.230   6.261 -0.0377  0.1037  0.1559
  985loPI   C4B15092   8.850   7.212   6.792  0.0032 -0.2715 -0.2621
  986loPI    C115093  12.041   4.751   4.653 -0.1503 -0.0192 -0.0905
  986loPI    C215094  12.004   4.699   4.258 -0.1489  0.1466 -0.1132
  986loPI    C315095  11.770   4.962   4.448  0.0326  0.2638 -0.0481
  986loPI   PO415096  12.352   4.685   4.723 -0.0495 -0.4369 -0.1457
  986loPI   GL115097  12.523   4.526   5.052  0.0614  0.0926 -0.1943
  986loPI   GL215098  12.726   4.755   5.330  0.2039  0.0242 -0.0549
  986loPI   C1A15099  12.269   4.378   5.432  0.1997  0.0826  0.0591
  986loPI   C2A15100  12.085   4.457   5.809  0.1837 -0.2785  0.0644
  986loPI   C3A15101  12.075   4.542   6.247  0.0232 -0.1919 -0.2246
  986loPI   C4A15102  11.847   4.830   6.500 -0.0796 -0.3062 -0.3873
  986loPI   C5A15103  11.995   5.103   6.804 -0.0321  0.1285 -0.0135
  986loPI   C6A15104  12.284   5.213   7.212 -0.0543 -0.1213 -0.0690
  986loPI   C1B15105  12.681   4.544   5.687  0.0698  0.1271 -0.1525
  986loPI   C2B15106  12.630   4.498   6.070 -0.1677 -0.2737 -0.0040
  986loPI   C3B15107  12.624   4.461   6.491 -0.3981 -0.3423  0.1039
  986loPI   C4B15108  12.717   4.375   6.923  0.2746 -0.3930 -0.2600
  987loPI    C115109   6.997   3.128   5.143  0.1286 -0.0552  0.0466
  987loPI    C215110   7.132   3.019   4.783  0.1545  0.0062  0.0377
  987loPI    C315111   7.381   3.187   5.047  0.0945  0.1247  0.0191
  987loPI   PO415112   6.738   2.966   5.070 -0.2641 -0.2494 -0.2550
  987loPI   GL115113   6.569   2.865   5.437  0.2392  0.0193  0.0566
  987loPI   GL215114   6.778   2.731   5.588 -0.0362  0.2567  0.1188
  987loPI   C1A15115   6.365   2.905   5.912  0.0116 -0.1558 -0.0114
  987loPI   C2A15116   6.519   2.841   6.324  0.4610 -0.0064 -0.0548
  987loPI   C3A15117   6.748   2.599   6.651  0.0796 -0.1619 -0.4534
  987loPI   C4A15118   6.839   2.359   6.965  0.1287  0.2259  0.2819
  987loPI   C5A15119   6.933   2.068   7.247  0.0544 -0.0840 -0.0122
  987loPI   C6A15120   6.584   1.716   7.331  0.2691 -0.1618  0.3853
  987loPI   C1B15121   6.897   2.926   5.937  0.1915  0.0331 -0.1650
  987loPI   C2B15122   7.001   2.966   6.424  0.1441 -0.0777  0.1250
  987loPI   C3B15123   6.913   3.137   6.865  0.2030 -0.2114  0.2755
  987loPI   C4B15124   6.781   2.874   7.097  0.0778 -0.1405 -0.3215
  988loPI    C115125  18.160   8.034   4.306  0.1121  0.0348  0.0489
  988loPI    C215126  18.169   7.637   4.349  0.2384  0.0396  0.0723
  988loPI    C315127  17.820   7.825   4.297  0.1485 -0.0433  0.3555
  988loPI   PO415128  18.234   8.281   4.544  0.1428 -0.0703  0.1477
  988loPI   GL115129  18.188   8.341   5.053  0.1844 -0.2256  0.1998
  988loPI   GL215130  18.439   8.660   5.074  0.3362  0.3309  0.1005
  988loPI   C1A15131  18.548   8.269   5.394  0.0645 -0.4066  0.1100
  988loPI   C2A15132  18.591   8.288   5.822  0.0486 -0.0062  0.0219
  988loPI   C3A15133  18.508   8.398   6.250 -0.2189 -0.0477 -0.1027
  988loPI   C4A15134  18.286   8.554   6.703  0.2768  0.0148  0.2781
  988loPI   C5A15135  18.407   8.700   7.114  0.0794 -0.0454  0.1299
  988loPI   C6A15136  18.449   8.421   7.371 -0.3169 -0.1446  0.4055
  988loPI   C1B15137  18.253   8.652   5.459 -0.0846 -0.0455  0.3191
  988loPI   C2B15138  18.207   8.618   5.903  0.2448  0.1227  0.1288
  988loPI   C3B15139  17.993   8.501   6.298 -0.2999 -0.0405 -0.0401
  988loPI   C4B15140  17.673   8.549   6.536 -0.3014 -0.1666  0.0520
  989loPI    C115141   8.817  17.509   4.721 -0.0382  0.1007 -0.0432
  989loPI    C215142   9.055  17.203   4.621 -0.1977 -0.0945  0.1653
  989loPI    C315143   9.022  17.518   4.377  0.1361 -0.1440  0.0512
  989loPI   PO415144   8.789  17.547   5.086 -0.1695  0.0089  0.2548
  989loPI   GL115145   8.578  17.328   5.385 -0.2348  0.1205  0.2354
  989loPI   GL215146   8.320  17.124   5.481  0.1438 -0.0520 -0.2335
  989loPI   C1A15147   8.674  17.454   5.846 -0.0674 -0.2701 -0.3762
  989loPI   C2A15148   8.632  17.549   6.360 -0.1184  0.0804  0.2167
  989loPI   C3A15149   8.695  17.436   6.751  0.1341 -0.0157  0.0830
  989loPI   C4A15150   8.530  17.178   7.100 -0.2959  0.2956 -0.0652
  989loPI   C5A15151   8.677  16.902   7.530 -0.0777 -0.1363 -0.0792
  989loPI   C6A15152   8.861  16.534   7.592 -0.2371 -0.1706  0.2106
  989loPI   C1B15153   8.328  17.026   5.903 -0.2368 -0.4570  0.1531
  989loPI   C2B15154   8.519  17.008   6.379 -0.0869 -0.2536  0.1251
  989loPI   C3B15155   8.568  16.767   6.758 -0.1511 -0.3304 -0.0376
  989loPI   C4B15156   8.591  16.573   7.137  0.0782  0.0308 -0.0770
  990loPI    C115157  13.949   6.498   4.679 -0.0208 -0.1250  0.1069
  990loPI    C215158  13.638   6.250   4.721 -0.2375  0.0787 -0.2509
  990loPI    C315159  13.861   6.238   4.389 -0.0126  0.1023 -0.1028
  990loPI   PO415160  13.893   6.653   4.841  0.2969 -0.0950 -0.2154
  990loPI   GL115161  13.427   6.564   5.090  0.0332  0.0779 -0.2818
  990loPI   GL215162  13.640   6.426   5.201  0.1256  0.2625 -0.2005
  990loPI   C1A15163  13.525   6.989   5.385  0.2574 -0.2449  0.1133
  990loPI   C2A15164  13.584   6.972   5.880  0.1568 -0.1419 -0.3157
  990loPI   C3A15165  13.297   7.180   6.122 -0.2234 -0.0098  0.1506
  990loPI   C4A15166  13.278   7.414   6.464  0.0075 -0.4928 -0.2033
  990loPI   C5A15167  13.237   7.399   6.804  0.1341  0.1037  0.1480
  990loPI   C6A15168  13.392   7.225   7.100 -0.0964  0.0371 -0.1444
  990loPI   C1B15169  13.573   6.554   5.559  0.1606 -0.1680  0.0673
  990loPI   C2B15170  13.603   6.439   5.998 -0.1757 -0.1138  0.1482
  990loPI   C3B15171  13.563   6.640   6.365  0.0806 -0.1595  0.1963
  990loPI   C4B15172  13.562   6.884   6.685  0.1241 -0.3277 -0.0804
  991loPI    C115173  12.324  16.635   5.206 -0.1425  0.1326  0.1606
  991loPI    C215174  12.577  16.837   4.971  0.0358 -0.2927 -0.0235
  991loPI    C315175  12.204  16.762   4.846 -0.0476 -0.0377  0.0673
  991loPI   PO415176  12.448  16.377   5.292  0.0013 -0.0292 -0.2846
  991loPI   GL115177  12.568  16.371   5.728 -0.1800 -0.2168 -0.0452
  991loPI   GL215178  12.775  16.377   5.823 -0.1292  0.1435  0.1034
  991loPI   C1A15179  12.272  16.491   6.137 -0.0911 -0.0090  0.4197
  991loPI   C2A15180  12.323  16.484   6.459  0.3127 -0.0907  0.1679
  991loPI   C3A15181  12.254  16.349   6.844 -0.5196  0.0973 -0.0050
  991loPI   C4A15182  11.953  16.069   7.076 -0.1314  0.0159  0.1768
  991loPI   C5A15183  11.608  15.809   7.288 -0.0902  0.1781 -0.2152
  991loPI   C6A15184  11.463  15.675   7.642 -0.0587 -0.0334  0.0477
  991loPI   C1B15185  12.789  16.308   6.211 -0.1430 -0.3140 -0.1452
  991loPI   C2B15186  12.762  16.379   6.660  0.2064 -0.2070 -0.0261
  991loPI   C3B15187  12.752  16.471   7.054  0.3592 -0.1794 -0.1914
  991loPI   C4B15188  12.680  16.625   7.396 -0.0240 -0.1962 -0.2812
  992loPI    C115189  12.711   0.424   5.016  0.0357  0.1760 -0.1715
  992loPI    C215190  12.856   0.189   4.726  0.0115  0.1849 -0.1908
  992loPI    C315191  12.474   0.153   4.841  0.0533  0.0987 -0.0767
  992loPI   PO415192  12.905   0.499   5.139 -0.0577 -0.2494 -0.0817
  992loPI   GL115193  13.085   0.608   5.492 -0.0677 -0.0335  0.1633
  992loPI   GL215194  13.248   0.308   5.676 -0.0354 -0.0219 -0.0656
  992loPI   C1A15195  12.912   0.582   5.906  0.2829  0.1199  0.0954
  992loPI   C2A15196  13.105   0.353   6.263  0.0144 -0.0307 -0.1320
  992loPI   C3A15197  13.229   0.584   6.641  0.1532 -0.5011  0.2353
  992loPI   C4A15198  13.537   0.605   6.952  0.0748 -0.0100  0.1879
  992loPI   C5A15199  13.795   0.732   7.219 -0.1173 -0.1618 -0.1304
  992loPI   C6A15200  14.146   0.928   7.412 -0.0026  0.3924  0.0621
  992loPI   C1B15201  13.390   0.010   6.043 -0.1274  0.0119 -0.0049
  992loPI   C2B15202  13.762  -0.165   6.233  0.3855  0.0791  0.2441
  992loPI   C3B15203  13.717  -0.397   6.611  0.2972  0.2550 -0.2216
  992loPI   C4B15204  13.899  -0.471   7.018  0.4339  0.0308  0.0390
  993loPI    C115205  10.699  17.377   4.910 -0.2537  0.0202 -0.1236
  993loPI    C215206  10.527  17.276   4.563  0.0088  0.0028 -0.2511
  993loPI    C315207  10.898  17.151   4.646 -0.1076 -0.1186  0.1026
  993loPI   PO415208  10.460  17.404   5.040  0.2365  0.1831  0.0089
  993loPI   GL115209  10.350  17.649   5.266  0.3054 -0.2265  0.1505
  993loPI   GL215210  10.423  17.880   5.380  0.0272 -0.0262  0.1485
  993loPI   C1A15211  10.155  17.678   5.798 -0.1687  0.1122  0.0063
  993loPI   C2A15212  10.200  17.767   6.234 -0.0202  0.1490 -0.1778
  993loPI   C3A15213   9.833  18.009   6.537 -0.1503  0.0012 -0.0570
  993loPI   C4A15214   9.659  17.860   6.946  0.1042  0.0978 -0.0578
  993loPI   C5A15215   9.352  17.758   7.220  0.0222 -0.1110 -0.2271
  993loPI   C6A15216   9.450  17.587   7.583 -0.1724  0.0199  0.2662
  993loPI   C1B15217  10.461  18.034   5.754 -0.0587 -0.4213 -0.0990
  993loPI   C2B15218  10.422  18.195   6.113 -0.1406  0.0216 -0.1473
  993loPI   C3B15219  10.314  18.170   6.581  0.3078 -0.1067 -0.2206
  993loPI   C4B15220  10.124  18.108   6.978  0.0694  0.0879  0.3769
  994loPI    C115221   5.642  12.587   4.534 -0.1673  0.0700 -0.1276
  994loPI    C215222   5.400  12.323   4.356 -0.2967  0.0440  0.0825
  994loPI    C315223   5.460  12.683   4.191 -0.0295 -0.1530 -0.2655
  994loPI   PO415224   5.665  12.501   4.838  0.1498 -0.1383 -0.0800
  994loPI   GL115225   5.816  12.440   5.180  0.1244 -0.1112  0.0839
  994loPI   GL215226   5.856  12.131   5.074 -0.1593  0.0562 -0.1831
  994loPI   C1A15227   5.722  12.515   5.510 -0.1688 -0.1472 -0.1724
  994loPI   C2A15228   5.829  12.364   5.901 -0.1796  0.0446 -0.1638
  994loPI   C3A15229   5.609  12.218   6.148 -0.1801 -0.3430  0.0131
  994loPI   C4A15230   5.220  12.077   6.392  0.1358 -0.0440  0.1922
  994loPI   C5A15231   5.183  11.966   6.855 -0.0025 -0.0815  0.2306
  994loPI   C6A15232   5.219  12.101   7.245 -0.0839 -0.1391  0.2048
  994loPI   C1B15233   5.802  12.029   5.549 -0.0174  0.3301 -0.0652
  994loPI   C2B15234   5.920  11.841   6.003 -0.0172  0.0006 -0.1388
  994loPI   C3B15235   5.924  11.963   6.486 -0.0050  0.1924  0.0237
  994loPI   C4B15236   5.727  11.808   6.787  0.1657  0.1852 -0.0833
  995loPI    C115237   7.890   8.143   4.826  0.0984 -0.0761  0.0362
  995loPI    C215238   7.985   7.809   4.627  0.0516 -0.0575 -0.0176
  995loPI    C315239   7.853   8.130   4.428 -0.3289 -0.1519  0.0733
  995loPI   PO415240   7.761   8.064   5.016 -0.1470  0.0915 -0.1652
  995loPI   GL115241   7.680   7.777   5.263  0.1101  0.2660  0.0140
  995loPI   GL215242   7.449   7.911   5.353  0.1962  0.1461 -0.3377
  995loPI   C1A15243   7.669   7.356   5.528  0.1564 -0.2388  0.0031
  995loPI   C2A15244   7.414   6.925   5.557  0.1454 -0.0173 -0.1566
  995loPI   C3A15245   7.286   6.621   5.875 -0.0085 -0.3880 -0.2481
  995loPI   C4A15246   7.248   6.376   6.280 -0.0231 -0.3497  0.0383
  995loPI   C5A15247   7.268   6.370   6.842 -0.2459 -0.1417  0.0121
  995loPI   C6A15248   7.343   6.126   7.288 -0.2040  0.1817 -0.1818
  995loPI   C1B15249   7.550   7.811   5.753 -0.0539 -0.2250 -0.2207
  995loPI   C2B15250   7.461   7.857   6.160 -0.0486 -0.1231  0.0800
  995loPI   C3B15251   7.468   8.008   6.499  0.2178 -0.0707  0.0612
  995loPI   C4B15252   7.506   8.035   6.882  0.1724  0.0116  0.2127
  996loPI    C115253  16.426   5.835   4.772 -0.0796  0.0123 -0.2337
  996loPI    C215254  16.725   5.994   4.559 -0.0067  0.0109 -0.1335
  996loPI    C315255  16.616   5.614   4.499  0.2994 -0.1224  0.1275
  996loPI   PO415256  16.626   6.006   5.088 -0.0312 -0.3135 -0.0503
  996loPI   GL115257  16.826   6.126   5.461 -0.1284 -0.0505  0.1543
  996loPI   GL215258  16.614   5.854   5.577 -0.0835  0.3280  0.1110
  996loPI   C1A15259  16.999   6.291   5.791  0.0431  0.1178 -0.0653
  996loPI   C2A15260  17.218   6.557   6.119 -0.1620  0.2700 -0.1665
  996loPI   C3A15261  17.107   6.730   6.574  0.2770  0.2199  0.0424
  996loPI   C4A15262  16.830   6.820   6.925  0.3795 -0.0167  0.0074
  996loPI   C5A15263  16.495   7.026   6.934  0.0823  0.1184 -0.0362
  996loPI   C6A15264  16.262   7.479   7.090 -0.0365  0.2625  0.2678
  996loPI   C1B15265  16.761   5.944   6.013  0.1982 -0.0780  0.0284
  996loPI   C2B15266  16.736   5.880   6.511  0.1098 -0.1545  0.0152
  996loPI   C3B15267  16.769   5.870   6.906  0.0681  0.0770  0.1999
  996loPI   C4B15268  17.078   6.015   7.140 -0.1856  0.0234  0.2750
  997loPI    C115269  18.022   9.375   4.741  0.0688 -0.3748  0.1863
  997loPI    C215270  18.350   9.149   4.773  0.3880  0.0273 -0.1265
  997loPI    C315271  18.306   9.393   4.459 -0.0168  0.2902  0.1261
  997loPI   PO415272  17.763   9.220   4.828 -0.2432  0.0731  0.4082
  997loPI   GL115273  17.588   9.342   5.185 -0.1002 -0.0736  0.0285
  997loPI   GL215274  17.502   9.626   5.236 -0.1902  0.2016 -0.0873
  997loPI   C1A15275  17.392   9.248   5.611 -0.0429 -0.1514 -0.0202
  997loPI   C2A15276  17.428   9.212   6.076 -0.1911  0.0458  0.0971
  997loPI   C3A15277  17.476   9.117   6.435 -0.1812 -0.1203  0.2661
  997loPI   C4A15278  17.452   9.182   6.814  0.1680  0.1974  0.0101
  997loPI   C5A15279  17.367   9.448   7.103  0.3153 -0.0604  0.0855
  997loPI   C6A15280  17.151   9.499   7.461  0.1412 -0.2253  0.1054
  997loPI   C1B15281  17.479   9.762   5.611  0.0621  0.1071 -0.1647
  997loPI   C2B15282  17.357   9.743   6.030  0.0765 -0.1798 -0.2101
  997loPI   C3B15283  17.429   9.621   6.523 -0.2004  0.0869  0.0161
  997loPI   C4B15284  17.645   9.723   6.818 -0.2445 -0.2064 -0.0685
  998loPI    C115285   1.592  10.945   4.950  0.0230  0.1082  0.0503
  998loPI    C215286   1.903  10.827   4.727 -0.2038 -0.0467 -0.1905
  998loPI    C315287   1.711  11.167   4.639 -0.1453  0.0146 -0.0831
  998loPI   PO415288   1.435  10.747   5.044  0.1122 -0.1311  0.1196
  998loPI   GL115289   1.370  10.759   5.556 -0.1839 -0.1904 -0.1657
  998loPI   GL215290   1.336  11.140   5.815  0.0295  0.1475 -0.0489
  998loPI   C1A15291   1.252  10.652   5.924  0.0702  0.1718  0.0636
  998loPI   C2A15292   1.190  10.810   6.359 -0.0360  0.2286 -0.3905
  998loPI   C3A15293   1.131  10.527   6.792  0.0337  0.0390 -0.1525
  998loPI   C4A15294   1.243  10.324   7.200 -0.3749 -0.0964 -0.1327
  998loPI   C5A15295   0.990  10.203   7.509 -0.1962  0.3152  0.0734
  998loPI   C6A15296   0.617  10.198   7.535  0.3337 -0.3070 -0.0513
  998loPI   C1B15297   1.344  11.334   6.206  0.0963  0.1835 -0.3442
  998loPI   C2B15298   1.552  11.127   6.575  0.1692 -0.1568  0.2225
  998loPI   C3B15299   1.534  10.811   6.723 -0.2466  0.1176  0.0905
  998loPI   C4B15300   1.660  10.462   7.057 -0.2849  0.1857  0.2800
  999loPI    C115301  13.113   3.322   4.503  0.0489 -0.1297  0.0359
  999loPI    C215302  13.118   2.944   4.371 -0.1203 -0.0682 -0.1521
  999loPI    C315303  12.915   3.223   4.170 -0.3006  0.0495  0.1855
  999loPI   PO415304  13.086   3.343   4.746 -0.0872  0.3388  0.2447
  999loPI   GL115305  12.893   3.255   5.097  0.1033 -0.2983 -0.0090
  999loPI   GL215306  12.909   2.897   5.287  0.0127  0.0489  0.1659
  999loPI   C1A15307  13.118   3.229   5.579 -0.1816  0.2825 -0.0144
  999loPI   C2A15308  13.096   3.240   6.027  0.1265  0.2259  0.1970
  999loPI   C3A15309  13.179   3.360   6.394  0.0033 -0.0853  0.0136
  999loPI   C4A15310  13.315   3.269   6.776  0.3178  0.2273 -0.3446
  999loPI   C5A15311  13.154   2.925   7.069  0.1357 -0.1705 -0.4373
  999loPI   C6A15312  13.289   2.515   6.970  0.1056 -0.3328  0.1275
  999loPI   C1B15313  12.749   2.824   5.739 -0.1995  0.2486  0.0790
  999loPI   C2B15314  12.667   3.045   6.119 -0.3409  0.1282  0.1309
  999loPI   C3B15315  12.835   3.089   6.526 -0.0230  0.1606  0.0038
  999loPI   C4B15316  12.811   3.298   6.889  0.0482 -0.3715  0.1115
 1000loPI    C115317  16.903  17.070   4.794  0.0742 -0.2199  0.1142
 1000loPI    C215318  16.514  17.071   4.883  0.1383 -0.1087  0.4037
 1000loPI    C315319  16.652  17.306   4.591 -0.0531 -0.3662  0.0997
 1000loPI   PO415320  17.043  17.031   5.044 -0.0770  0.0284  0.0045
 1000loPI   GL115321  17.120  16.703   5.279  0.1601 -0.2482  0.1015
 1000loPI   GL215322  17.039  16.476   5.401  0.4157  0.1684  0.2146
 1000loPI   C1A15323  16.970  16.986   5.698  0.0324 -0.2022 -0.0770
 1000loPI   C2A15324  17.033  16.918   6.213 -0.2881 -0.2609 -0.1174
 1000loPI   C3A15325  17.190  17.038   6.578 -0.2897 -0.0534  0.4934
 1000loPI   C4A15326  17.040  16.871   6.854 -0.2305  0.3889 -0.2112
 1000loPI   C5A15327  17.009  16.545   7.205  0.0080  0.2076 -0.2998
 1000loPI   C6A15328  16.674  16.426   7.590  0.3296 -0.1561 -0.2770
 1000loPI   C1B15329  16.881  16.327   5.801 -0.5123 -0.0153 -0.1407
 1000loPI   C2B15330  16.744  16.407   6.116  0.0538  0.2915  0.5206
 1000loPI   C3B15331  16.641  16.756   6.442  0.1845  0.0943  0.0675
 1000loPI   C4B15332  16.597  16.852   6.862  0.1610  0.1010  0.0164
 1001loPI    C115333   7.196  19.100   4.516  0.0013 -0.0245  0.0193
 1001loPI    C215334   6.914  19.378   4.462  0.1657  0.1201 -0.1077
 1001loPI    C315335   6.865  19.011   4.310  0.0500  0.1462 -0.1350
 1001loPI   PO415336   7.359  19.017   4.873 -0.1020  0.0954  0.0345
 1001loPI   GL115337   7.571  19.211   5.215  0.1686 -0.1132  0.0467
 1001loPI   GL215338   7.433  18.978   5.382 -0.0859  0.0943 -0.1244
 1001loPI   C1A15339   7.512  19.503   5.602  0.3284 -0.2314  0.1362
 1001loPI   C2A15340   7.477  19.429   6.068 -0.0658  0.1021 -0.3732
 1001loPI   C3A15341   7.356  19.107   6.448 -0.1115 -0.0061 -0.2301
 1001loPI   C4A15342   7.151  19.045   6.826 -0.0808  0.0325  0.1786
 1001loPI   C5A15343   7.319  19.194   7.142  0.1111 -0.3823  0.1730
 1001loPI   C6A15344   7.715  19.272   7.424  0.0421  0.0150  0.3895
 1001loPI   C1B15345   7.134  19.225   5.710  0.1099 -0.1835  0.1105
 1001loPI   C2B15346   6.997  19.049   6.119 -0.1335 -0.2907 -0.2067
 1001loPI   C3B15347   6.806  18.835   6.509  0.2221 -0.3067 -0.2394
 1001loPI   C4B15348   6.908  18.517   6.800 -0.0119  0.0545  0.2822
 1002loPI    C115349   0.390  18.191   5.019  0.0462 -0.1241 -0.0830
 1002loPI    C215350   0.534  18.564   5.027  0.0443 -0.1215 -0.1660
 1002loPI    C315351   0.231  18.472   4.783  0.0459 -0.1779 -0.1468
 1002loPI   PO415352   0.467  18.113   5.361  0.2614  0.1954 -0.0714
 1002loPI   GL115353   0.346  18.206   5.854 -0.2379  0.0294 -0.2409
 1002loPI   GL215354   0.628  18.349   5.834 -0.1769 -0.2634 -0.2823
 1002loPI   C1A15355   0.330  18.291   6.305 -0.0208 -0.0557  0.0389
 1002loPI   C2A15356   0.273  18.220   6.719 -0.1658 -0.1880  0.1599
 1002loPI   C3A15357   0.359  18.353   7.185  0.1312  0.1290 -0.2499
 1002loPI   C4A15358   0.268  18.242   7.590 -0.3128 -0.0145 -0.0870
 1002loPI   C5A15359   0.002  18.296   7.913  0.3676  0.2348  0.0666
 1002loPI   C6A15360  -0.258  18.356   8.302 -0.1524  0.0352 -0.1779
 1002loPI   C1B15361   0.626  17.929   6.115 -0.0400  0.1612 -0.1802
 1002loPI   C2B15362   0.815  17.717   6.488  0.1604 -0.1012 -0.1286
 1002loPI   C3B15363   0.945  17.407   6.903  0.0574 -0.2544  0.0328
 1002loPI   C4B15364   0.877  17.269   7.255  0.3179  0.2108  0.1442
 1003loPI    C115365   1.847   5.958   4.489 -0.1046  0.0478  0.0769
 1003loPI    C215366   2.212   6.025   4.338 -0.0763 -0.0229  0.1134
 1003loPI    C315367   1.933   6.312   4.322  0.0027  0.0565  0.1493
 1003loPI   PO415368   1.892   5.773   4.701  0.0741 -0.3127 -0.0535
 1003loPI   GL115369   1.986   5.691   5.100  0.1956 -0.0134  0.0392
 1003loPI   GL215370   1.964   5.913   5.271  0.1364  0.0073 -0.2705
 1003loPI   C1A15371   2.246   5.541   5.530  0.2341  0.1775  0.1185
 1003loPI   C2A15372   2.416   5.828   5.827 -0.0939 -0.1546  0.1749
 1003loPI   C3A15373   2.326   5.885   6.249 -0.0347  0.4073  0.0936
 1003loPI   C4A15374   2.290   6.029   6.676 -0.0744  0.0104 -0.0224
 1003loPI   C5A15375   2.371   5.928   7.029  0.2539 -0.2276 -0.0920
 1003loPI   C6A15376   2.489   5.598   7.205  0.0446  0.0099 -0.1521
 1003loPI   C1B15377   1.974   5.946   5.717 -0.0652 -0.2085 -0.1961
 1003loPI   C2B15378   1.795   5.910   6.136  0.1396 -0.2710 -0.0786
 1003loPI   C3B15379   1.805   5.979   6.560 -0.1419  0.0585  0.2332
 1003loPI   C4B15380   1.691   5.962   7.037  0.0421  0.3562  0.0909
 1004loPI    C115381  17.812  14.230   4.804 -0.0364  0.0045  0.0874
 1004loPI    C215382  18.122  14.481   4.775  0.0344 -0.0883  0.0382
 1004loPI    C315383  17.851  14.463   4.481 -0.0121 -0.0150  0.0763
 1004loPI   PO415384  17.702  14.212   5.070  0.0330 -0.1755 -0.1384
 1004loPI   GL115385  17.771  14.110   5.469 -0.0087 -0.1416 -0.0863
 1004loPI   GL215386  17.949  14.304   5.705 -0.2085 -0.0290 -0.1859
 1004loPI   C1A15387  17.506  13.723   5.776 -0.2204 -0.0079 -0.3961
 1004loPI   C2A15388  17.503  13.698   6.203 -0.0690 -0.1829  0.0186
 1004loPI   C3A15389  17.503  13.720   6.659 -0.3913  0.0074  0.0583
 1004loPI   C4A15390  17.363  13.609   7.119  0.3161  0.0942 -0.4679
 1004loPI   C5A15391  17.087  13.832   7.411 -0.3137  0.1309  0.2971
 1004loPI   C6A15392  16.918  14.236   7.501  0.3081  0.0351  0.1292
 1004loPI   C1B15393  17.747  14.122   6.114 -0.2419  0.0843  0.0365
 1004loPI   C2B15394  17.619  14.175   6.429 -0.0524  0.0589 -0.3113
 1004loPI   C3B15395  17.465  14.167   6.870 -0.2179 -0.0776 -0.2602
 1004loPI   C4B15396  17.436  14.266   7.269 -0.1141 -0.0121 -0.0110
 1005loPI    C115397   8.049  12.836   4.605 -0.0306 -0.3306  0.0334
 1005loPI    C215398   8.003  12.657   4.251 -0.0233 -0.0392 -0.1176
 1005loPI    C315399   7.716  12.897   4.392  0.0731  0.0265 -0.0325
 1005loPI   PO415400   8.358  12.638   4.775  0.1929 -0.0021  0.1455
 1005loPI   GL115401   8.502  12.644   5.210  0.2136 -0.0288  0.1656
 1005loPI   GL215402   8.818  12.813   5.292 -0.0418 -0.0092  0.0943
 1005loPI   C1A15403   8.407  12.479   5.593 -0.3197  0.0205  0.2440
 1005loPI   C2A15404   8.358  12.642   5.898  0.2684  0.1771  0.0025
 1005loPI   C3A15405   8.380  12.435   6.278 -0.3134 -0.1314 -0.3171
 1005loPI   C4A15406   8.445  12.442   6.697 -0.0487  0.5095 -0.1073
 1005loPI   C5A15407   8.543  12.741   7.053  0.4567  0.0205 -0.0675
 1005loPI   C6A15408   8.308  13.058   7.351  0.1485 -0.0304 -0.0518
 1005loPI   C1B15409   8.687  12.930   5.642  0.1781  0.1002 -0.1602
 1005loPI   C2B15410   8.764  12.905   6.018 -0.0102 -0.0716  0.1103
 1005loPI   C3B15411   8.828  12.788   6.466  0.3975 -0.0283  0.3346
 1005loPI   C4B15412   8.937  12.427   6.818  0.0632 -0.1162 -0.0540
 1006loPI    C115413  10.032  18.141   4.802  0.0062 -0.0632 -0.0607
 1006loPI    C215414  10.306  17.853   4.761  0.0637  0.0238 -0.2990
 1006loPI    C315415   9.999  17.876   4.505 -0.0388  0.0674 -0.1733
 1006loPI   PO415416   9.969  18.103   5.135 -0.2382 -0.0355  0.0783
 1006loPI   GL115417   9.976  18.141   5.468 -0.0552  0.0017 -0.2425
 1006loPI   GL215418  10.219  18.400   5.522  0.0340 -0.0707 -0.2420
 1006loPI   C1A15419   9.909  18.150   5.917 -0.0216 -0.1218  0.0383
 1006loPI   C2A15420   9.800  18.493   6.253 -0.0423 -0.1127  0.0118
 1006loPI   C3A15421   9.823  18.463   6.750  0.4126 -0.1084  0.2548
 1006loPI   C4A15422   9.741  18.703   7.165  0.0887  0.1520  0.0801
 1006loPI   C5A15423   9.312  18.842   7.379 -0.2538  0.2074  0.3353
 1006loPI   C6A15424   8.878  18.605   7.501  0.0987 -0.1298 -0.2982
 1006loPI   C1B15425   9.930  18.675   5.816 -0.4768  0.1222 -0.3128
 1006loPI   C2B15426   9.833  18.971   6.207 -0.2095 -0.0774  0.0642
 1006loPI   C3B15427   9.819  18.920   6.587  0.1163 -0.3527  0.0734
 1006loPI   C4B15428   9.827  19.146   6.912  0.2965  0.0045 -0.3674
 1007loPI    C115429   1.181  13.343   5.014  0.1819 -0.1916  0.1121
 1007loPI    C215430   0.974  13.075   5.227 -0.0486 -0.0714  0.0431
 1007loPI    C315431   1.125  12.974   4.871  0.0777 -0.1817  0.1269
 1007loPI   PO415432   1.223  13.507   5.282 -0.2368  0.0868  0.2441
 1007loPI   GL115433   1.011  13.609   5.675  0.1507  0.0432 -0.2033
 1007loPI   GL215434   0.889  13.795   5.824  0.1950 -0.1795 -0.0156
 1007loPI   C1A15435   1.384  13.723   5.942  0.0275  0.1542  0.0125
 1007loPI   C2A15436   1.758  13.607   6.186 -0.1594 -0.2007  0.1951
 1007loPI   C3A15437   1.804  13.590   6.697 -0.1711 -0.0998  0.0682
 1007loPI   C4A15438   1.926  13.839   7.038 -0.1307  0.0603  0.1917
 1007loPI   C5A15439   2.170  13.841   7.339 -0.0426  0.2473  0.4235
 1007loPI   C6A15440   2.581  13.968   7.434 -0.0724  0.1454 -0.1952
 1007loPI   C1B15441   0.754  13.784   6.303 -0.0375  0.1206  0.2725
 1007loPI   C2B15442   0.772  13.946   6.692  0.1651 -0.3280 -0.0943
 1007loPI   C3B15443   0.887  13.827   7.116  0.3731 -0.0223 -0.3250
 1007loPI   C4B15444   1.037  13.941   7.530 -0.0307 -0.3011 -0.0640
 1008loPI    C115445   3.039  12.325   5.035 -0.1488  0.0558 -0.0125
 1008loPI    C215446   2.681  12.500   5.072 -0.1137  0.1630 -0.1731
 1008loPI    C315447   2.885  12.530   4.729 -0.0130 -0.0164 -0.1305
 1008loPI   PO415448   3.093  12.198   5.239  0.1615  0.2392 -0.0284
 1008loPI   GL115449   3.315  12.289   5.572  0.0868  0.1483 -0.0047
 1008loPI   GL215450   3.183  11.890   5.617 -0.1406  0.2672  0.2404
 1008loPI   C1A15451   2.958  12.204   5.943  0.2782 -0.0077  0.1912
 1008loPI   C2A15452   3.012  12.196   6.412 -0.1911 -0.1712 -0.3722
 1008loPI   C3A15453   3.309  12.184   6.740 -0.1904 -0.1005 -0.0576
 1008loPI   C4A15454   3.650  12.114   6.990 -0.1692 -0.2884 -0.3621
 1008loPI   C5A15455   3.939  12.061   7.259 -0.1620 -0.1621  0.0408
 1008loPI   C6A15456   4.279  12.086   7.635 -0.4276 -0.0041  0.0695
 1008loPI   C1B15457   3.185  11.663   5.999 -0.3580 -0.1784 -0.0510
 1008loPI   C2B15458   3.314  11.695   6.450 -0.1981 -0.0671  0.0779
 1008loPI   C3B15459   3.112  11.257   6.497  0.3255  0.0123 -0.3886
 1008loPI   C4B15460   3.012  11.062   6.889 -0.0887 -0.4230  0.2399
 1009loPI    C115461  15.369  13.215   4.642 -0.1066  0.1786  0.0814
 1009loPI    C215462  15.575  12.943   4.433 -0.1885  0.1894 -0.0140
 1009loPI    C315463  15.515  12.891   4.825 -0.0877  0.1378 -0.0054
 1009loPI   PO415464  15.320  13.438   4.651 -0.1229 -0.0477  0.0743
 1009loPI   GL115465  15.329  13.479   5.101 -0.1384  0.2420  0.0171
 1009loPI   GL215466  15.167  13.185   5.170  0.3786 -0.0487  0.0257
 1009loPI   C1A15467  15.490  13.670   5.507 -0.1266 -0.0404  0.2269
 1009loPI   C2A15468  15.710  13.651   5.879  0.1218  0.2132  0.3070
 1009loPI   C3A15469  15.748  13.763   6.231  0.3526  0.2012 -0.1165
 1009loPI   C4A15470  15.857  13.936   6.658 -0.2134  0.2646  0.0762
 1009loPI   C5A15471  16.140  13.876   6.970 -0.0980 -0.0922 -0.1677
 1009loPI   C6A15472  16.287  13.533   7.228 -0.2239  0.1429  0.0296
 1009loPI   C1B15473  15.153  13.334   5.607  0.0365  0.1291  0.2326
 1009loPI   C2B15474  15.066  13.541   6.017 -0.1332 -0.1438  0.1912
 1009loPI   C3B15475  14.988  13.373   6.479  0.2270 -0.0626 -0.1694
 1009loPI   C4B15476  14.866  13.497   6.921  0.0164 -0.3758  0.0167
 1010loPI    C115477   6.052   0.441   5.187  0.0450  0.0156  0.0529
 1010loPI    C215478   6.159   0.540   4.815 -0.0276 -0.2609 -0.0440
 1010loPI    C315479   5.877   0.262   4.875 -0.1519 -0.0827  0.2168
 1010loPI   PO415480   5.963   0.646   5.286 -0.0782 -0.2418 -0.1414
 1010loPI   GL115481   5.615   0.678   5.508  0.2421 -0.0818  0.1632
 1010loPI   GL215482   5.313   0.715   5.480  0.5145 -0.0115  0.3599
 1010loPI   C1A15483   5.449   0.752   5.941  0.0289 -0.1691  0.0495
 1010loPI   C2A15484   5.251   1.024   6.317 -0.0606  0.0095  0.0623
 1010loPI   C3A15485   5.238   0.665   6.707  0.0244 -0.1006 -0.1419
 1010loPI   C4A15486   5.005   0.246   6.683 -0.0529 -0.0488 -0.0326
 1010loPI   C5A15487   4.750   0.013   6.997  0.2869  0.1401  0.0074
 1010loPI   C6A15488   4.498   0.328   7.415 -0.4905  0.2377 -0.0065
 1010loPI   C1B15489   4.973   0.962   5.787 -0.3850 -0.2804 -0.0570
 1010loPI   C2B15490   4.771   1.030   6.111  0.2581  0.3587  0.0072
 1010loPI   C3B15491   4.809   1.258   6.521  0.0868 -0.1337 -0.2155
 1010loPI   C4B15492   5.159   1.134   6.857  0.0865 -0.0374  0.3546
 1011loPI    C115493   3.795   1.567   4.881 -0.1896 -0.3407  0.0315
 1011loPI    C215494   3.677   1.855   4.630  0.1102 -0.2016  0.0462
 1011loPI    C315495   3.735   1.483   4.495 -0.0606 -0.2056 -0.0185
 1011loPI   PO415496   3.626   1.729   5.199 -0.2762 -0.0676  0.1169
 1011loPI   GL115497   3.901   1.732   5.544  0.1243 -0.1983 -0.0762
 1011loPI   GL215498   3.881   2.052   5.554 -0.1070  0.2773 -0.0337
 1011loPI   C1A15499   3.729   1.756   5.870 -0.1440 -0.0721 -0.4288
 1011loPI   C2A15500   3.687   1.808   6.392 -0.0369  0.3533 -0.2628
 1011loPI   C3A15501   3.746   1.877   6.732  0.0201  0.0832 -0.0811
 1011loPI   C4A15502   3.899   2.133   7.002 -0.0720 -0.1164 -0.3289
 1011loPI   C5A15503   3.965   2.635   7.080  0.0793 -0.2000  0.1860
 1011loPI   C6A15504   4.104   2.897   6.779  0.2279 -0.0543  0.1377
 1011loPI   C1B15505   4.127   2.205   5.911  0.2611 -0.0204  0.0441
 1011loPI   C2B15506   3.991   2.179   6.307  0.3279 -0.1179  0.0637
 1011loPI   C3B15507   4.023   2.401   6.622  0.3212 -0.2522  0.3768
 1011loPI   C4B15508   4.445   2.513   6.767 -0.2074  0.0985 -0.2809
 1012loPI    C115509  16.637   2.836   4.466 -0.0174  0.1817 -0.3544
 1012loPI    C215510  16.424   2.498   4.443  0.0462  0.1299 -0.1907
 1012loPI    C315511  16.790   2.514   4.284  0.1464  0.0391  0.0269
 1012loPI   PO415512  16.573   2.912   4.759  0.0367 -0.2248 -0.0786
 1012loPI   GL115513  16.251   3.030   5.145  0.0294 -0.1398  0.2263
 1012loPI   GL215514  16.464   3.342   5.051  0.0729 -0.0490  0.0638
 1012loPI   C1A15515  16.361   2.892   5.568 -0.3912 -0.1596 -0.0694
 1012loPI   C2A15516  16.590   2.742   5.922 -0.1893 -0.0765  0.2014
 1012loPI   C3A15517  16.467   2.826   6.190 -0.3140  0.1059 -0.0764
 1012loPI   C4A15518  16.179   2.702   6.530  0.0313  0.0023  0.0746
 1012loPI   C5A15519  16.181   2.876   6.980 -0.0837  0.0855 -0.0473
 1012loPI   C6A15520  16.042   3.112   7.352  0.0830  0.1618  0.0297
 1012loPI   C1B15521  16.471   3.367   5.439 -0.1583  0.3944 -0.0205
 1012loPI   C2B15522  16.624   3.241   5.797 -0.1258 -0.3067  0.1742
 1012loPI   C3B15523  16.674   3.330   6.167  0.0445  0.1975 -0.4188
 1012loPI   C4B15524  16.769   3.383   6.656 -0.2336  0.1164 -0.2565
 1013loPI    C115525  12.273   7.483   4.459  0.3488 -0.0482 -0.0538
 1013loPI    C215526  12.064   7.751   4.249  0.1640 -0.1532 -0.0058
 1013loPI    C315527  12.274   7.469   4.060  0.2457 -0.0605 -0.0540
 1013loPI   PO415528  12.192   7.468   4.731  0.2571  0.1181 -0.0826
 1013loPI   GL115529  12.358   7.212   5.152 -0.0635  0.0609  0.2116
 1013loPI   GL215530  12.008   7.178   5.100  0.0397 -0.3155  0.0109
 1013loPI   C1A15531  12.192   7.350   5.573 -0.0319 -0.0148  0.1687
 1013loPI   C2A15532  12.034   7.499   5.931 -0.1925  0.2224 -0.0284
 1013loPI   C3A15533  12.020   7.449   6.339  0.0378  0.2467 -0.2803
 1013loPI   C4A15534  11.910   7.692   6.565 -0.0349 -0.1891  0.0621
 1013loPI   C5A15535  11.802   8.008   6.864  0.0493  0.0196 -0.2046
 1013loPI   C6A15536  11.541   8.060   7.119 -0.0615  0.0516 -0.1992
 1013loPI   C1B15537  11.797   7.135   5.512 -0.3524  0.2236 -0.0966
 1013loPI   C2B15538  11.869   7.013   5.947 -0.1629  0.2441 -0.1278
 1013loPI   C3B15539  11.928   6.965   6.382  0.2390 -0.0845 -0.1339
 1013loPI   C4B15540  11.782   7.095   6.774 -0.3017  0.0208 -0.2775
 1014loPI    C115541  18.741   4.101   4.628 -0.0474 -0.1209 -0.0615
 1014loPI    C215542  19.078   4.069   4.414  0.1430 -0.0453  0.2204
 1014loPI    C315543  18.884   4.419   4.432 -0.0196 -0.1191 -0.0381
 1014loPI   PO415544  18.810   4.081   4.885  0.1789 -0.0122  0.1226
 1014loPI   GL115545  18.986   4.354   5.224 -0.2575 -0.0797  0.1701
 1014loPI   GL215546  18.692   4.276   5.380 -0.0798 -0.0270  0.0086
 1014loPI   C1A15547  19.224   4.518   5.572 -0.0922 -0.3040  0.2943
 1014loPI   C2A15548  19.349   4.481   6.030  0.0982 -0.1286  0.1124
 1014loPI   C3A15549  19.094   4.475   6.182  0.1043 -0.0957 -0.0997
 1014loPI   C4A15550  19.004   4.779   6.540  0.1746 -0.0139 -0.1511
 1014loPI   C5A15551  18.682   4.920   6.772  0.1300  0.0787  0.2173
 1014loPI   C6A15552  18.310   4.934   6.932  0.1351 -0.0888  0.1992
 1014loPI   C1B15553  18.877   4.212   5.766  0.0733  0.0878  0.0798
 1014loPI   C2B15554  18.945   3.913   6.024  0.0381  0.1316  0.1321
 1014loPI   C3B15555  19.052   4.088   6.481 -0.2129  0.1737  0.4181
 1014loPI   C4B15556  19.286   4.299   6.826 -0.1173  0.3084  0.1317
 1015loPI    C115557  18.499  14.695   5.047 -0.0072 -0.0245 -0.0833
 1015loPI    C215558  18.820  14.457   5.039  0.0641  0.0749 -0.2080
 1015loPI    C315559  18.760  14.722   4.745 -0.0693  0.1391 -0.1235
 1015loPI   PO415560  18.484  14.828   5.259  0.4557  0.2127  0.0976
 1015loPI   GL115561  18.167  15.048   5.521  0.0457 -0.0735 -0.0361
 1015loPI   GL215562  17.908  14.845   5.687 -0.1568  0.2726 -0.4537
 1015loPI   C1A15563  18.339  15.179   5.922 -0.1678 -0.0760  0.4218
 1015loPI   C2A15564  18.318  15.400   6.376 -0.2271 -0.2122 -0.2369
 1015loPI   C3A15565  18.130  15.479   6.814  0.1613 -0.0893  0.0131
 1015loPI   C4A15566  17.841  15.387   7.051  0.0108 -0.0570  0.0714
 1015loPI   C5A15567  17.715  15.093   7.296 -0.2649 -0.0885 -0.1419
 1015loPI   C6A15568  17.455  14.971   7.695 -0.0782 -0.0865  0.0218
 1015loPI   C1B15569  18.002  14.710   6.006 -0.1466 -0.1314  0.2224
 1015loPI   C2B15570  18.050  14.707   6.388 -0.1525  0.3992  0.3582
 1015loPI   C3B15571  18.381  14.558   6.836  0.3367 -0.0073  0.4988
 1015loPI   C4B15572  18.333  14.541   7.206  0.2766 -0.1325  0.0486
 1016loPI    C115573  12.805   8.087   4.574  0.1703 -0.2503 -0.1317
 1016loPI    C215574  12.611   7.808   4.785 -0.1318  0.0855  0.0460
 1016loPI    C315575  12.532   7.856   4.396  0.0432 -0.1839 -0.0251
 1016loPI   PO415576  13.002   8.119   4.720  0.1640 -0.0533 -0.1071
 1016loPI   GL115577  13.026   7.922   5.071  0.0138  0.0683 -0.2338
 1016loPI   GL215578  13.415   7.961   5.108 -0.0535  0.0982 -0.0478
 1016loPI   C1A15579  13.201   7.722   5.457  0.1551  0.2662 -0.2822
 1016loPI   C2A15580  13.271   7.767   5.916  0.2299  0.0657  0.1804
 1016loPI   C3A15581  13.397   7.936   6.287 -0.2886  0.0086  0.0840
 1016loPI   C4A15582  13.495   7.850   6.701  0.1632  0.3298 -0.0451
 1016loPI   C5A15583  13.657   7.702   7.114 -0.0658  0.0186 -0.0997
 1016loPI   C6A15584  13.559   7.825   7.497  0.1771 -0.1609 -0.2231
 1016loPI   C1B15585  13.547   8.029   5.469  0.1429 -0.0809  0.0663
 1016loPI   C2B15586  13.813   7.832   5.793  0.1004 -0.1549  0.2563
 1016loPI   C3B15587  13.770   7.576   6.259  0.1120 -0.2525  0.0761
 1016loPI   C4B15588  13.740   7.163   6.337  0.3018  0.0578 -0.3242
 1017loPI    C115589  16.582  15.840   4.889  0.1663 -0.0119  0.0819
 1017loPI    C215590  16.857  15.878   4.601  0.1105 -0.0018  0.0300
 1017loPI    C315591  16.566  15.605   4.566 -0.0437  0.1701 -0.0430
 1017loPI   PO415592  16.447  16.140   4.947 -0.0963 -0.1001  0.0087
 1017loPI   GL115593  16.600  16.115   5.334 -0.1619  0.1951  0.1622
 1017loPI   GL215594  16.284  16.378   5.352  0.0511  0.1427 -0.0460
 1017loPI   C1A15595  16.381  16.039   5.764  0.3297 -0.2252 -0.1107
 1017loPI   C2A15596  16.354  16.090   6.100 -0.1606 -0.1477 -0.1466
 1017loPI   C3A15597  16.314  15.855   6.308 -0.2317 -0.2784 -0.0305
 1017loPI   C4A15598  16.262  15.791   6.771 -0.2477  0.2259 -0.0453
 1017loPI   C5A15599  16.315  15.695   7.153  0.0721  0.1044  0.1639
 1017loPI   C6A15600  16.268  16.049   7.257  0.1051 -0.0718 -0.0359
 1017loPI   C1B15601  16.452  16.545   5.646  0.1231  0.2870  0.1578
 1017loPI   C2B15602  16.522  16.848   5.845  0.0314  0.2459  0.1675
 1017loPI   C3B15603  16.610  17.210   6.076  0.0824  0.0939  0.1806
 1017loPI   C4B15604  16.709  17.309   6.493 -0.2655 -0.4108 -0.1393
 1018loPI    C115605  18.712  11.348   5.383 -0.1997 -0.1700 -0.0758
 1018loPI    C215606  18.623  11.726   5.286 -0.0611 -0.0700  0.1776
 1018loPI    C315607  18.367  11.509   5.504 -0.1404 -0.1234  0.0325
 1018loPI   PO415608  19.056  11.313   5.550  0.0661 -0.1337  0.1451
 1018loPI   GL115609  19.053  11.372   5.974  0.0614  0.0356  0.0707
 1018loPI   GL215610  18.792  11.595   5.882 -0.3073  0.0510 -0.2526
 1018loPI   C1A15611  19.032  11.303   6.408  0.0482  0.1023 -0.1562
 1018loPI   C2A15612  19.033  11.357   6.858  0.2314  0.3442  0.0420
 1018loPI   C3A15613  19.027  11.140   7.273  0.1016 -0.2531 -0.0191
 1018loPI   C4A15614  19.367  10.898   7.499  0.1031 -0.2130 -0.2888
 1018loPI   C5A15615  19.798  10.853   7.527  0.2705 -0.1791 -0.1435
 1018loPI   C6A15616  20.067  10.616   7.348 -0.2923  0.2626  0.4367
 1018loPI   C1B15617  18.823  11.853   6.232 -0.0196  0.0098 -0.1215
 1018loPI   C2B15618  18.944  11.860   6.659 -0.0632 -0.2283  0.0442
 1018loPI   C3B15619  19.060  11.839   7.141  0.1120  0.2300  0.2143
 1018loPI   C4B15620  19.133  12.167   7.447 -0.1764  0.4117 -0.0695
 1019loPI    C115621   5.126   2.464   4.771 -0.0187  0.0353  0.0879
 1019loPI    C215622   4.735   2.452   4.686 -0.0135 -0.0111  0.0705
 1019loPI    C315623   4.956   2.119   4.663  0.0601  0.0467 -0.0766
 1019loPI   PO415624   5.076   2.703   5.032 -0.0280  0.2309  0.0933
 1019loPI   GL115625   5.306   2.941   5.265  0.2302 -0.0846 -0.2413
 1019loPI   GL215626   5.502   2.794   5.439 -0.0222  0.0384  0.1411
 1019loPI   C1A15627   5.151   3.068   5.684 -0.2373 -0.0764 -0.1484
 1019loPI   C2A15628   5.084   2.847   6.101 -0.1577  0.1561 -0.0126
 1019loPI   C3A15629   5.111   2.957   6.535 -0.2322 -0.4796 -0.1291
 1019loPI   C4A15630   5.311   3.001   6.978  0.1032  0.0105 -0.0997
 1019loPI   C5A15631   5.411   2.943   7.444 -0.2065 -0.0116 -0.1513
 1019loPI   C6A15632   5.085   2.948   7.821 -0.1227  0.1850  0.1213
 1019loPI   C1B15633   5.542   2.771   5.839 -0.0781  0.0385 -0.0202
 1019loPI   C2B15634   5.566   2.885   6.280 -0.0290  0.4021 -0.0877
 1019loPI   C3B15635   5.728   2.756   6.707 -0.1127  0.2048 -0.4566
 1019loPI   C4B15636   5.966   2.921   7.000  0.0001  0.0564  0.0977
 1020loPI    C115637   4.018  12.273   4.765  0.2797  0.0784  0.1572
 1020loPI    C215638   4.122  11.895   4.844  0.1800  0.0441  0.1263
 1020loPI    C315639   4.275  12.082   4.525  0.0576 -0.0452  0.0144
 1020loPI   PO415640   4.086  12.379   5.031  0.1685  0.4544  0.0201
 1020loPI   GL115641   4.482  12.411   5.307 -0.1604 -0.1732 -0.2439
 1020loPI   GL215642   4.870  12.180   5.246 -0.0321 -0.0086  0.3111
 1020loPI   C1A15643   4.776  12.669   5.508  0.2894 -0.0899 -0.0920
 1020loPI   C2A15644   4.973  12.937   5.789 -0.3199  0.1625 -0.0966
 1020loPI   C3A15645   5.162  12.997   6.188 -0.0933  0.0982 -0.0783
 1020loPI   C4A15646   5.288  13.034   6.612 -0.0920  0.0695 -0.0471
 1020loPI   C5A15647   5.320  13.492   6.846 -0.1453 -0.1299  0.2026
 1020loPI   C6A15648   5.436  13.725   7.310 -0.2655 -0.1068 -0.1193
 1020loPI   C1B15649   4.913  12.138   5.633  0.0687 -0.2180 -0.0486
 1020loPI   C2B15650   4.826  12.380   5.978  0.0768 -0.1227 -0.3962
 1020loPI   C3B15651   4.936  12.585   6.385 -0.0466  0.0027 -0.3413
 1020loPI   C4B15652   5.082  12.521   6.870  0.2353 -0.0662  0.2436
 1021loPI    C115653   2.179  16.842   4.724  0.0176 -0.0731  0.2151
 1021loPI    C215654   1.779  16.865   4.720  0.0329  0.2210 -0.0391
 1021loPI    C315655   1.966  16.600   4.486 -0.0029  0.3132 -0.1735
 1021loPI   PO415656   2.233  16.858   4.998  0.3968 -0.1818 -0.0262
 1021loPI   GL115657   2.471  16.931   5.427  0.0749 -0.2988  0.1898
 1021loPI   GL215658   2.058  16.916   5.479  0.2583  0.1532  0.3500
 1021loPI   C1A15659   2.250  17.303   5.784 -0.1635  0.0086 -0.1198
 1021loPI   C2A15660   2.226  17.530   6.256 -0.6395  0.1050  0.1840
 1021loPI   C3A15661   2.025  17.893   6.384  0.0284  0.1441 -0.3792
 1021loPI   C4A15662   1.920  17.987   6.740  0.2480 -0.2741  0.2676
 1021loPI   C5A15663   1.525  17.998   6.955  0.2442 -0.1242 -0.2588
 1021loPI   C6A15664   1.133  17.799   7.164 -0.0710 -0.1858  0.2140
 1021loPI   C1B15665   1.874  17.013   5.857 -0.0234  0.2084  0.1521
 1021loPI   C2B15666   1.832  17.025   6.282  0.0671 -0.0309  0.0189
 1021loPI   C3B15667   1.773  17.075   6.692  0.1293  0.0519 -0.4483
 1021loPI   C4B15668   1.815  17.120   7.118  0.2258 -0.0310  0.1400
 1022loPI    C115669   6.890  13.235   4.860 -0.0439  0.1310  0.2904
 1022loPI    C215670   7.247  13.281   5.034  0.0113 -0.1195  0.2474
 1022loPI    C315671   6.980  13.579   5.044  0.3423  0.1957 -0.0086
 1022loPI   PO415672   6.763  13.034   5.021 -0.1254 -0.1657  0.0314
 1022loPI   GL115673   6.581  13.045   5.423  0.1184  0.3025 -0.0056
 1022loPI   GL215674   6.496  13.369   5.267 -0.3304 -0.2573  0.0185
 1022loPI   C1A15675   6.763  13.021   5.853  0.1808  0.1716  0.2459
 1022loPI   C2A15676   6.807  12.976   6.233  0.2729  0.2296  0.1285
 1022loPI   C3A15677   6.831  13.216   6.662  0.0165 -0.1618 -0.0276
 1022loPI   C4A15678   6.690  13.360   7.162 -0.0652  0.2043 -0.4112
 1022loPI   C5A15679   6.431  13.496   7.475 -0.0411 -0.1698 -0.2504
 1022loPI   C6A15680   6.541  13.798   7.681 -0.0017  0.3551  0.1095
 1022loPI   C1B15681   6.552  13.482   5.654  0.1545  0.1759  0.0779
 1022loPI   C2B15682   6.536  13.393   6.179  0.0455 -0.1097  0.0961
 1022loPI   C3B15683   6.380  13.478   6.707 -0.1871  0.2286 -0.1171
 1022loPI   C4B15684   6.227  13.172   7.128 -0.0391 -0.0838 -0.0462
 1023loPI    C115685   9.526  10.174   4.200  0.0954 -0.0647 -0.0414
 1023loPI    C215686   9.516  10.572   4.235  0.1869 -0.0694  0.0438
 1023loPI    C315687   9.552  10.404   3.874  0.1852  0.0003  0.0109
 1023loPI   PO415688   9.668  10.135   4.484 -0.1040 -0.1440  0.1947
 1023loPI   GL115689   9.867  10.034   4.873  0.0700 -0.0936  0.0185
 1023loPI   GL215690  10.099  10.314   5.013  0.1508  0.0748  0.0065
 1023loPI   C1A15691   9.673   9.792   5.133  0.1722  0.1670 -0.4018
 1023loPI   C2A15692   9.516   9.773   5.632 -0.2757 -0.2987 -0.5545
 1023loPI   C3A15693   9.348   9.621   5.940  0.1186 -0.1321  0.0370
 1023loPI   C4A15694   9.198   9.639   6.333  0.2726  0.4499 -0.0205
 1023loPI   C5A15695   9.177   9.816   6.655 -0.2040  0.1618 -0.2719
 1023loPI   C6A15696   8.998   9.671   7.042 -0.1953 -0.1597 -0.0458
 1023loPI   C1B15697  10.258  10.303   5.298 -0.0698 -0.1655 -0.2764
 1023loPI   C2B15698  10.380  10.139   5.715 -0.3636 -0.0284 -0.1652
 1023loPI   C3B15699  10.498   9.973   6.101 -0.1603 -0.3242  0.1395
 1023loPI   C4B15700  10.571   9.929   6.528  0.1411  0.1363  0.2035
 1024loPI    C115701   2.928  17.659   4.730 -0.0477 -0.2133  0.2301
 1024loPI    C215702   3.156  17.988   4.740  0.3438 -0.4762  0.1564
 1024loPI    C315703   3.081  17.807   4.391 -0.0346 -0.3586  0.1722
 1024loPI   PO415704   3.035  17.606   5.000 -0.1855 -0.1641 -0.1660
 1024loPI   GL115705   3.419  17.770   5.203  0.1683  0.0822  0.0449
 1024loPI   GL215706   3.658  17.981   5.371 -0.1193 -0.0667  0.0735
 1024loPI   C1A15707   3.221  17.858   5.638 -0.0995  0.0401 -0.0159
 1024loPI   C2A15708   3.132  17.862   6.037 -0.3510 -0.0202  0.0002
 1024loPI   C3A15709   3.225  17.724   6.517  0.0618  0.2093 -0.0786
 1024loPI   C4A15710   3.412  17.719   6.955 -0.0533  0.2866  0.1192
 1024loPI   C5A15711   3.544  17.822   7.336  0.2065  0.0390 -0.1631
 1024loPI   C6A15712   3.622  17.748   7.771 -0.0623 -0.2728  0.1734
 1024loPI   C1B15713   3.565  18.137   5.889 -0.0581  0.0935  0.3297
 1024loPI   C2B15714   3.546  18.166   6.209  0.5366 -0.3839 -0.1076
 1024loPI   C3B15715   3.347  18.188   6.626 -0.0088  0.1051 -0.2598
 1024loPI   C4B15716   3.247  18.227   7.079  0.1062  0.3762 -0.0032
 1025loPI    C115717   1.856   7.544   4.777  0.2736 -0.1131 -0.0673
 1025loPI    C215718   1.539   7.787   4.764  0.2087 -0.1877  0.0920
 1025loPI    C315719   1.800   7.782   4.460  0.0605 -0.1229 -0.0381
 1025loPI   PO415720   1.899   7.513   4.966 -0.1032 -0.0628 -0.0458
 1025loPI   GL115721   1.921   7.493   5.361 -0.1087 -0.2753 -0.2044
 1025loPI   GL215722   2.124   7.409   5.635  0.1115  0.1333  0.0511
 1025loPI   C1A15723   1.629   7.279   5.803 -0.1320 -0.0909  0.2330
 1025loPI   C2A15724   1.503   7.233   6.279 -0.3823  0.2598 -0.0571
 1025loPI   C3A15725   1.479   7.472   6.749 -0.0576 -0.1541  0.3201
 1025loPI   C4A15726   1.621   7.500   7.165  0.0333  0.0364  0.2163
 1025loPI   C5A15727   1.725   7.615   7.546 -0.1420  0.0021 -0.1004
 1025loPI   C6A15728   1.511   7.975   7.903 -0.0674  0.0455 -0.3464
 1025loPI   C1B15729   1.970   7.525   6.079  0.0236  0.1329  0.1461
 1025loPI   C2B15730   1.833   7.549   6.381  0.3105 -0.1186  0.0860
 1025loPI   C3B15731   1.935   7.696   6.807  0.1867  0.2905 -0.2354
 1025loPI   C4B15732   2.042   7.869   7.129 -0.1753  0.1568  0.1141
 1026loPI    C115733  15.342  14.015   4.767 -0.0182 -0.0710  0.1306
 1026loPI    C215734  15.108  14.231   4.524  0.2306 -0.1362 -0.1740
 1026loPI    C315735  14.988  13.871   4.649  0.0935 -0.0953 -0.1866
 1026loPI   PO415736  15.480  14.171   4.915 -0.2300  0.0620  0.0203
 1026loPI   GL115737  15.368  14.376   5.290 -0.0748 -0.1837  0.4170
 1026loPI   GL215738  15.293  14.116   5.446  0.2044 -0.0075 -0.2778
 1026loPI   C1A15739  15.506  14.699   5.582  0.0584  0.1460 -0.1263
 1026loPI   C2A15740  15.577  14.630   5.930  0.5352 -0.0805  0.0053
 1026loPI   C3A15741  15.662  14.649   6.415 -0.2107  0.1018 -0.0299
 1026loPI   C4A15742  15.827  14.536   6.813 -0.0645  0.3362  0.0495
 1026loPI   C5A15743  15.987  14.327   7.073  0.2343 -0.2149 -0.3401
 1026loPI   C6A15744  16.183  14.521   7.492  0.0708  0.1860  0.0195
 1026loPI   C1B15745  15.383  14.071   5.821  0.2488 -0.0613  0.0708
 1026loPI   C2B15746  15.489  14.206   6.229  0.1856  0.1215 -0.0501
 1026loPI   C3B15747  15.448  14.207   6.609 -0.0154  0.0702 -0.1873
 1026loPI   C4B15748  15.387  14.333   6.988  0.0528 -0.4179  0.4921
 1027loPI    C115749   0.219   4.928   4.760 -0.0989  0.1839 -0.0355
 1027loPI    C215750   0.124   4.618   4.993  0.2008  0.2560  0.1890
 1027loPI    C315751   0.130   4.575   4.596  0.0417  0.0317  0.2089
 1027loPI   PO415752   0.452   5.053   4.919  0.2472  0.1612 -0.1106
 1027loPI   GL115753   0.708   5.227   5.276 -0.0623  0.4050 -0.0365
 1027loPI   GL215754   0.301   5.174   5.418  0.1175 -0.0730  0.0481
 1027loPI   C1A15755   0.916   5.132   5.684 -0.0368  0.0816  0.0961
 1027loPI   C2A15756   1.263   5.151   5.937  0.1216 -0.2778 -0.1041
 1027loPI   C3A15757   1.249   5.187   6.389 -0.2772 -0.0765  0.3389
 1027loPI   C4A15758   1.364   5.164   6.883 -0.3224 -0.1124 -0.2981
 1027loPI   C5A15759   1.316   5.115   7.357 -0.0515  0.0163  0.0305
 1027loPI   C6A15760   1.330   4.917   7.799 -0.1666  0.3504 -0.4183
 1027loPI   C1B15761   0.182   5.024   5.781  0.0175  0.4638 -0.2046
 1027loPI   C2B15762   0.140   4.927   6.160 -0.2136 -0.0591  0.0516
 1027loPI   C3B15763   0.279   4.721   6.580  0.2729 -0.5628  0.0515
 1027loPI   C4B15764   0.300   4.727   7.008  0.0666 -0.1353 -0.3539
 1028loPI    C115765  17.117   2.427   4.889 -0.1409  0.1183 -0.0529
 1028loPI    C215766  17.182   2.607   5.240 -0.0009  0.0186 -0.0267
 1028loPI    C315767  17.351   2.253   5.163 -0.2057 -0.0623 -0.1110
 1028loPI   PO415768  16.739   2.398   4.853  0.0464 -0.1717  0.0880
 1028loPI   GL115769  16.574   2.539   5.185 -0.2431  0.1462  0.0697
 1028loPI   GL215770  16.740   2.846   5.188 -0.0142 -0.0765  0.1962
 1028loPI   C1A15771  16.868   2.373   5.583 -0.1165  0.1390 -0.0345
 1028loPI   C2A15772  16.895   2.043   5.915 -0.3116  0.0489  0.6419
 1028loPI   C3A15773  16.931   1.991   6.252 -0.0567 -0.1658 -0.1658
 1028loPI   C4A15774  17.051   1.983   6.679 -0.1347 -0.0828 -0.1304
 1028loPI   C5A15775  16.765   2.183   7.011  0.2101 -0.0383  0.1119
 1028loPI   C6A15776  16.404   2.412   7.122  0.4847  0.2539  0.1140
 1028loPI   C1B15777  16.902   2.898   5.567  0.0001  0.1279  0.1694
 1028loPI   C2B15778  17.016   2.989   6.051  0.1382 -0.0563 -0.0833
 1028loPI   C3B15779  16.921   2.927   6.509  0.3039 -0.4557  0.2717
 1028loPI   C4B15780  16.840   2.877   7.013  0.1016 -0.0295 -0.1517
 1029loPI    C115781   9.271  16.374   4.929  0.0989 -0.1638  0.1421
 1029loPI    C215782   9.666  16.313   4.909  0.0876 -0.1733 -0.0776
 1029loPI    C315783   9.427  16.169   4.623 -0.0507  0.0283 -0.0652
 1029loPI   PO415784   9.236  16.300   5.222  0.0236  0.2466 -0.2847
 1029loPI   GL115785   8.909  16.291   5.511 -0.3166  0.1487 -0.3516
 1029loPI   GL215786   8.700  16.272   5.716  0.0248  0.0464  0.2063
 1029loPI   C1A15787   9.017  16.244   6.077 -0.1276 -0.3044  0.2076
 1029loPI   C2A15788   8.912  16.056   6.391  0.2358 -0.1981 -0.0168
 1029loPI   C3A15789   9.207  16.001   6.756  0.0834 -0.1299 -0.3274
 1029loPI   C4A15790   9.412  16.194   7.037 -0.1566  0.1256 -0.1877
 1029loPI   C5A15791   9.351  16.467   7.469  0.0928 -0.2855 -0.2704
 1029loPI   C6A15792   9.307  16.293   7.826 -0.2642 -0.1343 -0.0534
 1029loPI   C1B15793   8.512  16.152   6.054  0.2633 -0.0736 -0.1401
 1029loPI   C2B15794   8.420  15.964   6.521 -0.2919  0.0748 -0.1250
 1029loPI   C3B15795   8.527  15.868   7.029  0.0214  0.1004  0.1082
 1029loPI   C4B15796   8.917  15.699   7.121  0.0310  0.0331  0.3082
 1030loPI    C115797  14.220   0.058   5.142 -0.0748  0.2149 -0.0837
 1030loPI    C215798  14.319   0.052   4.755  0.0286  0.1389 -0.0565
 1030loPI    C315799  14.023   0.289   4.882 -0.0370  0.1292 -0.1893
 1030loPI   PO415800  14.184  -0.162   5.212  0.2761  0.0933  0.3444
 1030loPI   GL115801  13.949  -0.411   5.539 -0.3927  0.3854 -0.1838
 1030loPI   GL215802  14.318  -0.428   5.601  0.1202 -0.1627 -0.4526
 1030loPI   C1A15803  13.995  -0.673   5.946 -0.1966  0.0554 -0.1300
 1030loPI   C2A15804  14.044  -0.587   6.316 -0.3490  0.0966 -0.1916
 1030loPI   C3A15805  14.350  -0.513   6.582  0.0888  0.0480 -0.1961
 1030loPI   C4A15806  14.470  -0.737   6.989  0.1706 -0.1837  0.1054
 1030loPI   C5A15807  14.258  -0.926   7.268  0.0791 -0.3371  0.0528
 1030loPI   C6A15808  14.282  -1.124   7.671  0.1067  0.0289  0.1387
 1030loPI   C1B15809  14.509  -0.458   6.089  0.0670  0.0781 -0.0773
 1030loPI   C2B15810  14.794  -0.339   6.360  0.1758 -0.0935  0.2358
 1030loPI   C3B15811  15.070  -0.144   6.791  0.0738  0.1907  0.0067
 1030loPI   C4B15812  15.111  -0.056   7.242  0.3739 -0.1114  0.0577
 1031loPI    C115813  14.726   7.247   4.425  0.1009  0.0247 -0.1071
 1031loPI    C215814  14.752   7.610   4.258  0.1083  0.0139 -0.1294
 1031loPI    C315815  14.636   7.297   4.038 -0.1672  0.0521 -0.0428
 1031loPI   PO415816  14.635   7.295   4.683  0.0716 -0.0898 -0.1689
 1031loPI   GL115817  14.440   7.552   5.115 -0.1910 -0.1598 -0.1111
 1031loPI   GL215818  14.217   7.405   5.270  0.2346 -0.0117  0.2182
 1031loPI   C1A15819  14.640   7.414   5.551 -0.1780 -0.1549 -0.1533
 1031loPI   C2A15820  14.649   7.512   6.006 -0.2722  0.3390  0.0052
 1031loPI   C3A15821  14.818   7.557   6.376 -0.0753 -0.2871 -0.1749
 1031loPI   C4A15822  14.755   7.921   6.753 -0.0879  0.2833  0.2485
 1031loPI   C5A15823  14.775   7.724   7.178  0.1528 -0.0517  0.1529
 1031loPI   C6A15824  14.502   7.739   7.411 -0.0840 -0.0166 -0.1501
 1031loPI   C1B15825  14.090   7.310   5.664 -0.2460 -0.0727  0.0804
 1031loPI   C2B15826  14.164   7.366   6.037 -0.3967  0.3705 -0.0203
 1031loPI   C3B15827  14.302   7.510   6.463 -0.7938  0.0556 -0.0347
 1031loPI   C4B15828  14.354   7.538   6.873  0.1354  0.0402 -0.1035
 1032loPI    C115829   1.774   7.021   4.784  0.1031 -0.1121  0.1108
 1032loPI    C215830   2.141   7.129   4.667  0.0880 -0.2851 -0.1004
 1032loPI    C315831   2.002   6.763   4.581 -0.1082 -0.2451  0.0392
 1032loPI   PO415832   1.787   6.973   5.152 -0.1814  0.0941  0.0497
 1032loPI   GL115833   1.809   6.915   5.496 -0.2649 -0.1298 -0.3597
 1032loPI   GL215834   2.134   6.877   5.619  0.1039 -0.3849  0.2001
 1032loPI   C1A15835   1.497   6.830   5.869  0.0100  0.3684  0.1986
 1032loPI   C2A15836   1.262   6.751   6.311  0.0243 -0.1423  0.0886
 1032loPI   C3A15837   0.893   6.772   6.533 -0.1047  0.0152  0.2887
 1032loPI   C4A15838   0.730   6.863   6.933  0.3376  0.1736  0.1351
 1032loPI   C5A15839   0.752   7.024   7.355  0.2271 -0.0200  0.2067
 1032loPI   C6A15840   0.668   7.486   7.453  0.1377  0.2176  0.2579
 1032loPI   C1B15841   1.948   6.808   6.035 -0.0435 -0.1265 -0.1163
 1032loPI   C2B15842   1.722   6.735   6.499  0.0733  0.4096  0.0799
 1032loPI   C3B15843   1.738   6.404   6.819  0.0684  0.0236 -0.1078
 1032loPI   C4B15844   1.496   6.392   7.192  0.0982  0.3123 -0.0880
 1033loPI    C115845  12.156   1.036   4.696 -0.1611 -0.0675  0.0057
 1033loPI    C215846  12.354   1.004   4.350 -0.0942  0.0410  0.0337
 1033loPI    C315847  11.998   1.186   4.360 -0.1368 -0.0406  0.0063
 1033loPI   PO415848  12.380   1.125   4.875  0.1775  0.4224  0.2096
 1033loPI   GL115849  12.302   1.293   5.360  0.1954 -0.2784 -0.2538
 1033loPI   GL215850  12.439   1.047   5.463 -0.2130 -0.3568  0.1960
 1033loPI   C1A15851  11.982   1.387   5.798 -0.4098 -0.0183 -0.1985
 1033loPI   C2A15852  12.005   1.279   6.161  0.2436 -0.0350  0.2602
 1033loPI   C3A15853  11.701   1.193   6.434  0.1245  0.2157 -0.1729
 1033loPI   C4A15854  11.701   1.096   6.817 -0.1420 -0.2193 -0.2611
 1033loPI   C5A15855  11.746   1.050   7.301  0.3287 -0.0125 -0.1690
 1033loPI   C6A15856  11.724   0.914   7.746  0.1390 -0.0271  0.3089
 1033loPI   C1B15857  12.318   0.852   5.930 -0.0475 -0.3632 -0.2221
 1033loPI   C2B15858  12.405   0.502   6.188  0.3920  0.1073 -0.1306
 1033loPI   C3B15859  12.569   0.405   6.491 -0.2415 -0.1625  0.2304
 1033loPI   C4B15860  12.869   0.266   6.793 -0.2354 -0.3478 -0.0572
 1034loPI    C115861  16.436  14.507   5.082  0.1242  0.0280  0.0200
 1034loPI    C215862  16.707  14.790   5.166  0.1073 -0.0344  0.2951
 1034loPI    C315863  16.781  14.519   4.880 -0.0408  0.4793 -0.2505
 1034loPI   PO415864  16.203  14.630   5.124  0.0329  0.1408  0.0925
 1034loPI   GL115865  16.262  14.890   5.407  0.0732 -0.0610 -0.1985
 1034loPI   GL215866  16.141  15.178   5.260  0.0637 -0.3537  0.0151
 1034loPI   C1A15867  16.059  14.781   5.737  0.1730  0.4670 -0.0007
 1034loPI   C2A15868  16.060  14.872   6.188  0.1760  0.1295  0.1090
 1034loPI   C3A15869  16.211  14.793   6.568  0.0414 -0.0945  0.1000
 1034loPI   C4A15870  16.274  14.846   7.007 -0.0914  0.2444 -0.1113
 1034loPI   C5A15871  16.152  15.004   7.378 -0.2455 -0.0338  0.0125
 1034loPI   C6A15872  16.145  15.428   7.554 -0.4428 -0.3662 -0.0235
 1034loPI   C1B15873  15.776  15.254   5.509  0.0042 -0.0669 -0.0125
 1034loPI   C2B15874  15.698  15.087   5.908 -0.1995 -0.1449  0.2014
 1034loPI   C3B15875  15.653  15.125   6.311 -0.2369 -0.2021  0.1730
 1034loPI   C4B15876  15.781  15.049   6.682 -0.0737 -0.0785 -0.1516
 1035loPI    C115877   2.760   4.518   4.858  0.1699  0.1450  0.0312
 1035loPI    C215878   2.910   4.436   4.496 -0.0428  0.0387 -0.0346
 1035loPI    C315879   2.515   4.422   4.557  0.0033 -0.1215  0.2466
 1035loPI   PO415880   2.918   4.462   5.055 -0.2096 -0.0076 -0.2737
 1035loPI   GL115881   2.843   4.438   5.430 -0.2386 -0.0764 -0.0716
 1035loPI   GL215882   2.512   4.470   5.456  0.1340 -0.2095 -0.0545
 1035loPI   C1A15883   3.009   4.291   5.870  0.0996  0.0601  0.0574
 1035loPI   C2A15884   2.995   4.192   6.284  0.0284 -0.2694  0.3523
 1035loPI   C3A15885   2.948   4.475   6.563 -0.0083 -0.1321  0.0750
 1035loPI   C4A15886   2.682   4.533   6.891 -0.0657 -0.1853 -0.0889
 1035loPI   C5A15887   2.350   4.684   6.807  0.2103 -0.3971  0.3065
 1035loPI   C6A15888   2.024   4.809   7.017  0.3740  0.1039 -0.4036
 1035loPI   C1B15889   2.462   4.381   5.959 -0.4812  0.1958 -0.4458
 1035loPI   C2B15890   2.463   4.175   6.428  0.0404  0.0396 -0.0583
 1035loPI   C3B15891   2.766   4.008   6.733 -0.1079 -0.1644  0.0556
 1035loPI   C4B15892   3.104   4.237   6.932 -0.3032  0.0368 -0.0083
 1036loPI    C115893   8.738  11.727   4.614  0.1230 -0.0875 -0.1678
 1036loPI    C215894   8.555  11.446   4.396  0.0398 -0.2035  0.0482
 1036loPI    C315895   8.847  11.343   4.650  0.0609 -0.0847  0.0725
 1036loPI   PO415896   8.490  11.854   4.815  0.0538  0.1135  0.0783
 1036loPI   GL115897   8.344  11.865   5.259 -0.0141  0.1121 -0.1795
 1036loPI   GL215898   8.636  12.108   5.300 -0.0927 -0.1058  0.0504
 1036loPI   C1A15899   8.146  12.021   5.557  0.0145 -0.0663 -0.0038
 1036loPI   C2A15900   7.984  12.223   5.953  0.1245  0.3786  0.0174
 1036loPI   C3A15901   7.993  12.158   6.396  0.0077 -0.1273  0.0959
 1036loPI   C4A15902   7.808  12.289   6.871 -0.0032  0.0475  0.3027
 1036loPI   C5A15903   7.591  12.340   7.317 -0.2924 -0.2503 -0.3522
 1036loPI   C6A15904   7.725  12.747   7.601 -0.0877  0.3025 -0.1560
 1036loPI   C1B15905   8.623  12.065   5.734 -0.1762 -0.0445 -0.0878
 1036loPI   C2B15906   8.374  11.944   6.034 -0.2985  0.2724  0.4961
 1036loPI   C3B15907   8.353  11.860   6.453  0.0453  0.0585 -0.1347
 1036loPI   C4B15908   8.146  11.902   6.875  0.0196  0.1245  0.0324
 1037loPI    C115909  19.114   5.917   4.493  0.3043 -0.4407  0.4398
 1037loPI    C215910  19.397   5.745   4.269  0.2225  0.0539 -0.0663
 1037loPI    C315911  19.017   5.742   4.147  0.1206  0.0352  0.2424
 1037loPI   PO415912  19.188   5.774   4.729 -0.3366 -0.1918 -0.2597
 1037loPI   GL115913  19.187   5.879   5.202  0.0479  0.1653 -0.2033
 1037loPI   GL215914  19.043   5.690   5.213 -0.2949 -0.0272  0.1065
 1037loPI   C1A15915  19.068   6.052   5.581  0.3527 -0.1180  0.0843
 1037loPI   C2A15916  18.707   6.277   5.803 -0.1231 -0.2119  0.2919
 1037loPI   C3A15917  18.700   6.468   6.148  0.2073  0.2606 -0.3045
 1037loPI   C4A15918  18.943   6.478   6.528 -0.0159 -0.2169  0.0759
 1037loPI   C5A15919  19.039   6.531   6.937  0.2464  0.0552 -0.0432
 1037loPI   C6A15920  19.089   6.298   7.343  0.1823 -0.1218  0.1643
 1037loPI   C1B15921  19.158   5.468   5.616 -0.2632  0.3697  0.0276
 1037loPI   C2B15922  19.309   5.569   6.030 -0.0511 -0.2537 -0.1951
 1037loPI   C3B15923  19.343   5.845   6.460  0.2568  0.0004 -0.4115
 1037loPI   C4B15924  19.378   6.189   6.649 -0.0893 -0.6077 -0.0862
 1038loPI    C115925   6.777   7.485   4.857  0.3424 -0.1008  0.0049
 1038loPI    C215926   6.840   7.159   5.080 -0.0900 -0.2070 -0.0188
 1038loPI    C315927   6.817   7.127   4.682  0.0354 -0.1185 -0.0339
 1038loPI   PO415928   6.584   7.590   5.016 -0.0042  0.1706  0.0625
 1038loPI   GL115929   6.894   7.800   5.320 -0.1349 -0.0377  0.1846
 1038loPI   GL215930   6.583   7.971   5.356  0.0917  0.2422 -0.0806
 1038loPI   C1A15931   7.081   8.111   5.703  0.0082 -0.2173 -0.2356
 1038loPI   C2A15932   7.003   8.051   6.084 -0.1832  0.0327 -0.1495
 1038loPI   C3A15933   6.972   8.173   6.484  0.0814  0.0067  0.1700
 1038loPI   C4A15934   6.932   8.157   6.957  0.1100 -0.0144  0.0899
 1038loPI   C5A15935   6.895   8.414   7.304  0.2715 -0.0746 -0.2251
 1038loPI   C6A15936   6.825   8.891   7.258  0.0390  0.1272  0.1724
 1038loPI   C1B15937   6.581   8.181   5.708  0.1319 -0.3365  0.0876
 1038loPI   C2B15938   6.559   8.178   6.171  0.2593  0.1201 -0.3400
 1038loPI   C3B15939   6.473   8.181   6.617  0.1115  0.1856 -0.0447
 1038loPI   C4B15940   6.184   7.905   6.908 -0.1106 -0.1196 -0.0485
 1039loPI    C115941   1.445  15.772   4.987 -0.0932 -0.1562 -0.1751
 1039loPI    C215942   1.820  15.739   4.852 -0.0215  0.0039 -0.0195
 1039loPI    C315943   1.527  15.528   4.681  0.0978  0.0611 -0.3007
 1039loPI   PO415944   1.605  16.032   5.230  0.0058 -0.1180 -0.0540
 1039loPI   GL115945   1.446  15.946   5.656  0.1511 -0.1562 -0.1892
 1039loPI   GL215946   1.677  15.660   5.567 -0.1402 -0.0478 -0.2663
 1039loPI   C1A15947   1.317  15.945   5.922 -0.0792 -0.0280 -0.1993
 1039loPI   C2A15948   1.138  16.324   6.106  0.0470  0.2564 -0.1312
 1039loPI   C3A15949   1.121  16.504   6.588  0.1782  0.1285  0.0486
 1039loPI   C4A15950   1.192  16.249   6.946  0.0583 -0.2986 -0.5815
 1039loPI   C5A15951   0.802  16.144   7.185 -0.0314 -0.0900  0.3911
 1039loPI   C6A15952   0.787  16.320   7.545 -0.1447  0.3252  0.0558
 1039loPI   C1B15953   1.863  15.991   5.886 -0.3003 -0.3998  0.0518
 1039loPI   C2B15954   1.800  15.916   6.293 -0.0828 -0.1003  0.2593
 1039loPI   C3B15955   1.709  16.152   6.592 -0.1830 -0.0033  0.1006
 1039loPI   C4B15956   1.682  16.180   7.012 -0.0853 -0.0476 -0.2742
 1040loPI    C115957   7.542   5.531   4.612 -0.1721  0.1111  0.0045
 1040loPI    C215958   7.236   5.316   4.468 -0.0167 -0.2591  0.2121
 1040loPI    C315959   7.606   5.164   4.464  0.1164  0.0570  0.2548
 1040loPI   PO415960   7.470   5.678   4.817  0.2685  0.0640 -0.0475
 1040loPI   GL115961   7.160   5.864   5.086  0.0055  0.1056  0.0882
 1040loPI   GL215962   7.379   5.590   5.298 -0.2650  0.1178 -0.3188
 1040loPI   C1A15963   7.224   6.251   5.308  0.1417  0.1033  0.3256
 1040loPI   C2A15964   7.074   6.206   5.598  0.2061  0.0462  0.3699
 1040loPI   C3A15965   6.901   6.090   6.019 -0.0911  0.1327 -0.1176
 1040loPI   C4A15966   6.826   6.155   6.497 -0.1934  0.0445  0.0740
 1040loPI   C5A15967   7.047   5.897   6.888 -0.1157 -0.1223 -0.0440
 1040loPI   C6A15968   7.302   5.677   7.129 -0.2911 -0.0810 -0.0455
 1040loPI   C1B15969   7.335   5.641   5.710 -0.1771  0.2393  0.0684
 1040loPI   C2B15970   7.344   5.823   6.155  0.1421 -0.3350  0.0311
 1040loPI   C3B15971   6.995   5.665   6.389  0.1295 -0.1795  0.0397
 1040loPI   C4B15972   6.900   5.465   6.777 -0.0266  0.1024  0.3373
 1041loPI    C115973   5.232  11.467   4.495  0.0208  0.0172  0.0762
 1041loPI    C215974   5.587  11.283   4.505  0.0611  0.0882 -0.0307
 1041loPI    C315975   5.409  11.356   4.154 -0.1582 -0.1349  0.0307
 1041loPI   PO415976   5.099  11.407   4.696 -0.1088 -0.0065 -0.0473
 1041loPI   GL115977   5.191  11.302   5.071 -0.3602 -0.1788  0.4059
 1041loPI   GL215978   5.166  11.481   5.351 -0.1112 -0.0031 -0.2939
 1041loPI   C1A15979   5.081  10.996   5.231  0.0814  0.1847 -0.2038
 1041loPI   C2A15980   5.055  10.846   5.657  0.2930  0.1751  0.0555
 1041loPI   C3A15981   4.940  10.800   6.065  0.2027 -0.0445  0.0399
 1041loPI   C4A15982   4.871  10.789   6.413 -0.0045 -0.0458  0.1969
 1041loPI   C5A15983   4.729  10.678   6.809 -0.2075  0.0035  0.2459
 1041loPI   C6A15984   4.477  10.715   7.226 -0.3519 -0.2194 -0.0667
 1041loPI   C1B15985   5.530  11.620   5.596  0.2449  0.1117 -0.2328
 1041loPI   C2B15986   5.812  11.368   5.858 -0.1438 -0.0800 -0.2546
 1041loPI   C3B15987   6.042  11.309   6.263  0.0087  0.2659  0.0661
 1041loPI   C4B15988   6.107  11.463   6.626  0.0589  0.1722  0.1362
 1042loPI    C115989  12.046  18.109   5.155  0.2319  0.0606  0.1201
 1042loPI    C215990  12.388  18.295   5.063  0.0650  0.2665 -0.0980
 1042loPI    C315991  12.042  18.495   5.052 -0.0834  0.0173 -0.0424
 1042loPI   PO415992  12.077  17.967   5.458  0.0206 -0.0530  0.1881
 1042loPI   GL115993  12.127  17.935   5.833 -0.0027 -0.0033 -0.0248
 1042loPI   GL215994  12.467  17.944   5.926  0.1417 -0.3472 -0.0296
 1042loPI   C1A15995  12.192  17.509   5.889 -0.2323 -0.1752 -0.3887
 1042loPI   C2A15996  12.309  17.065   6.030  0.0283 -0.0989 -0.0394
 1042loPI   C3A15997  12.543  16.928   6.369 -0.4026 -0.1333 -0.0157
 1042loPI   C4A15998  12.292  16.970   6.599  0.0966  0.1656  0.3825
 1042loPI   C5A15999  12.261  16.833   7.069 -0.2164  0.4589 -0.0324
 1042loPI   C6A16000  12.035  16.806   7.399  0.0521  0.0686 -0.2675
 1042loPI   C1B16001  12.229  17.946   6.332  0.2315  0.2183 -0.1600
 1042loPI   C2B16002  12.170  18.074   6.806  0.1836 -0.1743  0.1274
 1042loPI   C3B16003  12.337  17.874   7.154  0.2366 -0.0469  0.1351
 1042loPI   C4B16004  12.483  17.746   7.600  0.1066  0.3662  0.0192
 1043loPI    C116005   7.780   9.307   4.380 -0.2720 -0.0301  0.2929
 1043loPI    C216006   7.447   9.190   4.193 -0.0221 -0.0341 -0.1626
 1043loPI    C316007   7.734   8.924   4.273  0.1082  0.0711 -0.2755
 1043loPI   PO416008   7.663   9.383   4.690 -0.3586  0.2440 -0.0456
 1043loPI   GL116009   7.340   9.326   5.065  0.0132 -0.0935 -0.2859
 1043loPI   GL216010   7.111   9.292   5.271 -0.0393 -0.2659  0.0699
 1043loPI   C1A16011   7.600   9.314   5.420 -0.0661  0.2789  0.1845
 1043loPI   C2A16012   7.771   9.459   5.760 -0.1209 -0.1519  0.1254
 1043loPI   C3A16013   7.599   9.588   6.238 -0.1875 -0.2533  0.0183
 1043loPI   C4A16014   7.383   9.454   6.577 -0.0583  0.2397 -0.1790
 1043loPI   C5A16015   7.584   9.613   6.942 -0.1747 -0.1597 -0.0497
 1043loPI   C6A16016   7.546  10.008   7.243 -0.0232 -0.1850  0.0653
 1043loPI   C1B16017   6.835   9.584   5.422  0.1951 -0.0688  0.1203
 1043loPI   C2B16018   7.008   9.857   5.756 -0.0426  0.0490 -0.2462
 1043loPI   C3B16019   7.450   9.928   5.903  0.0552 -0.0078 -0.0567
 1043loPI   C4B16020   7.587  10.267   6.251 -0.0061  0.1292 -0.1314
 1044loPI    C116021   6.632   8.109   4.410 -0.0773 -0.2631  0.0651
 1044loPI    C216022   6.846   8.360   4.185 -0.1195 -0.0706  0.2368
 1044loPI    C316023   7.012   8.022   4.319 -0.0754 -0.1569 -0.0302
 1044loPI   PO416024   6.570   8.325   4.653 -0.0730 -0.3740  0.0263
 1044loPI   GL116025   6.632   8.424   5.118 -0.0592 -0.2910 -0.1310
 1044loPI   GL216026   6.378   8.447   5.171  0.1549  0.3073 -0.3042
 1044loPI   C1A16027   6.953   8.521   5.461  0.0585  0.2017 -0.1100
 1044loPI   C2A16028   6.945   8.583   5.863  0.0068 -0.2215 -0.2351
 1044loPI   C3A16029   7.008   8.845   6.336  0.4244  0.0702 -0.3288
 1044loPI   C4A16030   6.949   8.997   6.783  0.0199  0.0087  0.0497
 1044loPI   C5A16031   6.674   9.252   7.021 -0.0946 -0.3930 -0.1352
 1044loPI   C6A16032   6.758   9.754   7.164  0.1558 -0.2146 -0.1251
 1044loPI   C1B16033   6.206   8.534   5.566 -0.1742 -0.1212  0.0623
 1044loPI   C2B16034   6.172   8.452   6.070  0.2281  0.0588  0.3479
 1044loPI   C3B16035   6.423   8.669   6.401  0.2365  0.1286 -0.1856
 1044loPI   C4B16036   6.682   8.573   6.801 -0.1827  0.1284 -0.0844
 1045loPI    C116037   2.908   1.054   4.580 -0.0892 -0.1279 -0.0401
 1045loPI    C216038   2.963   0.868   4.231  0.0114  0.0230 -0.1058
 1045loPI    C316039   2.625   1.071   4.298 -0.0055 -0.0010 -0.1177
 1045loPI   PO416040   2.892   0.890   4.890 -0.0790 -0.0370  0.1042
 1045loPI   GL116041   3.104   0.852   5.285  0.1665 -0.1919  0.2033
 1045loPI   GL216042   2.881   0.550   5.289  0.1676  0.0478 -0.2003
 1045loPI   C1A16043   3.296   0.941   5.732 -0.1910  0.0922 -0.1140
 1045loPI   C2A16044   3.514   0.917   6.043 -0.0256 -0.3181 -0.1194
 1045loPI   C3A16045   3.435   0.938   6.381  0.2656  0.0469 -0.2978
 1045loPI   C4A16046   3.298   0.801   6.918  0.1240 -0.1578 -0.0671
 1045loPI   C5A16047   3.438   1.078   7.246  0.0237  0.1876  0.1248
 1045loPI   C6A16048   3.800   1.009   7.500  0.2721  0.2272  0.0026
 1045loPI   C1B16049   2.928   0.596   5.723  0.2567  0.3895  0.2113
 1045loPI   C2B16050   3.061   0.698   6.056  0.1769  0.0236  0.2236
 1045loPI   C3B16051   3.203   0.423   6.390  0.0652  0.0049 -0.0880
 1045loPI   C4B16052   3.319   0.337   6.870  0.1485 -0.3110  0.1466
 1046loPI    C116053  10.441   2.108   4.498  0.0984 -0.1042 -0.3816
 1046loPI    C216054  10.060   2.180   4.397  0.1769  0.3173 -0.3969
 1046loPI    C316055  10.256   1.871   4.234 -0.2847 -0.1689 -0.0646
 1046loPI   PO416056  10.369   2.105   4.780 -0.2043 -0.2825 -0.2230
 1046loPI   GL116057  10.157   1.954   5.122 -0.1061 -0.0625 -0.2007
 1046loPI   GL216058  10.457   1.984   5.345  0.0169  0.0227  0.1783
 1046loPI   C1A16059  10.098   1.850   5.606 -0.0594 -0.1372  0.0970
 1046loPI   C2A16060  10.053   1.525   5.759  0.2312 -0.0383 -0.0163
 1046loPI   C3A16061   9.893   1.234   6.077  0.0812  0.1637  0.1410
 1046loPI   C4A16062   9.519   1.201   6.357  0.0643 -0.1161 -0.1192
 1046loPI   C5A16063   9.263   1.195   6.788 -0.2538 -0.3018 -0.0842
 1046loPI   C6A16064   9.240   1.530   7.183  0.0755  0.0528 -0.1025
 1046loPI   C1B16065  10.567   1.741   5.692 -0.1906 -0.0099 -0.2434
 1046loPI   C2B16066  10.819   1.645   6.098  0.3164  0.0544 -0.4750
 1046loPI   C3B16067  10.604   1.437   6.326  0.0146  0.3906 -0.0488
 1046loPI   C4B16068  10.243   1.512   6.290 -0.0717 -0.1981 -0.1193
 1047loPI    C116069  12.319   3.827   4.400 -0.0457  0.0002  0.0115
 1047loPI    C216070  12.639   3.605   4.489 -0.0535 -0.0635 -0.1159
 1047loPI    C316071  12.479   3.587   4.123 -0.3025 -0.1571 -0.0047
 1047loPI   PO416072  12.136   3.799   4.611  0.1409 -0.0513  0.1797
 1047loPI   GL116073  12.338   3.608   4.997 -0.0520  0.0118 -0.0750
 1047loPI   GL216074  12.609   3.649   4.997 -0.4180 -0.1632 -0.0792
 1047loPI   C1A16075  12.348   3.924   5.376 -0.0864  0.1116  0.2894
 1047loPI   C2A16076  12.438   4.013   5.800 -0.1184 -0.2043 -0.1055
 1047loPI   C3A16077  12.310   4.094   6.261  0.0648  0.0892  0.1364
 1047loPI   C4A16078  12.277   4.160   6.662 -0.2599 -0.0984 -0.2222
 1047loPI   C5A16079  12.302   3.903   7.201 -0.0510 -0.1693 -0.0171
 1047loPI   C6A16080  12.123   3.971   7.601  0.0960  0.3053  0.0402
 1047loPI   C1B16081  12.740   3.649   5.473  0.0583 -0.2176 -0.1097
 1047loPI   C2B16082  12.665   3.431   5.848  0.0180  0.1794 -0.0119
 1047loPI   C3B16083  12.528   3.476   6.383  0.2126  0.1953 -0.3895
 1047loPI   C4B16084  12.417   3.723   6.768 -0.0863 -0.0197 -0.0204
 1048loPI    C116085  13.166   6.241   4.581  0.1029  0.1137 -0.0090
 1048loPI    C216086  13.100   6.496   4.280 -0.2071  0.0938  0.0387
 1048loPI    C316087  13.355   6.191   4.232 -0.0936  0.2134 -0.1309
 1048loPI   PO416088  13.081   6.373   4.803 -0.0605 -0.2772 -0.0533
 1048loPI   GL116089  13.151   6.151   5.208  0.2653 -0.1365 -0.1497
 1048loPI   GL216090  13.375   5.902   5.266 -0.2935 -0.1080 -0.1225
 1048loPI   C1A16091  13.175   6.383   5.598  0.0733  0.3718 -0.2562
 1048loPI   C2A16092  13.191   6.654   5.844  0.4326 -0.1063  0.0125
 1048loPI   C3A16093  13.018   6.777   6.318  0.2417 -0.1329 -0.2163
 1048loPI   C4A16094  13.046   6.940   6.784  0.4599 -0.2368  0.0251
 1048loPI   C5A16095  12.921   6.900   7.274  0.0800 -0.1195 -0.5800
 1048loPI   C6A16096  12.653   6.722   7.433  0.0057  0.1765  0.2794
 1048loPI   C1B16097  13.451   6.025   5.602  0.0475 -0.1568  0.1811
 1048loPI   C2B16098  13.439   5.962   6.042  0.0504 -0.1011  0.3250
 1048loPI   C3B16099  13.507   6.020   6.447  0.1571 -0.1264  0.2954
 1048loPI   C4B16100  13.150   5.795   6.670  0.2403 -0.0848 -0.2097
 1049loPI    C116101  10.344   2.621   4.695 -0.1244 -0.1797 -0.1481
 1049loPI    C216102  10.019   2.802   4.841 -0.1167 -0.1150 -0.2109
 1049loPI    C316103  10.150   2.891   4.473  0.0894  0.0086 -0.1093
 1049loPI   PO416104  10.532   2.647   4.904  0.0427  0.0164 -0.1402
 1049loPI   GL116105  10.316   2.413   5.181 -0.1696  0.1366 -0.0668
 1049loPI   GL216106   9.940   2.365   5.437 -0.0789  0.0007 -0.1336
 1049loPI   C1A16107  10.420   2.327   5.635 -0.1190 -0.1032 -0.1856
 1049loPI   C2A16108  10.442   2.043   6.095  0.1802  0.1803  0.1065
 1049loPI   C3A16109  10.775   1.922   6.466 -0.0420 -0.1367 -0.2128
 1049loPI   C4A16110  10.834   2.073   6.791  0.0385  0.1303 -0.0385
 1049loPI   C5A16111  11.081   2.049   7.122  0.1791 -0.2689  0.1607
 1049loPI   C6A16112  11.221   2.278   7.389 -0.0792  0.0196 -0.1087
 1049loPI   C1B16113   9.995   2.342   5.898 -0.1462 -0.2538  0.1751
 1049loPI   C2B16114  10.058   2.288   6.391  0.0273  0.0859  0.1089
 1049loPI   C3B16115  10.267   2.027   6.757 -0.0899  0.3021 -0.0456
 1049loPI   C4B16116  10.388   1.671   6.723  0.1775 -0.1150 -0.0094
 1050loPI    C116117   3.942   2.865   4.769  0.1157  0.0560 -0.0295
 1050loPI    C216118   3.597   2.731   4.921  0.0614  0.2085 -0.0163
 1050loPI    C316119   3.800   2.508   4.658  0.0123  0.0673  0.0642
 1050loPI   PO416120   4.042   2.958   5.067 -0.1870  0.3037  0.2360
 1050loPI   GL116121   4.273   2.947   5.380 -0.2342 -0.0777  0.1246
 1050loPI   GL216122   4.565   3.113   5.324 -0.0832  0.0588  0.0670
 1050loPI   C1A16123   4.345   2.694   5.639 -0.0025 -0.1381 -0.0696
 1050loPI   C2A16124   4.134   2.709   5.951 -0.0136 -0.3070 -0.5165
 1050loPI   C3A16125   4.097   2.996   6.116 -0.0986 -0.3233  0.1043
 1050loPI   C4A16126   3.853   3.199   6.442 -0.2775 -0.1332  0.0580
 1050loPI   C5A16127   3.820   3.368   6.857 -0.0139  0.1875  0.1920
 1050loPI   C6A16128   3.774   3.143   7.278  0.1236 -0.3741 -0.2462
 1050loPI   C1B16129   4.537   3.058   5.837  0.1366  0.1092  0.2001
 1050loPI   C2B16130   4.627   3.038   6.313  0.1038 -0.0027  0.1215
 1050loPI   C3B16131   4.611   3.023   6.724 -0.0303 -0.0604 -0.0866
 1050loPI   C4B16132   4.483   2.867   7.156  0.2079  0.0918  0.2266
 1051loPI    C116133   2.081  15.683   5.296 -0.2391  0.1167 -0.2112
 1051loPI    C216134   2.090  16.043   5.472 -0.3012  0.0792 -0.1308
 1051loPI    C316135   2.146  16.012   5.077  0.1717  0.1323 -0.0739
 1051loPI   PO416136   2.323  15.605   5.506 -0.0468 -0.1907 -0.1380
 1051loPI   GL116137   2.196  15.625   5.852  0.0729  0.0835  0.1466
 1051loPI   GL216138   2.253  15.726   6.162  0.1427 -0.2191 -0.2268
 1051loPI   C1A16139   1.827  15.463   6.038 -0.0397  0.0483 -0.2497
 1051loPI   C2A16140   1.469  15.570   6.414  0.4149 -0.0119 -0.2488
 1051loPI   C3A16141   1.359  15.563   6.863  0.2058 -0.0443 -0.0612
 1051loPI   C4A16142   1.215  15.796   7.245  0.0465 -0.0521  0.1778
 1051loPI   C5A16143   1.309  16.132   7.413  0.0305 -0.1714 -0.1047
 1051loPI   C6A16144   1.433  16.446   7.733 -0.2524  0.3300  0.2836
 1051loPI   C1B16145   2.193  15.628   6.549  0.0661 -0.1964 -0.1193
 1051loPI   C2B16146   1.890  15.690   6.734  0.2418  0.0580  0.2549
 1051loPI   C3B16147   1.772  15.702   7.162 -0.0969 -0.1216 -0.3445
 1051loPI   C4B16148   1.725  16.031   7.543 -0.0938  0.1828  0.1034
 1052loPI    C116149   9.852  11.153   4.751 -0.1828 -0.2599  0.1654
 1052loPI    C216150   9.603  11.293   4.471  0.1496  0.0566  0.0198
 1052loPI    C316151   9.771  10.932   4.427 -0.1534 -0.0905  0.0414
 1052loPI   PO416152   9.795  11.269   5.036 -0.0061 -0.1931  0.1484
 1052loPI   GL116153   9.650  11.144   5.371  0.1721 -0.3079 -0.1018
 1052loPI   GL216154   9.328  10.840   5.405 -0.1073 -0.0319 -0.1229
 1052loPI   C1A16155   9.591  11.079   5.792  0.1101  0.2050 -0.0464
 1052loPI   C2A16156   9.654  10.738   6.031  0.0728  0.1954  0.1087
 1052loPI   C3A16157   9.540  10.603   6.389 -0.1728  0.3472  0.0440
 1052loPI   C4A16158   9.327  10.811   6.804 -0.0180  0.0974  0.0043
 1052loPI   C5A16159   9.126  11.060   7.165  0.0467  0.1336 -0.0236
 1052loPI   C6A16160   9.011  11.201   7.593  0.4003 -0.2539 -0.1260
 1052loPI   C1B16161   9.326  10.400   5.626 -0.0707 -0.0902 -0.0650
 1052loPI   C2B16162   9.378  10.161   5.973 -0.0314 -0.1725 -0.0365
 1052loPI   C3B16163   9.578  10.069   6.347  0.2096 -0.0140  0.3033
 1052loPI   C4B16164   9.763  10.209   6.673 -0.1284 -0.4096 -0.1894
 1053loPI    C116165   5.689   8.903   4.580 -0.1470  0.0083  0.0929
 1053loPI    C216166   5.894   8.739   4.278 -0.1242  0.2142 -0.0047
 1053loPI    C316167   5.510   8.643   4.334 -0.0331 -0.0904  0.1132
 1053loPI   PO416168   5.842   8.890   4.754  0.1389 -0.0158  0.4722
 1053loPI   GL116169   5.959   9.223   5.007  0.1710 -0.0085 -0.1310
 1053loPI   GL216170   5.956   9.564   4.988  0.1607 -0.0539 -0.4092
 1053loPI   C1A16171   5.800   9.249   5.457  0.1043  0.0820  0.0304
 1053loPI   C2A16172   5.883   9.370   5.809 -0.2169  0.1118  0.1123
 1053loPI   C3A16173   5.882   9.570   6.174 -0.1213 -0.1109  0.2170
 1053loPI   C4A16174   5.781   9.491   6.568 -0.1853 -0.0477  0.0947
 1053loPI   C5A16175   5.457   9.410   6.953 -0.4211  0.1608  0.1467
 1053loPI   C6A16176   5.054   9.324   7.189  0.0799 -0.4504 -0.0969
 1053loPI   C1B16177   5.871   9.821   5.393  0.2247  0.0292  0.2874
 1053loPI   C2B16178   5.969   9.879   5.754 -0.0283  0.1872  0.1027
 1053loPI   C3B16179   6.227   9.994   6.130 -0.5668  0.2463  0.0100
 1053loPI   C4B16180   6.028   9.990   6.483  0.3100  0.1727 -0.1712
 1054loPI    C116181   2.108  11.870   4.871 -0.2565  0.0128  0.0887
 1054loPI    C216182   2.027  12.051   4.524  0.0077  0.0101  0.0235
 1054loPI    C316183   1.848  11.704   4.615  0.1285 -0.1211 -0.2257
 1054loPI   PO416184   2.133  12.073   5.025 -0.2392 -0.3544 -0.0986
 1054loPI   GL116185   2.240  12.012   5.558 -0.0408  0.2782 -0.0993
 1054loPI   GL216186   2.262  11.605   5.612 -0.3387  0.0963  0.0081
 1054loPI   C1A16187   2.045  12.425   5.693  0.2440 -0.0889  0.1611
 1054loPI   C2A16188   1.720  12.625   6.037 -0.0759  0.1192  0.0151
 1054loPI   C3A16189   1.673  12.603   6.468 -0.0309  0.3217  0.1551
 1054loPI   C4A16190   1.561  12.601   6.887 -0.0343  0.2589  0.2252
 1054loPI   C5A16191   1.382  12.447   7.154  0.0981 -0.2013 -0.0726
 1054loPI   C6A16192   1.569  12.391   7.517 -0.1521 -0.0404  0.1789
 1054loPI   C1B16193   2.111  11.710   5.960  0.5167  0.2093 -0.4857
 1054loPI   C2B16194   2.238  11.742   6.427  0.2527  0.2307  0.0903
 1054loPI   C3B16195   2.240  11.795   6.818 -0.0754 -0.0718 -0.1965
 1054loPI   C4B16196   2.259  12.139   7.162  0.1176 -0.3357 -0.1807
 1055loPI    C116197  18.412   2.360   4.795 -0.2389  0.0918  0.1032
 1055loPI    C216198  18.114   2.609   4.889 -0.0820  0.3344 -0.0304
 1055loPI    C316199  18.085   2.377   4.565 -0.2376  0.1592  0.1064
 1055loPI   PO416200  18.412   2.195   5.005  0.1015 -0.0293 -0.0179
 1055loPI   GL116201  18.556   2.183   5.300 -0.0739 -0.1405  0.1210
 1055loPI   GL216202  18.514   2.573   5.353 -0.2110 -0.0473 -0.2054
 1055loPI   C1A16203  18.668   2.257   5.669  0.0794 -0.0923 -0.1790
 1055loPI   C2A16204  18.732   2.448   6.161 -0.3034  0.0628  0.4115
 1055loPI   C3A16205  18.600   2.600   6.573 -0.0158  0.0139 -0.0883
 1055loPI   C4A16206  18.394   2.792   6.730  0.2998  0.0300  0.2564
 1055loPI   C5A16207  18.259   2.877   7.164  0.3287  0.0077 -0.0695
 1055loPI   C6A16208  18.021   3.109   7.513  0.2292 -0.1617  0.0371
 1055loPI   C1B16209  18.443   2.747   5.757  0.2747  0.0182 -0.0296
 1055loPI   C2B16210  18.219   2.778   6.189  0.0952  0.1503 -0.0570
 1055loPI   C3B16211  17.950   2.945   6.463  0.1283 -0.0611  0.0224
 1055loPI   C4B16212  17.799   3.066   6.891  0.0287 -0.1730  0.0108
 1056loPI    C116213   2.739   5.579   4.790  0.0843  0.1911 -0.0637
 1056loPI    C216214   2.359   5.645   4.683  0.0725  0.0352 -0.1203
 1056loPI    C316215   2.627   5.941   4.661 -0.0013  0.0917 -0.2734
 1056loPI   PO416216   2.850   5.419   5.012 -0.0085  0.0903 -0.2007
 1056loPI   GL116217   2.871   5.382   5.419  0.0511  0.2968  0.0533
 1056loPI   GL216218   2.773   5.735   5.475  0.1847  0.3162  0.0063
 1056loPI   C1A16219   2.656   5.343   5.838 -0.1818  0.1053  0.0336
 1056loPI   C2A16220   2.669   5.524   6.241  0.2388  0.0122  0.1593
 1056loPI   C3A16221   2.600   5.634   6.658 -0.1581 -0.1806  0.0451
 1056loPI   C4A16222   2.853   5.407   6.931  0.1888  0.1461 -0.1317
 1056loPI   C5A16223   3.075   5.149   7.322 -0.3305 -0.2308  0.0596
 1056loPI   C6A16224   3.380   5.338   7.454  0.3798 -0.1251 -0.0058
 1056loPI   C1B16225   2.912   5.799   5.943  0.0146 -0.0784  0.0820
 1056loPI   C2B16226   3.258   5.606   6.175  0.1191 -0.2081  0.1561
 1056loPI   C3B16227   3.532   5.332   6.349  0.1001 -0.1123  0.0514
 1056loPI   C4B16228   3.767   5.097   6.638 -0.5466 -0.0649  0.0622
 1057loPI    C116229  18.899   9.966   4.906 -0.1774 -0.1720  0.0224
 1057loPI    C216230  19.264  10.121   4.855 -0.2147 -0.1189 -0.0881
 1057loPI    C316231  19.143   9.816   4.626 -0.2034 -0.2018  0.0155
 1057loPI   PO416232  18.852   9.925   5.153  0.1114  0.0365  0.1201
 1057loPI   GL116233  18.918   9.802   5.473 -0.0102 -0.0648 -0.2624
 1057loPI   GL216234  18.664   9.581   5.525  0.1533 -0.1032  0.0030
 1057loPI   C1A16235  18.993   9.939   5.907  0.2416  0.2233  0.2765
 1057loPI   C2A16236  18.861   9.763   6.263 -0.4258  0.0707 -0.0751
 1057loPI   C3A16237  18.992   9.775   6.728 -0.0507 -0.0653  0.1089
 1057loPI   C4A16238  18.873   9.904   7.124  0.0703 -0.0762  0.2203
 1057loPI   C5A16239  18.496   9.812   7.312  0.1521 -0.2926  0.0907
 1057loPI   C6A16240  18.135   9.601   7.595 -0.1645 -0.3604 -0.0642
 1057loPI   C1B16241  18.782   9.329   5.868  0.4438  0.0042 -0.1813
 1057loPI   C2B16242  19.121   9.049   5.997  0.0143  0.1087 -0.2592
 1057loPI   C3B16243  19.200   9.002   6.324  0.0637  0.1840  0.4142
 1057loPI   C4B16244  19.022   9.211   6.628  0.0890  0.1409  0.0060
 1058loPI    C116245  16.312  13.069   4.975 -0.0732  0.1316  0.1229
 1058loPI    C216246  16.598  13.273   4.784 -0.0417  0.0698  0.1037
 1058loPI    C316247  16.217  13.305   4.666 -0.0102 -0.0413 -0.0300
 1058loPI   PO416248  16.405  12.977   5.140  0.1351 -0.1225  0.2462
 1058loPI   GL116249  16.180  12.884   5.555 -0.3281 -0.1448 -0.5865
 1058loPI   GL216250  16.276  12.664   5.753 -0.5292  0.0053 -0.0377
 1058loPI   C1A16251  16.081  12.984   6.052  0.1372 -0.0871  0.1276
 1058loPI   C2A16252  16.132  12.960   6.500 -0.0874  0.2377 -0.1561
 1058loPI   C3A16253  16.286  13.084   6.878  0.0930 -0.0249  0.1665
 1058loPI   C4A16254  16.055  13.048   7.273  0.0228  0.1509 -0.2416
 1058loPI   C5A16255  15.612  13.151   7.384  0.2196  0.0625 -0.2204
 1058loPI   C6A16256  15.391  13.212   7.737  0.2052  0.0592 -0.2664
 1058loPI   C1B16257  16.270  12.345   6.086  0.1848  0.2362  0.1098
 1058loPI   C2B16258  16.110  12.422   6.414  0.1497 -0.1502 -0.0161
 1058loPI   C3B16259  15.976  12.014   6.653  0.0743  0.1185  0.0987
 1058loPI   C4B16260  15.915  11.593   6.829  0.1827  0.1253  0.0578
 1059loPI    C116261  14.930   3.367   4.619  0.0950 -0.1793  0.0843
 1059loPI    C216262  15.142   3.551   4.334  0.1174 -0.2225  0.0730
 1059loPI    C316263  14.773   3.420   4.255 -0.0519  0.1658  0.1939
 1059loPI   PO416264  15.037   3.485   4.836 -0.1167  0.1173 -0.0051
 1059loPI   GL116265  14.973   3.668   5.156 -0.4164 -0.2352 -0.1122
 1059loPI   GL216266  14.886   3.409   5.317  0.1621  0.0827  0.0508
 1059loPI   C1A16267  14.782   3.750   5.620 -0.0937  0.1007  0.0713
 1059loPI   C2A16268  14.674   3.747   6.047 -0.1637  0.0542  0.2467
 1059loPI   C3A16269  14.662   3.687   6.428  0.1545  0.0964  0.1817
 1059loPI   C4A16270  14.527   3.927   6.774 -0.1303 -0.2046  0.1155
 1059loPI   C5A16271  14.605   4.116   7.178  0.0172  0.0690 -0.4571
 1059loPI   C6A16272  14.687   3.865   7.523  0.0159  0.0869 -0.0577
 1059loPI   C1B16273  14.779   3.043   5.578 -0.2930  0.1666  0.1567
 1059loPI   C2B16274  14.560   2.854   5.907  0.0962  0.2729  0.1803
 1059loPI   C3B16275  14.648   2.761   6.337  0.1668 -0.0963 -0.1294
 1059loPI   C4B16276  14.450   2.948   6.680  0.3043 -0.2982  0.0674
 1060loPI    C116277  13.068  11.402   4.692  0.1459 -0.3540  0.0104
 1060loPI    C216278  12.685  11.291   4.730 -0.1338  0.4222 -0.3264
 1060loPI    C316279  12.847  11.331   4.366  0.1801  0.3932 -0.1936
 1060loPI   PO416280  13.112  11.389   4.973 -0.2569 -0.1549 -0.0410
 1060loPI   GL116281  13.225  11.297   5.309  0.2337 -0.1316 -0.0283
 1060loPI   GL216282  13.367  10.956   5.310 -0.0379 -0.0441  0.1660
 1060loPI   C1A16283  13.172  11.427   5.753 -0.0761  0.2595  0.1870
 1060loPI   C2A16284  13.075  11.424   6.046 -0.1031 -0.2177  0.0682
 1060loPI   C3A16285  13.197  11.360   6.415  0.1958 -0.1085  0.1033
 1060loPI   C4A16286  13.266  11.552   6.879  0.1123  0.1412 -0.0471
 1060loPI   C5A16287  13.264  11.684   7.305  0.1331 -0.2553 -0.0133
 1060loPI   C6A16288  13.542  11.600   7.580  0.0430  0.1424 -0.2564
 1060loPI   C1B16289  13.550  10.715   5.588 -0.1259  0.2062  0.0229
 1060loPI   C2B16290  13.605  10.647   5.940 -0.0313 -0.0376 -0.0605
 1060loPI   C3B16291  13.543  10.167   6.076 -0.0930 -0.1414  0.1911
 1060loPI   C4B16292  13.482   9.841   6.239 -0.2487 -0.0411  0.2697
 1061loPI    C116293   8.700   7.414   4.544 -0.1458 -0.0014 -0.0190
 1061loPI    C216294   8.601   7.800   4.569  0.3881  0.1485 -0.1004
 1061loPI    C316295   8.596   7.615   4.214 -0.1493 -0.0056 -0.0204
 1061loPI   PO416296   8.856   7.339   4.723 -0.1454 -0.1652 -0.0453
 1061loPI   GL116297   8.738   7.627   5.093 -0.1496 -0.0228  0.1982
 1061loPI   GL216298   8.447   7.612   5.062  0.1104  0.3247 -0.0762
 1061loPI   C1A16299   8.931   7.431   5.422  0.0304 -0.0303 -0.4970
 1061loPI   C2A16300   9.106   7.193   5.808  0.3407  0.1089  0.1871
 1061loPI   C3A16301   9.064   6.984   6.187  0.0478 -0.4297  0.0958
 1061loPI   C4A16302   9.208   6.925   6.652  0.0993 -0.0325  0.1078
 1061loPI   C5A16303   9.262   6.886   7.102 -0.0388 -0.2829 -0.0964
 1061loPI   C6A16304   9.113   6.603   7.509  0.4287  0.0881 -0.1451
 1061loPI   C1B16305   8.489   7.776   5.592 -0.1047 -0.0659 -0.0066
 1061loPI   C2B16306   8.455   7.864   6.019  0.2193 -0.1523 -0.3274
 1061loPI   C3B16307   8.393   7.889   6.435  0.0388  0.1624 -0.2818
 1061loPI   C4B16308   8.707   7.704   6.641 -0.0243 -0.3681 -0.3148
 1062loPI    C116309  14.105   8.963   4.530 -0.1285  0.0273 -0.1217
 1062loPI    C216310  14.330   8.646   4.438  0.1671  0.2029 -0.0170
 1062loPI    C316311  14.063   8.785   4.174 -0.1246 -0.2635  0.0206
 1062loPI   PO416312  13.894   8.855   4.729  0.1047 -0.0900  0.2624
 1062loPI   GL116313  13.954   8.863   5.166 -0.0950  0.0023 -0.2889
 1062loPI   GL216314  13.625   9.027   5.167 -0.2095  0.1730 -0.0667
 1062loPI   C1A16315  14.379   8.859   5.437  0.2606 -0.0001 -0.1089
 1062loPI   C2A16316  14.378   8.752   5.877 -0.1956  0.1003  0.3638
 1062loPI   C3A16317  14.445   8.885   6.299 -0.0681 -0.4018  0.0203
 1062loPI   C4A16318  14.398   8.699   6.676 -0.0911 -0.4295 -0.0182
 1062loPI   C5A16319  14.473   8.322   6.872 -0.1792 -0.1326 -0.1783
 1062loPI   C6A16320  14.218   8.128   7.018  0.1775 -0.1569 -0.1202
 1062loPI   C1B16321  13.466   8.958   5.483  0.2653  0.1700 -0.3568
 1062loPI   C2B16322  13.539   8.644   5.855 -0.1821  0.0325  0.2161
 1062loPI   C3B16323  13.635   8.220   5.967  0.0869 -0.1199 -0.1882
 1062loPI   C4B16324  13.922   8.072   6.247  0.5626  0.0500  0.0150
 1063loPI    C116325   5.020   9.052   4.513 -0.1570 -0.1995 -0.0341
 1063loPI    C216326   5.316   9.134   4.256 -0.1058 -0.0890  0.0591
 1063loPI    C316327   4.935   9.150   4.134 -0.0854  0.0450  0.0114
 1063loPI   PO416328   5.146   9.034   4.706 -0.1963  0.1077  0.0782
 1063loPI   GL116329   4.929   9.112   5.118  0.1171 -0.0829 -0.0204
 1063loPI   GL216330   5.120   9.349   5.267 -0.2453 -0.1177  0.0856
 1063loPI   C1A16331   4.744   8.932   5.515 -0.4353 -0.0271 -0.1929
 1063loPI   C2A16332   4.552   8.774   5.791 -0.1669 -0.2775 -0.2520
 1063loPI   C3A16333   4.514   8.854   6.246  0.2428 -0.2157  0.2839
 1063loPI   C4A16334   4.657   8.813   6.633 -0.0395  0.1760  0.1740
 1063loPI   C5A16335   4.713   8.505   6.884 -0.1653  0.2248 -0.3662
 1063loPI   C6A16336   4.696   8.030   7.072 -0.0733 -0.0900 -0.0036
 1063loPI   C1B16337   5.353   9.114   5.572 -0.2975 -0.2200  0.0458
 1063loPI   C2B16338   5.084   8.964   5.849  0.2038  0.0959 -0.1294
 1063loPI   C3B16339   5.008   8.973   6.259  0.0300 -0.2663 -0.1553
 1063loPI   C4B16340   4.905   9.206   6.691  0.2511 -0.1225 -0.2180
 1064loPI    C116341   1.720   0.898   4.975 -0.2515 -0.2531 -0.2421
 1064loPI    C216342   1.541   1.205   4.791  0.0128 -0.0597 -0.1815
 1064loPI    C316343   1.329   0.882   4.893 -0.4184  0.3699  0.3416
 1064loPI   PO416344   1.923   1.091   5.103 -0.0394 -0.0865  0.0926
 1064loPI   GL116345   1.973   1.101   5.486 -0.0499  0.1617  0.0638
 1064loPI   GL216346   2.179   1.364   5.567  0.0777  0.0246 -0.0790
 1064loPI   C1A16347   2.045   0.905   5.851  0.3474 -0.0587  0.0179
 1064loPI   C2A16348   2.186   1.028   6.293 -0.2114  0.3567 -0.0156
 1064loPI   C3A16349   2.472   0.882   6.679 -0.1627  0.1527 -0.0875
 1064loPI   C4A16350   2.529   1.019   7.119  0.2513 -0.0648 -0.1155
 1064loPI   C5A16351   2.133   1.157   7.453 -0.1229 -0.0370 -0.0737
 1064loPI   C6A16352   1.687   1.429   7.490 -0.1117  0.3710 -0.1987
 1064loPI   C1B16353   2.385   1.576   5.883  0.2327 -0.1697  0.0859
 1064loPI   C2B16354   2.294   1.512   6.283  0.0105  0.3005 -0.4802
 1064loPI   C3B16355   2.358   1.476   6.699  0.1789 -0.1587  0.1141
 1064loPI   C4B16356   2.492   1.523   7.127 -0.0933  0.1504 -0.1533
 1065loPI    C116357   4.634   5.994   4.825 -0.0191  0.2281  0.1231
 1065loPI    C216358   4.559   5.924   4.439  0.1823 -0.1494  0.1478
 1065loPI    C316359   4.295   6.127   4.660 -0.0642 -0.1710 -0.1201
 1065loPI   PO416360   4.899   6.152   4.882  0.2413 -0.1346  0.0123
 1065loPI   GL116361   5.172   6.146   5.290  0.2672 -0.1400 -0.1462
 1065loPI   GL216362   4.939   5.979   5.463 -0.0119 -0.0255  0.2936
 1065loPI   C1A16363   5.199   6.418   5.598 -0.2805 -0.1657 -0.1507
 1065loPI   C2A16364   5.458   6.684   5.824 -0.1932  0.0802  0.1077
 1065loPI   C3A16365   5.706   6.620   6.120  0.4171 -0.0494 -0.1694
 1065loPI   C4A16366   5.837   6.380   6.388 -0.3238 -0.1160 -0.2116
 1065loPI   C5A16367   5.944   6.585   6.868 -0.1699  0.1470  0.1643
 1065loPI   C6A16368   5.882   6.570   7.275  0.1924 -0.1693  0.1889
 1065loPI   C1B16369   4.831   6.127   5.895  0.0465 -0.2245  0.1177
 1065loPI   C2B16370   4.877   6.214   6.322  0.0728  0.0714  0.0933
 1065loPI   C3B16371   4.862   6.065   6.618 -0.2374 -0.2208 -0.0364
 1065loPI   C4B16372   4.939   5.709   6.818  0.0634 -0.0311  0.1546
 1066loPI    C116373   4.214   7.192   4.627  0.0174  0.0752  0.1421
 1066loPI    C216374   4.319   7.500   4.394 -0.0682  0.0056  0.0102
 1066loPI    C316375   4.216   7.150   4.229 -0.0199 -0.0791  0.1574
 1066loPI   PO416376   4.449   7.122   4.769 -0.0520 -0.0784  0.0455
 1066loPI   GL116377   4.567   7.251   5.159 -0.1887  0.4622  0.0111
 1066loPI   GL216378   4.513   6.887   5.204 -0.1617  0.2927 -0.0193
 1066loPI   C1A16379   4.482   7.337   5.607 -0.1220  0.2691  0.0827
 1066loPI   C2A16380   4.343   7.460   5.968 -0.4493  0.1425  0.0626
 1066loPI   C3A16381   4.459   7.462   6.443 -0.1034  0.3237  0.1598
 1066loPI   C4A16382   4.584   7.349   6.917  0.2487  0.2549  0.3004
 1066loPI   C5A16383   4.859   7.559   7.164 -0.0740  0.1457 -0.1966
 1066loPI   C6A16384   5.220   7.436   7.322 -0.2990 -0.2852 -0.1106
 1066loPI   C1B16385   4.240   6.864   5.561  0.0002  0.2627 -0.2519
 1066loPI   C2B16386   3.857   6.875   5.636 -0.1981  0.2977  0.2639
 1066loPI   C3B16387   3.518   6.556   5.800  0.0547 -0.1862  0.2814
 1066loPI   C4B16388   3.444   6.562   6.258  0.2034  0.0073 -0.5774
 1067loPI    C116389   2.374   4.877   4.715  0.0361 -0.1088 -0.1061
 1067loPI    C216390   2.730   5.057   4.684  0.0385 -0.0973 -0.0163
 1067loPI    C316391   2.416   5.197   4.478  0.0266  0.0450  0.0970
 1067loPI   PO416392   2.231   4.864   5.002  0.1627  0.1258 -0.0092
 1067loPI   GL116393   2.101   4.749   5.426  0.0841  0.0895 -0.0268
 1067loPI   GL216394   2.274   4.979   5.558  0.1039 -0.0673  0.0964
 1067loPI   C1A16395   2.059   4.582   5.787 -0.0410  0.0668 -0.1165
 1067loPI   C2A16396   2.107   4.563   6.255  0.1061 -0.2684  0.1193
 1067loPI   C3A16397   2.039   4.346   6.621  0.0718  0.0752  0.0821
 1067loPI   C4A16398   2.007   4.246   7.062  0.1681 -0.0038 -0.1684
 1067loPI   C5A16399   2.359   4.409   7.238  0.1965  0.1792 -0.3366
 1067loPI   C6A16400   2.576   4.814   7.308 -0.2582 -0.0243  0.1660
 1067loPI   C1B16401   2.298   5.029   6.026  0.3371  0.1440 -0.2003
 1067loPI   C2B16402   2.188   5.078   6.529 -0.2071  0.0149 -0.1087
 1067loPI   C3B16403   2.343   5.190   6.910 -0.0861  0.1698  0.3759
 1067loPI   C4B16404   2.235   5.139   7.321  0.1049 -0.3618  0.2713
 1068loPI    C116405   0.416  16.807   4.927 -0.2613  0.1101 -0.1584
 1068loPI    C216406   0.722  16.794   4.670  0.0444  0.4329  0.1773
 1068loPI    C316407   0.394  17.005   4.580  0.0478  0.3455 -0.0476
 1068loPI   PO416408   0.513  16.969   5.136 -0.0527 -0.1628 -0.0816
 1068loPI   GL116409   0.315  17.120   5.493 -0.1112 -0.1153  0.0876
 1068loPI   GL216410   0.140  16.746   5.452 -0.1259 -0.3047 -0.1860
 1068loPI   C1A16411   0.396  16.903   5.820 -0.1750 -0.1144 -0.0580
 1068loPI   C2A16412   0.384  16.757   6.264  0.1670 -0.0896 -0.1930
 1068loPI   C3A16413   0.296  16.764   6.655  0.0620 -0.0236  0.0818
 1068loPI   C4A16414   0.101  16.863   7.110  0.0816 -0.2273 -0.2205
 1068loPI   C5A16415  -0.050  16.561   7.423 -0.1850 -0.5906 -0.2677
 1068loPI   C6A16416  -0.019  16.141   7.612 -0.0567  0.0081  0.0187
 1068loPI   C1B16417  -0.049  16.701   5.864 -0.1457 -0.0913 -0.0795
 1068loPI   C2B16418  -0.058  16.482   6.223 -0.0893 -0.0693 -0.0141
 1068loPI   C3B16419  -0.074  16.387   6.614 -0.1712 -0.0220 -0.1496
 1068loPI   C4B16420   0.171  16.384   6.985 -0.2413  0.1109  0.1444
 1069loPI    C116421  14.714   4.232   4.773 -0.0210 -0.1789 -0.1488
 1069loPI    C216422  14.484   4.417   4.503  0.1583 -0.0501 -0.2154
 1069loPI    C316423  14.355   4.081   4.679 -0.1965  0.1665 -0.0501
 1069loPI   PO416424  14.771   4.442   4.989  0.4013 -0.2296  0.1343
 1069loPI   GL116425  14.750   4.584   5.411  0.0754  0.2968 -0.1033
 1069loPI   GL216426  14.464   4.807   5.431 -0.1312 -0.0488  0.1769
 1069loPI   C1A16427  14.627   4.293   5.736 -0.0242  0.0943 -0.1410
 1069loPI   C2A16428  14.441   4.581   5.999  0.0661 -0.2813 -0.1820
 1069loPI   C3A16429  14.304   4.737   6.434  0.2477  0.2328 -0.0366
 1069loPI   C4A16430  13.864   4.836   6.688  0.1243 -0.0432 -0.0527
 1069loPI   C5A16431  13.855   4.776   7.216  0.0946  0.0279 -0.5358
 1069loPI   C6A16432  14.191   4.870   7.446  0.3067  0.2986 -0.2411
 1069loPI   C1B16433  14.634   5.157   5.673 -0.2568 -0.1181  0.2218
 1069loPI   C2B16434  14.518   5.127   6.144  0.0081  0.2139  0.2810
 1069loPI   C3B16435  14.674   5.063   6.626  0.0006 -0.1261 -0.1245
 1069loPI   C4B16436  14.389   5.023   6.896  0.2015  0.0896  0.0409
 1070loPI    C116437  16.218  11.455   4.700  0.1480 -0.0609 -0.0563
 1070loPI    C216438  16.007  11.559   4.376  0.0658 -0.0067  0.0142
 1070loPI    C316439  16.046  11.173   4.475  0.1332 -0.0263 -0.0883
 1070loPI   PO416440  16.103  11.555   4.889 -0.1354 -0.0487  0.0247
 1070loPI   GL116441  15.853  11.514   5.269 -0.1874  0.2622 -0.1594
 1070loPI   GL216442  16.010  11.782   5.412  0.0268  0.1485 -0.2519
 1070loPI   C1A16443  15.735  11.293   5.632 -0.1043 -0.1117 -0.2041
 1070loPI   C2A16444  15.501  11.162   5.982 -0.0175 -0.0857  0.0022
 1070loPI   C3A16445  15.339  11.048   6.327 -0.4160  0.1004  0.0667
 1070loPI   C4A16446  15.139  11.026   6.697 -0.0078 -0.0822 -0.1814
 1070loPI   C5A16447  15.101  11.019   7.108 -0.1238 -0.0254 -0.0484
 1070loPI   C6A16448  15.281  11.304   7.406  0.0125  0.0634  0.0513
 1070loPI   C1B16449  16.088  11.630   5.801  0.1087  0.1883 -0.1821
 1070loPI   C2B16450  16.042  11.497   6.200 -0.0078  0.1958 -0.1987
 1070loPI   C3B16451  15.889  11.233   6.398 -0.0392  0.0631 -0.0014
 1070loPI   C4B16452  16.071  11.083   6.797 -0.0555 -0.1706 -0.0046
 1071loPI    C116453   5.350  14.254   5.163 -0.2763  0.0507 -0.0274
 1071loPI    C216454   5.420  13.896   4.999 -0.0582  0.1287 -0.1085
 1071loPI    C316455   5.502  14.229   4.794  0.0025  0.2266  0.0724
 1071loPI   PO416456   5.141  14.231   5.306 -0.3035 -0.1060  0.0361
 1071loPI   GL116457   5.234  14.498   5.621  0.1967  0.0050  0.0432
 1071loPI   GL216458   5.371  14.263   5.835  0.1236  0.0273 -0.3440
 1071loPI   C1A16459   5.577  14.709   5.812 -0.1073 -0.0169  0.1430
 1071loPI   C2A16460   5.683  14.741   6.242  0.0181 -0.1738  0.0727
 1071loPI   C3A16461   5.910  14.760   6.627  0.1124 -0.1376 -0.2189
 1071loPI   C4A16462   5.847  14.757   7.053  0.1747 -0.1565 -0.1645
 1071loPI   C5A16463   5.822  14.663   7.532  0.2430  0.0579 -0.1018
 1071loPI   C6A16464   5.773  14.222   7.616  0.0410  0.3383  0.1006
 1071loPI   C1B16465   5.836  14.285   5.825  0.1029 -0.0401  0.0231
 1071loPI   C2B16466   5.917  14.285   6.204  0.0833 -0.0385 -0.0247
 1071loPI   C3B16467   5.829  14.274   6.682 -0.1745 -0.2126 -0.0821
 1071loPI   C4B16468   5.745  14.232   7.065  0.2846  0.0122 -0.0403
 1072loPI    C116469   2.620   7.282   4.853  0.0615 -0.4047  0.0902
 1072loPI    C216470   2.990   7.322   4.706 -0.0431 -0.0717 -0.0923
 1072loPI    C316471   2.712   7.127   4.496  0.0048 -0.2485  0.0067
 1072loPI   PO416472   2.697   7.226   5.169  0.1391 -0.1600 -0.1131
 1072loPI   GL116473   2.873   7.250   5.600  0.0656 -0.1000 -0.4488
 1072loPI   GL216474   2.546   7.213   5.705 -0.0278 -0.1974 -0.1320
 1072loPI   C1A16475   2.957   7.041   5.900 -0.0599 -0.0474 -0.0305
 1072loPI   C2A16476   3.166   6.965   6.297  0.0871 -0.1603 -0.0540
 1072loPI   C3A16477   3.401   6.910   6.614 -0.0252 -0.0099  0.0971
 1072loPI   C4A16478   3.474   6.927   6.944  0.0657 -0.2768 -0.0042
 1072loPI   C5A16479   3.717   7.109   7.246  0.1769 -0.1603  0.2251
 1072loPI   C6A16480   4.025   6.882   7.546 -0.0969  0.1450 -0.1136
 1072loPI   C1B16481   2.473   7.223   6.064 -0.0540  0.0504 -0.4245
 1072loPI   C2B16482   2.139   7.160   6.418  0.0623  0.0738  0.1433
 1072loPI   C3B16483   1.880   7.159   6.816  0.0414 -0.2020  0.1014
 1072loPI   C4B16484   2.047   7.251   7.267 -0.2413 -0.1375 -0.5844
 1073loPI    C116485  14.158   8.126   4.501  0.1580  0.0604  0.1963
 1073loPI    C216486  14.269   8.272   4.146  0.0621  0.0220  0.1502
 1073loPI    C316487  14.546   8.184   4.421  0.1314  0.1275  0.1149
 1073loPI   PO416488  14.056   8.306   4.674  0.1338 -0.1293  0.2334
 1073loPI   GL116489  13.867   8.421   4.984 -0.1622  0.1161 -0.3403
 1073loPI   GL216490  13.503   8.575   4.855 -0.1500  0.1160  0.1631
 1073loPI   C1A16491  13.797   8.492   5.409  0.0798 -0.0632 -0.1492
 1073loPI   C2A16492  14.067   8.314   5.717  0.0057  0.2303  0.1274
 1073loPI   C3A16493  14.256   8.457   6.230  0.1174  0.0593 -0.0089
 1073loPI   C4A16494  13.978   8.432   6.652 -0.3035 -0.1568 -0.1515
 1073loPI   C5A16495  13.620   8.250   6.903 -0.1264  0.0953  0.2601
 1073loPI   C6A16496  13.196   8.317   6.993 -0.0932  0.0490 -0.4779
 1073loPI   C1B16497  13.365   8.540   5.227 -0.0578  0.1671 -0.1614
 1073loPI   C2B16498  13.134   8.411   5.558  0.2198 -0.0892  0.0921
 1073loPI   C3B16499  13.125   8.322   5.994 -0.2289 -0.0804 -0.2382
 1073loPI   C4B16500  13.506   8.415   6.384 -0.1077  0.2686 -0.0959
 1074loPI    C116501   6.182  11.336   4.493  0.0618  0.4437  0.1416
 1074loPI    C216502   6.008  11.353   4.134 -0.0223 -0.2529  0.1367
 1074loPI    C316503   6.404  11.397   4.166 -0.0382  0.0192 -0.0117
 1074loPI   PO416504   6.165  11.198   4.649  0.1311 -0.0416  0.1573
 1074loPI   GL116505   6.053  11.051   4.990  0.0704  0.1173  0.3651
 1074loPI   GL216506   5.709  11.074   5.088  0.1913  0.0651 -0.0186
 1074loPI   C1A16507   5.953  10.840   5.452 -0.0800 -0.0899  0.3184
 1074loPI   C2A16508   6.002  10.906   5.939 -0.0520  0.0787  0.0802
 1074loPI   C3A16509   6.020  10.870   6.442 -0.0577 -0.0425 -0.3882
 1074loPI   C4A16510   5.925  11.042   6.807  0.1086  0.1358 -0.1428
 1074loPI   C5A16511   5.889  11.487   7.127 -0.4568  0.0803  0.0897
 1074loPI   C6A16512   5.574  11.743   7.241  0.2188  0.1078 -0.0895
 1074loPI   C1B16513   5.508  11.064   5.517  0.0570  0.3671 -0.1721
 1074loPI   C2B16514   5.200  11.254   5.873  0.1703  0.2119  0.1827
 1074loPI   C3B16515   5.139  11.299   6.189  0.2029  0.1595 -0.2955
 1074loPI   C4B16516   4.924  11.179   6.695 -0.2183 -0.1248  0.0720
 1075loPI    C116517   2.378   7.961   4.557  0.1113  0.0700  0.1116
 1075loPI    C216518   2.290   7.578   4.485 -0.1501  0.1923 -0.2473
 1075loPI    C316519   2.672   7.691   4.527 -0.0873 -0.1622  0.2251
 1075loPI   PO416520   2.183   8.032   4.731 -0.0716  0.1145 -0.1937
 1075loPI   GL116521   1.955   8.207   5.070  0.4237 -0.0897  0.0520
 1075loPI   GL216522   2.089   7.987   5.238 -0.0769 -0.1935 -0.3672
 1075loPI   C1A16523   2.014   8.412   5.429  0.1348 -0.0211 -0.2066
 1075loPI   C2A16524   2.077   8.474   5.892  0.1408  0.1758  0.1425
 1075loPI   C3A16525   2.221   8.521   6.262 -0.1065  0.1431 -0.3366
 1075loPI   C4A16526   2.125   8.798   6.589  0.0266  0.0429  0.1615
 1075loPI   C5A16527   1.989   9.194   6.617  0.0613 -0.2129  0.0887
 1075loPI   C6A16528   2.174   9.523   6.843 -0.1582 -0.1506  0.1087
 1075loPI   C1B16529   2.006   7.886   5.714 -0.3691 -0.4355 -0.1136
 1075loPI   C2B16530   2.013   8.002   6.195 -0.0273  0.2909 -0.2863
 1075loPI   C3B16531   2.002   8.128   6.553 -0.2755  0.0513  0.1652
 1075loPI   C4B16532   2.012   8.401   6.892  0.1754 -0.0779  0.2759
 1076loPI    C116533  12.496   3.177   4.734 -0.0113  0.0186  0.2002
 1076loPI    C216534  12.544   2.925   4.427  0.0546  0.2087  0.0521
 1076loPI    C316535  12.284   3.228   4.398 -0.0370  0.1493  0.2355
 1076loPI   PO416536  12.449   3.083   4.951 -0.2560  0.2150 -0.0974
 1076loPI   GL116537  12.531   3.193   5.388  0.1183  0.0750 -0.0435
 1076loPI   GL216538  12.202   3.278   5.329  0.0551  0.2657 -0.0564
 1076loPI   C1A16539  12.307   2.999   5.787  0.2270 -0.2282 -0.0453
 1076loPI   C2A16540  12.145   3.176   6.155 -0.0052  0.3537  0.3645
 1076loPI   C3A16541  11.955   3.107   6.482  0.0088 -0.1797 -0.0027
 1076loPI   C4A16542  11.806   3.405   6.805 -0.0513  0.1872 -0.0385
 1076loPI   C5A16543  12.009   3.583   7.251 -0.1627  0.1415  0.1441
 1076loPI   C6A16544  12.094   3.360   7.643  0.0580 -0.3280 -0.1571
 1076loPI   C1B16545  12.159   3.514   5.636  0.0932 -0.1130 -0.1441
 1076loPI   C2B16546  12.276   3.615   6.062  0.1086 -0.0090 -0.1345
 1076loPI   C3B16547  12.017   3.668   6.471 -0.0979  0.2177 -0.0614
 1076loPI   C4B16548  11.929   3.884   6.841  0.0335 -0.0112  0.2660
 1077loPI    C116549  13.711  13.194   4.805  0.0584 -0.0660  0.0673
 1077loPI    C216550  13.584  12.853   4.638  0.1114  0.0169 -0.1451
 1077loPI    C316551  13.511  13.204   4.459  0.1152  0.1129  0.0386
 1077loPI   PO416552  13.667  13.257   5.127 -0.6757  0.2045 -0.3147
 1077loPI   GL116553  13.680  13.324   5.570  0.0403 -0.3479 -0.1410
 1077loPI   GL216554  13.830  13.052   5.541 -0.0358  0.0179 -0.4582
 1077loPI   C1A16555  13.464  13.411   5.847 -0.0317 -0.0949 -0.0397
 1077loPI   C2A16556  13.194  13.455   6.180 -0.1164  0.1127 -0.1249
 1077loPI   C3A16557  12.909  13.053   6.468  0.2061 -0.0286  0.0517
 1077loPI   C4A16558  12.828  12.790   6.784 -0.4174 -0.1158 -0.3619
 1077loPI   C5A16559  12.619  12.531   6.981  0.2502  0.2558  0.0410
 1077loPI   C6A16560  12.567  12.114   7.163 -0.1156  0.0864  0.1324
 1077loPI   C1B16561  13.837  12.729   5.809  0.1658  0.3906 -0.0474
 1077loPI   C2B16562  14.038  12.473   6.080 -0.1306 -0.1055  0.2242
 1077loPI   C3B16563  14.201  12.505   6.546 -0.0973  0.1722 -0.1264
 1077loPI   C4B16564  14.326  12.757   6.800  0.3353 -0.2223 -0.3127
 1078loPI    C116565   2.903  14.221   5.280  0.2688 -0.2398 -0.2368
 1078loPI    C216566   2.650  14.472   5.098  0.0973 -0.1000  0.1796
 1078loPI    C316567   2.795  14.155   4.901 -0.2437 -0.0713 -0.1282
 1078loPI   PO416568   2.814  14.090   5.463  0.2476  0.0629 -0.2536
 1078loPI   GL116569   3.082  14.222   5.818  0.2072  0.1471 -0.0938
 1078loPI   GL216570   2.910  14.571   5.738 -0.2137  0.0404  0.1942
 1078loPI   C1A16571   3.032  14.046   6.180 -0.1215 -0.0390  0.0231
 1078loPI   C2A16572   3.096  13.875   6.596  0.3334 -0.0809  0.0400
 1078loPI   C3A16573   3.286  13.652   6.952  0.0435 -0.1096  0.1191
 1078loPI   C4A16574   3.506  13.424   7.204 -0.0816 -0.1109 -0.1125
 1078loPI   C5A16575   3.576  13.551   7.671  0.0066 -0.0178 -0.0512
 1078loPI   C6A16576   3.313  13.796   7.909 -0.0804 -0.1466 -0.2154
 1078loPI   C1B16577   2.974  14.563   6.246 -0.2809 -0.2055 -0.1734
 1078loPI   C2B16578   3.097  14.442   6.686 -0.0918  0.0169  0.0930
 1078loPI   C3B16579   3.189  14.622   7.100  0.0636 -0.2195  0.1780
 1078loPI   C4B16580   3.523  14.538   7.321 -0.0591  0.0535 -0.0057
 1079loPI    C116581   8.897   5.827   4.647  0.0117 -0.1370 -0.0495
 1079loPI    C216582   9.116   5.605   4.396 -0.0944 -0.0506 -0.2203
 1079loPI    C316583   9.229   5.979   4.483  0.0940 -0.1742  0.0813
 1079loPI   PO416584   8.859   5.540   4.837  0.2641 -0.2147  0.0310
 1079loPI   GL116585   8.714   5.264   5.139 -0.0981  0.2546 -0.2915
 1079loPI   GL216586   8.433   5.246   5.122  0.0741  0.1365 -0.0353
 1079loPI   C1A16587   8.833   5.281   5.615  0.0543  0.0449 -0.2448
 1079loPI   C2A16588   8.800   5.194   6.105  0.2713  0.0878 -0.1031
 1079loPI   C3A16589   8.639   5.174   6.450  0.1709 -0.3547 -0.0638
 1079loPI   C4A16590   8.419   5.197   6.722  0.3813 -0.0706  0.0154
 1079loPI   C5A16591   8.079   5.339   6.965  0.2244  0.3241 -0.0069
 1079loPI   C6A16592   7.737   5.432   7.162  0.3062  0.0566 -0.3715
 1079loPI   C1B16593   8.190   4.981   5.447 -0.0349 -0.1151  0.1590
 1079loPI   C2B16594   8.325   4.757   5.882  0.0900 -0.0769 -0.2870
 1079loPI   C3B16595   8.288   4.826   6.305 -0.1249 -0.2644  0.1109
 1079loPI   C4B16596   8.257   4.733   6.729  0.0105  0.0905 -0.1071
 1080loPI    C116597   3.751  13.278   4.513 -0.3640 -0.0965 -0.0785
 1080loPI    C216598   3.461  13.537   4.420  0.1253  0.4968 -0.0156
 1080loPI    C316599   3.838  13.611   4.309  0.2534 -0.3010 -0.1690
 1080loPI   PO416600   3.713  13.273   4.889 -0.1054 -0.1978  0.0067
 1080loPI   GL116601   3.561  13.439   5.290  0.0441 -0.2645  0.2268
 1080loPI   GL216602   3.595  13.054   5.303  0.0004  0.2001  0.4141
 1080loPI   C1A16603   3.759  13.507   5.732 -0.2056  0.1579 -0.1724
 1080loPI   C2A16604   3.831  13.303   6.048 -0.0057 -0.2569 -0.1455
 1080loPI   C3A16605   4.296  13.182   6.271  0.1795  0.0135  0.1898
 1080loPI   C4A16606   4.326  13.077   6.728 -0.3260 -0.0248 -0.0476
 1080loPI   C5A16607   4.026  12.972   6.986 -0.1045 -0.2533 -0.0099
 1080loPI   C6A16608   3.910  13.029   7.357 -0.1309 -0.0774 -0.2610
 1080loPI   C1B16609   3.968  12.978   5.572 -0.0663 -0.2832 -0.0449
 1080loPI   C2B16610   3.928  12.795   5.993  0.1182 -0.1614 -0.1240
 1080loPI   C3B16611   3.605  12.524   6.258 -0.0997 -0.1932 -0.0089
 1080loPI   C4B16612   3.412  12.142   6.151  0.1785 -0.0233  0.2677
 1081loPI    C116613   7.349   1.169   4.768  0.0887 -0.3409  0.1711
 1081loPI    C216614   7.014   1.102   4.559  0.2255 -0.3127 -0.0601
 1081loPI    C316615   7.265   0.800   4.638  0.1486 -0.3333  0.1104
 1081loPI   PO416616   7.231   1.370   5.046  0.2883  0.1312  0.2321
 1081loPI   GL116617   7.122   1.413   5.441 -0.3218 -0.2683  0.0510
 1081loPI   GL216618   6.754   1.303   5.513 -0.1487 -0.3575 -0.4503
 1081loPI   C1A16619   7.314   1.616   5.717 -0.2585  0.2186 -0.0705
 1081loPI   C2A16620   7.331   1.574   6.152  0.0661 -0.0781  0.4195
 1081loPI   C3A16621   7.546   1.756   6.458 -0.0137  0.0474 -0.0265
 1081loPI   C4A16622   7.709   1.829   6.821 -0.4253  0.3303  0.0212
 1081loPI   C5A16623   8.042   1.706   7.182 -0.0387 -0.2089 -0.0841
 1081loPI   C6A16624   8.132   1.998   7.445 -0.1361  0.1010 -0.2204
 1081loPI   C1B16625   6.739   0.926   5.847 -0.3689  0.2643  0.0305
 1081loPI   C2B16626   6.443   0.693   6.137  0.1627  0.1276  0.1224
 1081loPI   C3B16627   6.247   0.639   6.493  0.0765  0.2713 -0.2152
 1081loPI   C4B16628   5.951   0.636   6.823 -0.0951 -0.1047  0.3175
 1082loPI    C116629   1.260  12.118   4.986 -0.1894  0.0097  0.0088
 1082loPI    C216630   1.602  12.115   4.778 -0.1124  0.0563  0.1333
 1082loPI    C316631   1.387  12.451   4.806 -0.2038  0.0100 -0.0008
 1082loPI   PO416632   1.329  11.961   5.223 -0.0953 -0.0357  0.0491
 1082loPI   GL116633   1.459  11.944   5.561  0.2197 -0.0549 -0.1470
 1082loPI   GL216634   1.199  11.860   5.805 -0.1229  0.1356  0.0998
 1082loPI   C1A16635   1.773  12.084   5.837  0.1014 -0.0814  0.2095
 1082loPI   C2A16636   1.902  12.192   6.240 -0.0837  0.0155  0.1633
 1082loPI   C3A16637   1.907  12.218   6.692  0.0083 -0.3310 -0.1129
 1082loPI   C4A16638   1.736  12.090   7.093 -0.0670 -0.1074  0.3393
 1082loPI   C5A16639   1.733  11.917   7.585  0.2853  0.1569 -0.0026
 1082loPI   C6A16640   1.887  11.602   7.883  0.2204  0.1586  0.0227
 1082loPI   C1B16641   1.487  11.766   6.089 -0.3178  0.0887 -0.1893
 1082loPI   C2B16642   1.728  11.719   6.382 -0.3640 -0.2800 -0.3280
 1082loPI   C3B16643   1.828  11.630   6.788 -0.2770  0.4678 -0.1570
 1082loPI   C4B16644   1.987  11.657   7.237  0.0110  0.0608  0.0870
 1083loPI    C116645   1.338   9.740   5.228 -0.1876  0.0048  0.2468
 1083loPI    C216646   1.065   9.490   5.076  0.0567 -0.1116 -0.0090
 1083loPI    C316647   1.262   9.741   4.835 -0.1284  0.2765  0.2341
 1083loPI   PO416648   1.105   9.708   5.513 -0.0821 -0.1552 -0.2594
 1083loPI   GL116649   1.037   9.654   5.891  0.1531  0.2222  0.1532
 1083loPI   GL216650   0.853   9.403   5.889  0.1306  0.1114 -0.0705
 1083loPI   C1A16651   1.237   9.746   6.256 -0.0409  0.0725 -0.4035
 1083loPI   C2A16652   1.185   9.731   6.693 -0.1218 -0.1554  0.2137
 1083loPI   C3A16653   1.256   9.839   7.076  0.3732  0.0840 -0.1142
 1083loPI   C4A16654   1.336   9.741   7.506 -0.2823 -0.3634 -0.0583
 1083loPI   C5A16655   1.242   9.393   7.549 -0.0926  0.4991  0.1428
 1083loPI   C6A16656   1.437   9.031   7.736 -0.3002  0.1472 -0.0498
 1083loPI   C1B16657   0.927   9.011   5.962 -0.0660 -0.0041  0.3730
 1083loPI   C2B16658   0.877   8.584   5.948 -0.4874  0.1626  0.0854
 1083loPI   C3B16659   0.691   8.314   6.208 -0.3951  0.2472  0.0753
 1083loPI   C4B16660   0.579   8.147   6.550 -0.3297 -0.1797  0.1083
 1084loPI    C116661  17.871   5.227   4.331  0.1361  0.0435  0.0303
 1084loPI    C216662  17.577   5.381   4.107  0.0311  0.0708  0.1859
 1084loPI    C316663  17.911   5.592   4.171  0.0475  0.0763  0.0825
 1084loPI   PO416664  17.780   5.130   4.578  0.0971 -0.1948 -0.1652
 1084loPI   GL116665  17.837   5.022   5.055 -0.3071 -0.0829 -0.1481
 1084loPI   GL216666  18.052   4.669   5.122  0.0518  0.1043 -0.0320
 1084loPI   C1A16667  17.702   5.043   5.515  0.0846  0.1347 -0.0170
 1084loPI   C2A16668  17.589   4.837   5.917 -0.0293  0.1659 -0.2108
 1084loPI   C3A16669  17.719   4.964   6.237 -0.0781 -0.0865  0.2571
 1084loPI   C4A16670  18.045   5.163   6.589 -0.2502 -0.1780 -0.0321
 1084loPI   C5A16671  18.223   5.419   6.975  0.1000 -0.0962  0.1878
 1084loPI   C6A16672  18.596   5.393   7.126  0.1689 -0.2701  0.1328
 1084loPI   C1B16673  17.802   4.551   5.484  0.0402 -0.0096 -0.4495
 1084loPI   C2B16674  17.525   4.336   5.748 -0.0044  0.0015  0.1650
 1084loPI   C3B16675  17.470   4.397   6.230  0.0747 -0.1858 -0.2727
 1084loPI   C4B16676  17.594   4.260   6.723 -0.1657  0.0287  0.0693
 1085loPI    C116677  11.212   4.179   4.538  0.1865 -0.1116 -0.0205
 1085loPI    C216678  11.345   4.047   4.184  0.0122  0.0888 -0.1631
 1085loPI    C316679  10.952   4.080   4.250  0.0461  0.1401  0.0176
 1085loPI   PO416680  11.271   4.010   4.681 -0.1690  0.1810  0.0026
 1085loPI   GL116681  11.166   4.040   5.056  0.1085  0.0303 -0.1819
 1085loPI   GL216682  11.435   3.806   5.275  0.3295  0.0807  0.1118
 1085loPI   C1A16683  11.051   4.080   5.511 -0.4139  0.2909 -0.0918
 1085loPI   C2A16684  10.955   4.218   5.899  0.4026  0.0223  0.4729
 1085loPI   C3A16685  11.074   4.240   6.314  0.2684  0.2263  0.0133
 1085loPI   C4A16686  10.991   4.231   6.727  0.0747 -0.0521 -0.0308
 1085loPI   C5A16687  10.692   4.481   6.877  0.3480  0.2307  0.0276
 1085loPI   C6A16688  10.436   4.497   7.193  0.1201 -0.1611 -0.1839
 1085loPI   C1B16689  11.393   3.787   5.769  0.0018 -0.0677  0.0597
 1085loPI   C2B16690  11.424   4.030   5.960  0.1177  0.0509 -0.1806
 1085loPI   C3B16691  11.541   4.360   6.012 -0.3655 -0.1046  0.0235
 1085loPI   C4B16692  11.373   4.570   6.327 -0.1590 -0.1564  0.2893
 1086loPI    C116693  13.609   0.285   5.107 -0.2905  0.1331  0.1236
 1086loPI    C216694  13.604   0.551   4.808 -0.2031 -0.0207 -0.0169
 1086loPI    C316695  13.319   0.272   4.832 -0.1997 -0.0200  0.0338
 1086loPI   PO416696  13.560   0.321   5.298 -0.0633 -0.1176  0.4812
 1086loPI   GL116697  13.708   0.065   5.617  0.0752 -0.1861 -0.0277
 1086loPI   GL216698  14.025   0.113   5.625  0.0892  0.1806 -0.0689
 1086loPI   C1A16699  13.891   0.296   6.057 -0.1104  0.5369 -0.2976
 1086loPI   C2A16700  13.950   0.444   6.483 -0.0097 -0.0310 -0.3359
 1086loPI   C3A16701  14.107   0.396   6.938  0.0896  0.1377  0.1490
 1086loPI   C4A16702  14.571   0.436   7.016 -0.2353  0.1502 -0.2296
 1086loPI   C5A16703  14.992   0.379   7.302 -0.1075  0.0665 -0.1470
 1086loPI   C6A16704  15.196   0.349   7.674  0.2423  0.0010 -0.3585
 1086loPI   C1B16705  14.174  -0.131   5.927 -0.0341 -0.0862  0.5091
 1086loPI   C2B16706  14.235  -0.028   6.303  0.1929  0.0315 -0.0952
 1086loPI   C3B16707  14.056  -0.043   6.715 -0.0957  0.0727  0.2682
 1086loPI   C4B16708  13.696   0.094   7.002  0.0731 -0.0277 -0.0966
 1087loPI    C116709  19.130   3.669   4.637  0.0552  0.1072 -0.1463
 1087loPI    C216710  19.423   3.673   4.365 -0.0657  0.2684 -0.2760
 1087loPI    C316711  19.135   3.396   4.345 -0.0529  0.2561 -0.2888
 1087loPI   PO416712  19.114   3.673   4.802 -0.1605  0.0217 -0.2739
 1087loPI   GL116713  19.226   3.552   5.246 -0.0081  0.2013  0.2102
 1087loPI   GL216714  19.288   3.287   5.197 -0.0583  0.0850 -0.1012
 1087loPI   C1A16715  18.820   3.775   5.519  0.0424  0.1301  0.0024
 1087loPI   C2A16716  18.603   3.609   5.853  0.1068  0.0915 -0.0099
 1087loPI   C3A16717  18.490   3.727   6.132  0.0789 -0.0792  0.0846
 1087loPI   C4A16718  18.449   3.797   6.531  0.2491 -0.1787  0.0332
 1087loPI   C5A16719  18.438   3.671   6.978  0.2923  0.0606  0.1761
 1087loPI   C6A16720  18.045   3.581   7.222  0.4936 -0.1895 -0.0529
 1087loPI   C1B16721  19.224   3.250   5.609 -0.1848  0.1450  0.0024
 1087loPI   C2B16722  19.021   3.414   5.905 -0.0614  0.0858  0.1525
 1087loPI   C3B16723  18.931   3.480   6.308 -0.0648 -0.0027 -0.2857
 1087loPI   C4B16724  18.923   3.538   6.681  0.4387 -0.1105 -0.0258
 1088loPI    C116725   5.129  19.121   4.589  0.0816 -0.1511  0.0321
 1088loPI    C216726   5.347  19.306   4.868  0.2816 -0.1689 -0.1107
 1088loPI    C316727   5.522  19.172   4.534 -0.0023  0.1033 -0.3745
 1088loPI   PO416728   4.956  19.024   4.803 -0.0827 -0.3657  0.1240
 1088loPI   GL116729   5.013  19.101   5.173  0.2136 -0.0137  0.2268
 1088loPI   GL216730   4.677  19.045   5.191 -0.1490  0.0235  0.3448
 1088loPI   C1A16731   5.124  19.123   5.592 -0.0697  0.2513  0.1038
 1088loPI   C2A16732   5.204  18.921   5.956  0.1347  0.0720 -0.3342
 1088loPI   C3A16733   5.272  19.101   6.420 -0.4700 -0.2444  0.3667
 1088loPI   C4A16734   5.522  19.186   6.693  0.3174  0.3347 -0.1075
 1088loPI   C5A16735   5.589  19.513   6.888 -0.3383  0.1338 -0.3428
 1088loPI   C6A16736   5.994  19.514   7.216 -0.1451  0.2323 -0.0283
 1088loPI   C1B16737   4.644  19.269   5.522 -0.1271  0.0738 -0.0361
 1088loPI   C2B16738   4.885  19.590   5.846 -0.0801  0.1426  0.0278
 1088loPI   C3B16739   5.107  19.538   6.202 -0.3962  0.1400 -0.0191
 1088loPI   C4B16740   5.555  19.604   6.430 -0.0774  0.1194  0.1779
 1089loPI    C116741  17.657  13.369   5.451  0.2335  0.1685 -0.2013
 1089loPI    C216742  17.512  13.280   5.090 -0.1623 -0.1732  0.0335
 1089loPI    C316743  17.364  13.591   5.293 -0.0271 -0.0575 -0.0436
 1089loPI   PO416744  18.043  13.370   5.404  0.2341  0.0868 -0.1213
 1089loPI   GL116745  18.208  13.186   5.633 -0.0683 -0.0762 -0.1425
 1089loPI   GL216746  18.463  12.953   5.888  0.3074 -0.0153 -0.1983
 1089loPI   C1A16747  18.045  13.078   6.092  0.1912 -0.0472 -0.1837
 1089loPI   C2A16748  18.098  13.012   6.540  0.0371 -0.3070 -0.0100
 1089loPI   C3A16749  18.209  13.133   6.969 -0.1441 -0.0460 -0.2173
 1089loPI   C4A16750  18.191  13.152   7.433  0.0121  0.1176  0.0152
 1089loPI   C5A16751  18.424  12.960   7.672  0.0861  0.3183 -0.3334
 1089loPI   C6A16752  18.556  12.678   7.986  0.0438  0.0711  0.0600
 1089loPI   C1B16753  18.486  12.766   6.320  0.1391 -0.0905  0.1346
 1089loPI   C2B16754  18.615  13.004   6.677 -0.0268  0.2545 -0.1326
 1089loPI   C3B16755  18.794  13.105   7.162  0.0465 -0.0312  0.0480
 1089loPI   C4B16756  19.005  13.107   7.516  0.2606 -0.0198  0.2146
 1090loPI    C116757   8.244  10.277   4.735 -0.2417  0.0455  0.1313
 1090loPI    C216758   8.027  10.306   4.401 -0.1443  0.0389  0.0669
 1090loPI    C316759   8.399  10.450   4.410 -0.0388 -0.2281  0.0787
 1090loPI   PO416760   8.192  10.157   4.886  0.1504 -0.0421 -0.1031
 1090loPI   GL116761   8.162  10.225   5.276 -0.1416 -0.1391  0.0028
 1090loPI   GL216762   8.339  10.517   5.310 -0.0687 -0.2615  0.0572
 1090loPI   C1A16763   8.370  10.101   5.633  0.0861 -0.0108  0.3121
 1090loPI   C2A16764   8.475  10.016   6.002 -0.0881 -0.3511 -0.1608
 1090loPI   C3A16765   8.489   9.955   6.425 -0.1632 -0.1190  0.0898
 1090loPI   C4A16766   8.442   9.767   6.780  0.0125 -0.0033  0.1869
 1090loPI   C5A16767   8.582   9.374   7.117 -0.2503  0.1010 -0.0530
 1090loPI   C6A16768   8.689   9.066   7.460  0.0641  0.3613  0.0279
 1090loPI   C1B16769   8.430  10.622   5.767 -0.1427 -0.3321  0.0092
 1090loPI   C2B16770   8.489  10.553   6.218  0.0360  0.0584 -0.1674
 1090loPI   C3B16771   8.623  10.367   6.731  0.3552 -0.1899  0.0930
 1090loPI   C4B16772   8.763  10.175   7.145  0.1192  0.0398  0.6157
 1091loPI    C116773   2.584  18.363   4.631  0.0669 -0.1046  0.0545
 1091loPI    C216774   2.640  18.013   4.447  0.1610 -0.1635  0.1932
 1091loPI    C316775   2.301  18.081   4.648  0.0078 -0.0553 -0.0963
 1091loPI   PO416776   2.893  18.375   4.796  0.3913  0.0539 -0.2391
 1091loPI   GL116777   3.160  18.293   5.142 -0.3371  0.0833  0.3999
 1091loPI   GL216778   2.856  18.496   5.341 -0.2929 -0.2165  0.3678
 1091loPI   C1A16779   3.427  18.431   5.529  0.0751  0.0834 -0.0516
 1091loPI   C2A16780   3.495  18.657   5.893 -0.0961 -0.1689  0.1807
 1091loPI   C3A16781   3.447  18.671   6.396 -0.2434  0.1244 -0.1745
 1091loPI   C4A16782   3.436  18.636   6.843  0.0309  0.0315 -0.0018
 1091loPI   C5A16783   3.350  18.659   7.248  0.1466  0.2093 -0.2111
 1091loPI   C6A16784   3.706  18.732   7.617 -0.0635 -0.1453 -0.1226
 1091loPI   C1B16785   2.942  18.321   5.786  0.0275  0.0499  0.0270
 1091loPI   C2B16786   3.076  18.411   6.117  0.1913 -0.4365 -0.0054
 1091loPI   C3B16787   2.931  18.522   6.576 -0.2652 -0.1004 -0.0529
 1091loPI   C4B16788   2.795  18.691   7.072  0.0023 -0.1384 -0.0192
 1092loPI    C116789   0.788   0.845   4.362 -0.1143 -0.0052  0.1705
 1092loPI    C216790   0.803   1.236   4.279  0.1895 -0.0225  0.1331
 1092loPI    C316791   0.467   1.030   4.212  0.0609  0.2095  0.0540
 1092loPI   PO416792   0.909   0.752   4.578  0.0312  0.1632  0.1370
 1092loPI   GL116793   0.849   0.884   5.016  0.1757 -0.1615 -0.0821
 1092loPI   GL216794   0.842   0.712   5.400 -0.1804  0.2462  0.1673
 1092loPI   C1A16795   0.483   1.002   5.120 -0.0321 -0.2557  0.0354
 1092loPI   C2A16796   0.263   0.952   5.575  0.2635 -0.0304  0.1322
 1092loPI   C3A16797   0.274   0.903   6.071  0.1332 -0.1581 -0.1892
 1092loPI   C4A16798   0.547   0.949   6.453 -0.2581  0.1465  0.1175
 1092loPI   C5A16799   0.521   1.056   6.839 -0.3564  0.0062 -0.2583
 1092loPI   C6A16800   0.609   1.286   7.227 -0.0457  0.1524  0.1902
 1092loPI   C1B16801   0.688   0.760   5.790 -0.0606  0.4097  0.1007
 1092loPI   C2B16802   0.757   0.585   6.177 -0.2409 -0.1077 -0.0875
 1092loPI   C3B16803   0.820   0.356   6.477  0.0281  0.1456 -0.1866
 1092loPI   C4B16804   0.849   0.472   6.976  0.0912 -0.1287  0.1030
 1093loPI    C116805  18.208  14.128   5.152 -0.1685  0.0315 -0.0343
 1093loPI    C216806  18.383  13.768   5.164 -0.1177  0.0626  0.1896
 1093loPI    C316807  18.313  13.944   4.812 -0.0575 -0.1244  0.0827
 1093loPI   PO416808  18.434  14.280   5.344  0.0713 -0.0525  0.1191
 1093loPI   GL116809  18.514  14.161   5.685 -0.2584  0.0113  0.0011
 1093loPI   GL216810  18.748  14.139   5.864  0.0772  0.1327  0.0370
 1093loPI   C1A16811  18.281  14.214   6.023  0.2648 -0.0140 -0.0664
 1093loPI   C2A16812  18.094  14.234   6.427 -0.1413  0.2637  0.1583
 1093loPI   C3A16813  18.073  14.179   6.902 -0.2749  0.2046  0.0006
 1093loPI   C4A16814  18.092  14.056   7.378  0.0462  0.5849 -0.2871
 1093loPI   C5A16815  17.723  13.878   7.487  0.2562  0.0616 -0.2362
 1093loPI   C6A16816  17.433  13.923   7.732 -0.0564 -0.0525  0.0275
 1093loPI   C1B16817  18.971  14.142   6.228  0.0704  0.0276 -0.3104
 1093loPI   C2B16818  18.961  13.951   6.667 -0.0356  0.1231  0.2175
 1093loPI   C3B16819  18.860  13.675   6.898 -0.2158  0.0587 -0.0688
 1093loPI   C4B16820  19.131  13.544   7.240 -0.3821  0.1436  0.1941
 1094loPI    C116821   1.505  14.258   5.233  0.0464  0.0415 -0.0642
 1094loPI    C216822   1.415  13.938   5.456  0.3034 -0.0209 -0.0469
 1094loPI    C316823   1.437  13.905   5.058  0.0894  0.0331 -0.0642
 1094loPI   PO416824   1.605  14.516   5.358  0.1097 -0.2817  0.0594
 1094loPI   GL116825   1.857  14.704   5.662  0.3061 -0.1675 -0.1274
 1094loPI   GL216826   1.948  14.347   5.693 -0.1887 -0.0892  0.1460
 1094loPI   C1A16827   2.039  14.969   5.964 -0.1557 -0.3528 -0.2299
 1094loPI   C2A16828   2.160  15.158   6.247 -0.0546 -0.1987  0.4054
 1094loPI   C3A16829   1.909  15.256   6.570 -0.0233  0.1253 -0.1559
 1094loPI   C4A16830   1.799  15.226   6.915  0.1048 -0.1307  0.2556
 1094loPI   C5A16831   1.473  15.234   7.330  0.0396  0.2154  0.0614
 1094loPI   C6A16832   1.641  15.547   7.606 -0.0480  0.3668  0.1810
 1094loPI   C1B16833   1.682  14.139   5.931 -0.0349 -0.1793  0.0840
 1094loPI   C2B16834   1.548  14.019   6.379 -0.1268  0.1862 -0.0372
 1094loPI   C3B16835   1.721  14.209   6.814 -0.0330 -0.3807 -0.0413
 1094loPI   C4B16836   1.790  14.322   7.222 -0.2330  0.1940  0.1961
 1095loPI    C116837   4.196   9.247   4.739  0.1861  0.2256  0.0098
 1095loPI    C216838   3.987   9.502   4.512 -0.0301  0.1888  0.1636
 1095loPI    C316839   4.134   9.166   4.352 -0.0743  0.2232  0.0499
 1095loPI   PO416840   4.299   9.487   4.915 -0.1240  0.1362  0.2141
 1095loPI   GL116841   4.540   9.555   5.173 -0.0305  0.2051 -0.0716
 1095loPI   GL216842   4.495   9.277   5.298 -0.1236  0.0335 -0.0409
 1095loPI   C1A16843   4.466   9.733   5.594  0.0705  0.2939  0.0319
 1095loPI   C2A16844   4.411   9.830   5.983 -0.2081 -0.1829 -0.0196
 1095loPI   C3A16845   4.071   9.979   6.433 -0.1317 -0.0197  0.3551
 1095loPI   C4A16846   4.104  10.080   6.848  0.0107 -0.0956 -0.1204
 1095loPI   C5A16847   4.299   9.768   7.089 -0.3290  0.1075  0.0449
 1095loPI   C6A16848   4.541   9.558   7.382  0.1934 -0.0260  0.0617
 1095loPI   C1B16849   4.482   9.233   5.759 -0.0043 -0.3558 -0.1158
 1095loPI   C2B16850   4.717   9.397   6.157 -0.1113  0.2761  0.2529
 1095loPI   C3B16851   4.586   9.668   6.567 -0.2348  0.0599 -0.1184
 1095loPI   C4B16852   4.777   9.698   6.962 -0.0055 -0.2401  0.2846
 1096loPI    C116853  16.905  12.951   5.149 -0.2311 -0.0875 -0.0540
 1096loPI    C216854  17.116  12.902   4.813 -0.0596  0.0513  0.0317
 1096loPI    C316855  16.742  12.762   4.837  0.0474 -0.2650 -0.0954
 1096loPI   PO416856  17.036  13.172   5.362 -0.0425 -0.0739  0.2816
 1096loPI   GL116857  17.245  13.163   5.682  0.4339  0.0880 -0.2882
 1096loPI   GL216858  17.097  13.161   5.989 -0.0397 -0.0193 -0.3432
 1096loPI   C1A16859  17.621  13.296   5.999  0.2831 -0.0515 -0.0290
 1096loPI   C2A16860  17.603  13.271   6.416  0.3806 -0.0673 -0.0552
 1096loPI   C3A16861  17.765  13.266   6.860 -0.1969  0.1438  0.1288
 1096loPI   C4A16862  17.778  12.938   7.183  0.0657 -0.0364 -0.0531
 1096loPI   C5A16863  17.545  12.801   7.576  0.2926 -0.1898 -0.0752
 1096loPI   C6A16864  17.344  12.669   7.982 -0.5319  0.1956 -0.0759
 1096loPI   C1B16865  17.042  12.941   6.443 -0.0968  0.4751 -0.2553
 1096loPI   C2B16866  16.866  12.847   6.886 -0.2974 -0.2305  0.0979
 1096loPI   C3B16867  16.675  13.020   7.207 -0.1735 -0.1954 -0.1186
 1096loPI   C4B16868  16.715  13.296   7.534  0.4205  0.1426  0.1148
 1097loPI    C116869  18.265  16.595   4.753 -0.0463  0.0623 -0.0806
 1097loPI    C216870  18.187  16.346   4.450  0.1694  0.0189 -0.1026
 1097loPI    C316871  18.318  16.717   4.376 -0.0680  0.1119 -0.0676
 1097loPI   PO416872  18.140  16.647   4.968 -0.1862  0.1039 -0.0903
 1097loPI   GL116873  18.200  16.696   5.396  0.3457  0.0136  0.2602
 1097loPI   GL216874  17.991  16.876   5.393  0.0792  0.0897 -0.0234
 1097loPI   C1A16875  18.013  16.534   5.780  0.0453 -0.0117  0.1306
 1097loPI   C2A16876  17.861  16.409   6.138  0.0545 -0.0829 -0.0705
 1097loPI   C3A16877  17.846  16.495   6.566  0.1142  0.0271  0.0757
 1097loPI   C4A16878  17.886  16.335   6.975  0.0821 -0.3502  0.3318
 1097loPI   C5A16879  18.065  16.303   7.450 -0.0761 -0.4234  0.1296
 1097loPI   C6A16880  18.017  16.460   7.928  0.2353 -0.0027 -0.1826
 1097loPI   C1B16881  18.187  17.052   5.768 -0.0508 -0.3742  0.1627
 1097loPI   C2B16882  18.243  17.071   6.201 -0.2563  0.1833 -0.2015
 1097loPI   C3B16883  18.267  17.056   6.648 -0.1139 -0.1073  0.0825
 1097loPI   C4B16884  17.972  16.814   6.975  0.0396  0.2389 -0.0101
 1098loPI    C116885  12.163   1.610   4.976  0.0354  0.2611 -0.0631
 1098loPI    C216886  11.845   1.819   4.853 -0.2865  0.1029  0.4662
 1098loPI    C316887  11.867   1.426   4.780 -0.0538  0.1701  0.1535
 1098loPI   PO416888  12.216   1.861   5.159  0.0272  0.7169 -0.0753
 1098loPI   GL116889  12.114   1.916   5.549  0.1559 -0.0820 -0.0538
 1098loPI   GL216890  11.861   1.901   5.620  0.0478 -0.4219  0.2222
 1098loPI   C1A16891  12.280   2.010   6.005  0.1856  0.2929 -0.0584
 1098loPI   C2A16892  12.172   1.815   6.366 -0.0384 -0.2541  0.2202
 1098loPI   C3A16893  12.088   1.528   6.640  0.1010 -0.2704  0.0312
 1098loPI   C4A16894  12.205   1.132   6.947 -0.1619 -0.0818 -0.0187
 1098loPI   C5A16895  12.095   0.757   7.082  0.0758 -0.2175 -0.0135
 1098loPI   C6A16896  11.970   0.535   7.411  0.1308  0.0215 -0.1106
 1098loPI   C1B16897  11.762   1.845   6.009  0.0487 -0.2450 -0.0931
 1098loPI   C2B16898  11.689   1.673   6.348  0.2188 -0.0514 -0.2252
 1098loPI   C3B16899  11.572   1.575   6.809  0.1875  0.0272  0.4532
 1098loPI   C4B16900  11.353   1.537   7.254 -0.0351  0.1405  0.0060
 1099loPI    C116901  18.463  12.268   5.275  0.1047 -0.1126 -0.0445
 1099loPI    C216902  18.319  12.084   4.951  0.0116 -0.0420 -0.0435
 1099loPI    C316903  18.492  12.443   4.917 -0.3243  0.1317  0.0330
 1099loPI   PO416904  18.180  12.215   5.434 -0.0214 -0.0176  0.1498
 1099loPI   GL116905  18.018  11.978   5.657  0.1976  0.2722 -0.1579
 1099loPI   GL216906  17.841  11.751   5.664 -0.2719  0.0561  0.2375
 1099loPI   C1A16907  18.149  11.965   6.117 -0.1826 -0.1091  0.0637
 1099loPI   C2A16908  18.429  12.163   6.359 -0.1270 -0.0541  0.3488
 1099loPI   C3A16909  18.582  12.410   6.705  0.2857 -0.0641 -0.2269
 1099loPI   C4A16910  18.756  12.407   7.094  0.1821  0.4935  0.0325
 1099loPI   C5A16911  18.831  12.654   7.527 -0.1917 -0.1626  0.5326
 1099loPI   C6A16912  19.043  12.808   7.917 -0.1725 -0.1172 -0.1842
 1099loPI   C1B16913  17.651  11.683   6.070 -0.1412 -0.0167 -0.1410
 1099loPI   C2B16914  17.896  11.637   6.468 -0.0281  0.2675 -0.5239
 1099loPI   C3B16915  18.111  11.711   6.922 -0.3381 -0.0202 -0.0417
 1099loPI   C4B16916  18.550  11.931   6.977 -0.3075 -0.1851 -0.2406
 1100loPI    C116917  14.570  10.460   4.731  0.0085  0.2745 -0.0204
 1100loPI    C216918  14.864  10.347   4.485 -0.0693 -0.1853  0.0883
 1100loPI    C316919  14.567  10.579   4.349  0.1368 -0.0408 -0.1227
 1100loPI   PO416920  14.684  10.501   4.938 -0.1413 -0.1275  0.1727
 1100loPI   GL116921  14.755  10.644   5.276  0.1284  0.1445  0.1637
 1100loPI   GL216922  14.623  10.887   5.408  0.0428  0.0499 -0.0642
 1100loPI   C1A16923  15.038  10.534   5.627 -0.0603 -0.2118  0.1139
 1100loPI   C2A16924  15.238  10.509   6.045 -0.4186 -0.2177  0.1016
 1100loPI   C3A16925  15.250  10.510   6.494  0.2467  0.0933 -0.2520
 1100loPI   C4A16926  15.435  10.655   6.846 -0.3611  0.0726 -0.0300
 1100loPI   C5A16927  15.539  10.761   7.219  0.1761 -0.1963  0.0070
 1100loPI   C6A16928  15.682  11.041   7.464  0.1710  0.2045  0.0052
 1100loPI   C1B16929  14.467  10.735   5.791  0.1232 -0.0505 -0.1658
 1100loPI   C2B16930  14.318  10.642   6.215  0.3074  0.0405  0.1479
 1100loPI   C3B16931  14.263  10.579   6.664 -0.0093  0.0087  0.2913
 1100loPI   C4B16932  14.278  10.409   7.034 -0.0904  0.0101  0.0606
 1101loPI    C116933  11.137   8.928   4.270  0.0811  0.2068  0.0883
 1101loPI    C216934  11.235   9.195   3.989  0.0658  0.0622 -0.0557
 1101loPI    C316935  10.886   9.001   3.968  0.0832  0.0202  0.0404
 1101loPI   PO416936  11.159   9.091   4.525  0.1075 -0.3861 -0.1204
 1101loPI   GL116937  11.350   9.009   4.954 -0.2362  0.1402 -0.1987
 1101loPI   GL216938  11.172   8.746   5.136  0.1118 -0.3342 -0.2056
 1101loPI   C1A16939  11.357   9.175   5.412 -0.1487  0.2214  0.0244
 1101loPI   C2A16940  11.401   9.311   5.914 -0.2072 -0.1255 -0.1636
 1101loPI   C3A16941  11.345   9.442   6.355 -0.1106  0.0589  0.0578
 1101loPI   C4A16942  11.334   9.496   6.782 -0.0067  0.1092 -0.3929
 1101loPI   C5A16943  11.023   9.387   7.117  0.0875 -0.1919 -0.0453
 1101loPI   C6A16944  10.690   9.326   7.484  0.1431 -0.0729  0.2334
 1101loPI   C1B16945  11.400   8.642   5.454  0.3049 -0.2098 -0.1269
 1101loPI   C2B16946  11.415   8.773   5.854  0.3700  0.5434  0.0069
 1101loPI   C3B16947  11.194   8.962   6.292  0.2313  0.1101  0.4359
 1101loPI   C4B16948  10.969   8.845   6.630  0.1392 -0.0179  0.2268
 1102loPI    C116949  10.731   8.359   4.677  0.0582 -0.0669  0.1097
 1102loPI    C216950  10.989   8.665   4.684  0.1020 -0.1051  0.1746
 1102loPI    C316951  10.741   8.619   4.373  0.1407 -0.0410  0.1343
 1102loPI   PO416952  10.614   8.239   4.818  0.0693 -0.1581 -0.0885
 1102loPI   GL116953  10.486   7.985   5.135 -0.1042  0.3536  0.1095
 1102loPI   GL216954  10.246   7.727   5.167  0.0508 -0.0283  0.2884
 1102loPI   C1A16955  10.672   7.967   5.538  0.2848  0.2520  0.4006
 1102loPI   C2A16956  10.800   8.078   5.890  0.3373  0.2990  0.0469
 1102loPI   C3A16957  10.821   7.888   6.300 -0.0038 -0.2183  0.1738
 1102loPI   C4A16958  11.085   7.977   6.730 -0.1520  0.0874  0.0940
 1102loPI   C5A16959  11.177   7.753   7.137  0.0388 -0.1519  0.1567
 1102loPI   C6A16960  11.381   7.377   7.430 -0.0072 -0.0193  0.1063
 1102loPI   C1B16961  10.150   7.827   5.529 -0.3459  0.1933 -0.1846
 1102loPI   C2B16962  10.297   8.085   5.884  0.1619  0.0572 -0.1405
 1102loPI   C3B16963  10.450   8.185   6.258 -0.2318  0.1925  0.2457
 1102loPI   C4B16964  10.820   8.407   6.510  0.1330  0.0425  0.1644
 1103loPI    C116965  15.467  12.438   4.470 -0.1231  0.1331 -0.0581
 1103loPI    C216966  15.354  12.054   4.459  0.1195  0.0582 -0.0017
 1103loPI    C316967  15.450  12.244   4.120  0.2035  0.0068 -0.0068
 1103loPI   PO416968  15.224  12.560   4.560  0.0301  0.4566  0.0652
 1103loPI   GL116969  15.032  12.632   4.907  0.0025 -0.1892  0.0599
 1103loPI   GL216970  14.856  12.460   5.176  0.1716 -0.2719 -0.2066
 1103loPI   C1A16971  15.257  12.732   5.337 -0.1904  0.2185  0.2744
 1103loPI   C2A16972  15.242  12.773   5.766 -0.2033 -0.1191 -0.1993
 1103loPI   C3A16973  15.240  12.785   6.273  0.0396 -0.1988  0.0310
 1103loPI   C4A16974  15.188  12.973   6.632 -0.0951 -0.2223 -0.1705
 1103loPI   C5A16975  15.244  13.226   6.957 -0.0431 -0.2854 -0.1788
 1103loPI   C6A16976  15.351  13.547   7.187 -0.1822  0.0281 -0.2294
 1103loPI   C1B16977  14.869  12.476   5.624 -0.1778 -0.0807  0.3037
 1103loPI   C2B16978  14.769  12.599   6.045 -0.0000  0.1266  0.4780
 1103loPI   C3B16979  14.812  12.671   6.509  0.2061  0.0630 -0.2782
 1103loPI   C4B16980  14.824  12.842   6.946 -0.2806  0.2171 -0.0221
 1104loPI    C116981  13.557  11.570   4.604 -0.1869 -0.0678  0.1808
 1104loPI    C216982  13.598  11.911   4.399  0.2183 -0.1590  0.1007
 1104loPI    C316983  13.276  11.681   4.342  0.0263  0.1227  0.0289
 1104loPI   PO416984  13.658  11.691   4.853 -0.4433  0.3037  0.0012
 1104loPI   GL116985  13.539  11.787   5.256  0.0632 -0.2473  0.0672
 1104loPI   GL216986  13.732  11.586   5.315  0.1253  0.1917  0.0006
 1104loPI   C1A16987  13.230  11.890   5.494  0.1814  0.1221 -0.0218
 1104loPI   C2A16988  13.098  12.122   5.894  0.0666 -0.0688  0.1394
 1104loPI   C3A16989  12.963  11.851   6.257  0.3483  0.1113  0.0252
 1104loPI   C4A16990  12.805  11.711   6.515 -0.1596 -0.0917 -0.1510
 1104loPI   C5A16991  12.788  11.717   7.025 -0.1790  0.1280 -0.1733
 1104loPI   C6A16992  12.735  11.626   7.425  0.0046 -0.0826 -0.1048
 1104loPI   C1B16993  13.670  11.686   5.754  0.1544 -0.1479 -0.0012
 1104loPI   C2B16994  13.502  11.815   6.166 -0.2346  0.1812 -0.0539
 1104loPI   C3B16995  13.343  11.901   6.517 -0.2831 -0.2522  0.0593
 1104loPI   C4B16996  13.122  12.071   6.959  0.0970 -0.0569  0.0358
 1105loPI    C116997  12.018   9.614   4.229  0.1408 -0.1318 -0.2543
 1105loPI    C216998  11.697   9.385   4.163  0.1033 -0.1430 -0.0408
 1105loPI    C316999  11.943   9.477   3.861 -0.1855 -0.0036 -0.2382
 1105loPI   PO417000  12.121   9.517   4.484  0.5594  0.0200 -0.1479
 1105loPI   GL117001  12.115   9.418   4.868 -0.1126  0.0044  0.1376
 1105loPI   GL217002  12.045   9.747   5.004 -0.2587 -0.1326  0.0954
 1105loPI   C1A17003  12.394   9.590   5.337  0.1088  0.1765 -0.0206
 1105loPI   C2A17004  12.716   9.616   5.650 -0.5502  0.1879 -0.1970
 1105loPI   C3A17005  13.019   9.456   6.022  0.2399 -0.4103  0.0430
 1105loPI   C4A17006  13.123   9.677   6.479  0.2762 -0.0813  0.2668
 1105loPI   C5A17007  13.425   9.746   6.751 -0.1486  0.1776  0.0582
 1105loPI   C6A17008  13.618   9.795   7.131 -0.0297 -0.0819 -0.2262
 1105loPI   C1B17009  12.001   9.855   5.503 -0.0991 -0.0453  0.1450
 1105loPI   C2B17010  12.195   9.582   5.836  0.0952  0.0916  0.1472
 1105loPI   C3B17011  11.932   9.442   6.268  0.0390 -0.0194  0.0915
 1105loPI   C4B17012  11.674   9.030   6.238 -0.1719 -0.0760  0.3883
 1106loPI    C117013  15.597   4.437   4.718  0.0441 -0.0006 -0.0017
 1106loPI    C217014  15.210   4.476   4.627  0.0214  0.0418  0.1116
 1106loPI    C317015  15.467   4.768   4.534  0.0864 -0.1292 -0.2688
 1106loPI   PO417016  15.596   4.426   4.925  0.1234 -0.1131  0.0423
 1106loPI   GL117017  15.239   4.285   5.220 -0.2074 -0.0704  0.1084
 1106loPI   GL217018  14.992   4.166   5.379 -0.1539 -0.1787 -0.0402
 1106loPI   C1A17019  15.440   3.917   5.292 -0.0784  0.2370 -0.2668
 1106loPI   C2A17020  15.645   3.711   5.786 -0.0693  0.1809 -0.1692
 1106loPI   C3A17021  15.974   3.725   6.184  0.0200  0.0422  0.1517
 1106loPI   C4A17022  16.209   3.670   6.515 -0.1824 -0.0895 -0.3407
 1106loPI   C5A17023  16.239   3.526   6.884 -0.0711 -0.1057 -0.0125
 1106loPI   C6A17024  16.146   3.580   7.316  0.1832  0.4262 -0.2596
 1106loPI   C1B17025  15.172   4.553   5.632 -0.2002  0.0686 -0.1028
 1106loPI   C2B17026  15.509   4.671   5.807 -0.2496 -0.0124 -0.1610
 1106loPI   C3B17027  15.983   4.760   5.924 -0.0067  0.0443  0.4117
 1106loPI   C4B17028  16.397   4.558   5.940  0.1005 -0.2074  0.1095
 1107loPI    C117029  17.767  10.228   4.663 -0.0011  0.0399 -0.1352
 1107loPI    C217030  17.795  10.624   4.616 -0.2177  0.0626 -0.0849
 1107loPI    C317031  18.082  10.385   4.475  0.0685  0.2578  0.1549
 1107loPI   PO417032  17.626  10.191   4.929 -0.0626  0.1826  0.0358
 1107loPI   GL117033  17.389  10.176   5.393 -0.0166  0.0716  0.1601
 1107loPI   GL217034  17.133  10.510   5.349  0.2083 -0.3372 -0.0282
 1107loPI   C1A17035  17.503  10.261   5.883  0.0251 -0.0332 -0.3266
 1107loPI   C2A17036  17.416  10.162   6.340 -0.0549  0.0906 -0.2132
 1107loPI   C3A17037  17.473  10.348   6.852 -0.3135 -0.0343  0.1682
 1107loPI   C4A17038  17.448  10.525   7.235  0.0668 -0.1688  0.2259
 1107loPI   C5A17039  17.237  10.730   7.531  0.1035 -0.2444  0.2605
 1107loPI   C6A17040  17.474  10.675   7.912 -0.1462 -0.0745  0.3197
 1107loPI   C1B17041  17.035  10.685   5.716 -0.1036  0.2213 -0.1123
 1107loPI   C2B17042  17.002  10.829   6.178 -0.0379 -0.3177 -0.0364
 1107loPI   C3B17043  16.938  11.011   6.617  0.0535  0.0666 -0.0017
 1107loPI   C4B17044  16.979  11.424   6.879 -0.0196  0.1008 -0.0538
 1108loPI    C117045  14.185   9.634   4.296  0.0799  0.0880  0.1662
 1108loPI    C217046  13.824   9.711   4.451  0.0642  0.0482  0.1495
 1108loPI    C317047  13.867   9.664   4.056  0.1348  0.3314  0.1209
 1108loPI   PO417048  14.308   9.506   4.551 -0.2211  0.2238 -0.0057
 1108loPI   GL117049  14.335   9.148   4.993  0.1394  0.1927  0.0771
 1108loPI   GL217050  14.463   9.497   5.002 -0.2054  0.1060 -0.0246
 1108loPI   C1A17051  14.041   9.396   5.376  0.1201  0.2400 -0.1349
 1108loPI   C2A17052  13.923   9.191   5.795  0.0532  0.5104  0.1502
 1108loPI   C3A17053  13.919   9.005   6.250  0.2380 -0.0841 -0.1777
 1108loPI   C4A17054  13.648   8.902   6.532  0.0519 -0.1728  0.0397
 1108loPI   C5A17055  13.413   8.782   6.694 -0.0527  0.1599  0.0078
 1108loPI   C6A17056  12.925   8.860   6.909 -0.0555 -0.1425 -0.3397
 1108loPI   C1B17057  14.604   9.414   5.453 -0.1878  0.2091 -0.0744
 1108loPI   C2B17058  14.370   9.398   5.766  0.1389 -0.2874  0.1620
 1108loPI   C3B17059  14.325   9.304   6.045  0.0492 -0.1826  0.0593
 1108loPI   C4B17060  14.242   9.396   6.373  0.1111 -0.2139  0.1202
 1109loPI    C117061  12.900   4.417   4.470 -0.2399  0.0221 -0.0236
 1109loPI    C217062  12.601   4.631   4.312 -0.1506  0.0602 -0.1422
 1109loPI    C317063  12.613   4.234   4.260 -0.3511  0.0153  0.1326
 1109loPI   PO417064  12.900   4.550   4.762  0.3480  0.1401 -0.0871
 1109loPI   GL117065  13.094   4.439   5.092  0.3483  0.1402  0.0950
 1109loPI   GL217066  13.319   4.241   5.271  0.0458 -0.1369 -0.2207
 1109loPI   C1A17067  13.137   4.722   5.555  0.0301  0.1077 -0.2627
 1109loPI   C2A17068  13.183   4.644   5.969  0.1149  0.0556 -0.2314
 1109loPI   C3A17069  13.076   4.343   6.292  0.1535  0.1786  0.0826
 1109loPI   C4A17070  13.103   4.225   6.620  0.1472 -0.2676  0.0802
 1109loPI   C5A17071  13.237   4.304   7.017 -0.2884  0.0251 -0.2457
 1109loPI   C6A17072  13.033   4.518   7.324 -0.0341 -0.1472 -0.0726
 1109loPI   C1B17073  13.411   4.217   5.719 -0.2436 -0.2057  0.0554
 1109loPI   C2B17074  13.636   4.451   5.982 -0.4210 -0.0689  0.2660
 1109loPI   C3B17075  13.606   4.433   6.476 -0.1022  0.0083  0.2864
 1109loPI   C4B17076  13.622   4.188   6.723 -0.0727  0.1070 -0.1168
 1110loPI    C117077  12.623  17.831   5.284 -0.3160  0.1540 -0.1372
 1110loPI    C217078  12.320  17.573   5.327 -0.2621  0.1100 -0.0174
 1110loPI    C317079  12.389  17.743   4.971 -0.1636 -0.2083 -0.1542
 1110loPI   PO417080  12.626  18.055   5.418  0.1152  0.2704  0.2900
 1110loPI   GL117081  12.857  18.229   5.749 -0.1792  0.3479  0.1487
 1110loPI   GL217082  12.698  18.445   5.897 -0.0202  0.1069  0.0789
 1110loPI   C1A17083  12.576  18.260   6.296  0.0493 -0.0439  0.1203
 1110loPI   C2A17084  12.678  18.668   6.735 -0.3710 -0.1404  0.4487
 1110loPI   C3A17085  12.829  19.019   6.981 -0.0666 -0.2231 -0.1056
 1110loPI   C4A17086  13.204  19.260   7.117  0.0982 -0.3209  0.0719
 1110loPI   C5A17087  13.440  19.591   7.372  0.1226  0.0980 -0.0544
 1110loPI   C6A17088  13.667  19.859   7.752 -0.1333  0.1834 -0.1082
 1110loPI   C1B17089  12.545  18.756   6.249  0.1154 -0.2288  0.0979
 1110loPI   C2B17090  12.362  19.064   6.625 -0.1696 -0.0390 -0.1246
 1110loPI   C3B17091  12.333  19.296   6.975  0.0987 -0.3401  0.2676
 1110loPI   C4B17092  11.998  19.494   7.018 -0.1384  0.1225 -0.1713
 1111loPI    C117093   9.697  17.266   4.989 -0.0090 -0.1273 -0.1065
 1111loPI    C217094   9.832  17.642   4.963 -0.2356 -0.0396 -0.0379
 1111loPI    C317095  10.049  17.340   4.814 -0.0490  0.1169 -0.0863
 1111loPI   PO417096   9.570  17.298   5.243  0.1464  0.2661 -0.0213
 1111loPI   GL117097   9.379  17.236   5.588 -0.0125 -0.0339  0.5855
 1111loPI   GL217098   9.146  17.505   5.456  0.1310  0.0580  0.1796
 1111loPI   C1A17099   9.434  17.186   6.017  0.0796 -0.0276  0.3764
 1111loPI   C2A17100   9.485  16.983   6.344 -0.2498 -0.2136  0.0287
 1111loPI   C3A17101   9.480  16.792   6.797  0.0512 -0.4456 -0.2118
 1111loPI   C4A17102   9.632  16.651   7.120 -0.1766 -0.1705 -0.2515
 1111loPI   C5A17103   9.790  16.741   7.569 -0.1976  0.1246 -0.0101
 1111loPI   C6A17104   9.760  16.712   7.990 -0.1031 -0.0837  0.0659
 1111loPI   C1B17105   9.179  17.555   5.892  0.1078 -0.0926 -0.0116
 1111loPI   C2B17106   9.211  17.597   6.314  0.1686  0.0727  0.0093
 1111loPI   C3B17107   9.146  17.677   6.748 -0.0676  0.1772 -0.1890
 1111loPI   C4B17108   8.862  17.665   7.171 -0.0513 -0.2299  0.0048
 1112loPI    C117109   4.934   7.246   4.874  0.1244 -0.0200  0.0673
 1112loPI    C217110   5.144   7.218   4.536  0.2207  0.4119  0.0856
 1112loPI    C317111   4.789   7.402   4.535  0.0665  0.1209  0.1558
 1112loPI   PO417112   4.967   7.013   4.931 -0.0596  0.1836 -0.3629
 1112loPI   GL117113   5.267   6.946   5.366 -0.1296 -0.0378 -0.1683
 1112loPI   GL217114   5.505   6.791   5.233 -0.0719  0.0640 -0.0313
 1112loPI   C1A17115   5.553   7.220   5.548 -0.0426  0.0226 -0.0459
 1112loPI   C2A17116   5.549   7.630   5.863  0.1053 -0.3116 -0.1280
 1112loPI   C3A17117   5.513   7.649   6.352 -0.0556  0.0617 -0.0087
 1112loPI   C4A17118   5.746   7.727   6.667  0.4449 -0.0862  0.0018
 1112loPI   C5A17119   5.793   7.626   7.044  0.1163  0.0958 -0.0254
 1112loPI   C6A17120   5.821   7.276   7.371  0.0621 -0.3203  0.1833
 1112loPI   C1B17121   5.762   6.398   5.415  0.0443 -0.0053 -0.2732
 1112loPI   C2B17122   5.791   6.167   5.883 -0.1830  0.0743 -0.0559
 1112loPI   C3B17123   5.707   5.922   6.101 -0.0457  0.3196  0.3040
 1112loPI   C4B17124   5.675   5.891   6.485  0.1104 -0.0943 -0.1784
 1113loPI    C117125   2.912   8.707   4.856 -0.0875  0.0541 -0.0635
 1113loPI    C217126   3.279   8.550   4.827 -0.1156 -0.0393  0.0791
 1113loPI    C317127   3.035   8.548   4.510 -0.0337 -0.0780  0.0157
 1113loPI   PO417128   2.839   8.545   5.066 -0.1276  0.2809  0.1875
 1113loPI   GL117129   2.623   8.586   5.462 -0.0729  0.2355 -0.0559
 1113loPI   GL217130   2.553   8.305   5.554 -0.3692  0.0232 -0.0300
 1113loPI   C1A17131   2.697   8.611   5.952 -0.0317 -0.1727 -0.0258
 1113loPI   C2A17132   2.716   8.562   6.315  0.0446  0.0434 -0.1390
 1113loPI   C3A17133   2.477   8.497   6.696  0.0248  0.1135 -0.1837
 1113loPI   C4A17134   2.410   8.703   7.088  0.1224 -0.0878  0.1841
 1113loPI   C5A17135   2.344   8.874   7.513  0.0615  0.0148 -0.0479
 1113loPI   C6A17136   2.315   9.201   7.655 -0.0784 -0.2310  0.0671
 1113loPI   C1B17137   2.476   8.174   6.008 -0.1482  0.0696  0.2454
 1113loPI   C2B17138   2.528   8.093   6.361  0.2396 -0.0424  0.1489
 1113loPI   C3B17139   2.864   8.003   6.655  0.0011  0.0501 -0.0751
 1113loPI   C4B17140   2.925   7.809   7.064 -0.0409  0.3473  0.0891
 1114loPI    C117141  11.870   2.709   5.039  0.0581  0.1768  0.0722
 1114loPI    C217142  11.473   2.688   5.083  0.0740 -0.1393  0.0940
 1114loPI    C317143  11.630   2.843   4.748 -0.0688 -0.1884  0.0034
 1114loPI   PO417144  11.955   2.818   5.211  0.3564  0.3739  0.0106
 1114loPI   GL117145  11.805   2.739   5.565  0.2301  0.1910  0.2100
 1114loPI   GL217146  12.043   2.462   5.593  0.3305 -0.1984 -0.0494
 1114loPI   C1A17147  11.753   2.826   5.877 -0.1556  0.1142  0.0788
 1114loPI   C2A17148  11.763   2.704   6.285 -0.0012  0.1282 -0.1224
 1114loPI   C3A17149  11.979   2.639   6.587 -0.1123 -0.0626 -0.1454
 1114loPI   C4A17150  12.211   2.658   6.871  0.1922 -0.0421  0.3445
 1114loPI   C5A17151  12.564   2.428   7.208  0.0231 -0.2094  0.1756
 1114loPI   C6A17152  12.908   2.340   7.185 -0.1615 -0.0096 -0.0278
 1114loPI   C1B17153  12.166   2.516   6.098 -0.0776  0.1502  0.0195
 1114loPI   C2B17154  12.324   2.315   6.484  0.0788  0.1213 -0.1321
 1114loPI   C3B17155  12.273   2.088   6.856 -0.1429 -0.1387  0.0854
 1114loPI   C4B17156  12.399   1.952   7.235  0.2586  0.0111  0.1257
 1115loPI    C117157   3.927   8.935   4.995 -0.0637 -0.4478 -0.0081
 1115loPI    C217158   3.761   9.019   4.641 -0.2705 -0.2008  0.1442
 1115loPI    C317159   4.068   8.764   4.662  0.1087  0.2016 -0.2844
 1115loPI   PO417160   3.950   9.098   5.198  0.1184  0.0355 -0.0233
 1115loPI   GL117161   4.036   9.008   5.561 -0.4835  0.1658  0.1148
 1115loPI   GL217162   3.712   8.946   5.642  0.2067  0.1137 -0.0040
 1115loPI   C1A17163   4.087   8.956   5.943 -0.1691 -0.3081 -0.0178
 1115loPI   C2A17164   4.037   8.880   6.335 -0.0632 -0.1184 -0.0955
 1115loPI   C3A17165   3.926   8.919   6.744 -0.0530 -0.0987 -0.2000
 1115loPI   C4A17166   3.833   8.808   7.205  0.1882  0.2229 -0.3129
 1115loPI   C5A17167   3.865   8.960   7.705  0.1176 -0.1868 -0.0246
 1115loPI   C6A17168   3.769   9.127   8.209 -0.3205 -0.1174 -0.2098
 1115loPI   C1B17169   3.599   9.088   5.965 -0.1537 -0.1527  0.3143
 1115loPI   C2B17170   3.619   9.243   6.411  0.0364 -0.1297  0.1350
 1115loPI   C3B17171   3.426   8.991   6.709 -0.0225 -0.0077  0.1789
 1115loPI   C4B17172   3.426   8.611   7.018 -0.4042  0.0213 -0.0371
 1116loPI    C117173  16.188   0.798   4.890 -0.0541  0.0875  0.2343
 1116loPI    C217174  16.572   0.702   4.833 -0.1112  0.1299 -0.2621
 1116loPI    C317175  16.313   0.424   4.959  0.0630  0.0807 -0.0048
 1116loPI   PO417176  16.171   0.977   5.115 -0.1051  0.0475 -0.1156
 1116loPI   GL117177  16.316   1.101   5.462 -0.0253  0.0513  0.1651
 1116loPI   GL217178  16.604   1.174   5.579 -0.0655 -0.2565  0.0578
 1116loPI   C1A17179  16.092   1.149   5.907  0.0204  0.0568  0.1821
 1116loPI   C2A17180  16.078   1.006   6.335  0.1194  0.2382  0.1913
 1116loPI   C3A17181  16.153   0.807   6.776  0.3311  0.2474 -0.0022
 1116loPI   C4A17182  16.256   0.563   7.112 -0.0381  0.2419  0.0569
 1116loPI   C5A17183  16.151   0.159   7.258 -0.0288  0.1567  0.1603
 1116loPI   C6A17184  16.025  -0.258   7.406  0.1255  0.0492 -0.0624
 1116loPI   C1B17185  16.583   1.175   6.054 -0.2496  0.2065  0.0457
 1116loPI   C2B17186  16.516   1.157   6.452  0.2274  0.0828  0.1664
 1116loPI   C3B17187  16.545   1.360   6.894 -0.0598  0.3150  0.3050
 1116loPI   C4B17188  16.774   1.671   7.047  0.3532  0.2844  0.0284
 1117loPI    C117189  18.562  16.129   5.035 -0.1004 -0.0452  0.0426
 1117loPI    C217190  18.500  16.043   4.649  0.0932  0.0074 -0.0010
 1117loPI    C317191  18.394  15.780   4.931  0.0782 -0.0910 -0.0974
 1117loPI   PO417192  18.482  16.317   5.152 -0.0041  0.0786  0.3749
 1117loPI   GL117193  18.469  16.313   5.650 -0.0937  0.4378  0.1676
 1117loPI   GL217194  18.636  16.600   5.670 -0.0674  0.0409  0.1241
 1117loPI   C1A17195  18.757  16.207   5.950 -0.0152 -0.1112  0.1194
 1117loPI   C2A17196  18.744  16.220   6.315 -0.1010 -0.0801 -0.0797
 1117loPI   C3A17197  18.722  16.056   6.756  0.2347  0.3727 -0.3593
 1117loPI   C4A17198  18.734  15.957   7.163 -0.0481  0.0493 -0.1015
 1117loPI   C5A17199  18.436  15.951   7.540  0.1040  0.1869  0.2227
 1117loPI   C6A17200  18.840  15.875   7.806  0.3670 -0.3969  0.2134
 1117loPI   C1B17201  18.468  16.610   6.063 -0.3190 -0.1058 -0.1564
 1117loPI   C2B17202  18.284  16.618   6.368  0.2121 -0.2509  0.1041
 1117loPI   C3B17203  18.417  16.554   6.758 -0.2851  0.0276 -0.0939
 1117loPI   C4B17204  18.394  16.332   7.084 -0.0262 -0.0602 -0.0359
 1118loPI    C117205   6.351   4.925   5.109  0.0953 -0.1643  0.1599
 1118loPI    C217206   6.079   4.793   4.847 -0.2294 -0.1072  0.4602
 1118loPI    C317207   6.424   4.596   4.893 -0.1584 -0.1077 -0.0171
 1118loPI   PO417208   6.206   4.959   5.313 -0.0092 -0.1699 -0.1253
 1118loPI   GL117209   6.100   5.293   5.506  0.1341  0.0306  0.0722
 1118loPI   GL217210   6.328   5.476   5.294  0.0659  0.1427  0.1952
 1118loPI   C1A17211   6.111   5.241   5.989 -0.0050  0.1549  0.0134
 1118loPI   C2A17212   6.131   5.131   6.435 -0.0892 -0.2771  0.1245
 1118loPI   C3A17213   6.368   4.846   6.637 -0.2543  0.2238 -0.0094
 1118loPI   C4A17214   6.294   4.637   7.012  0.2141  0.0797  0.3432
 1118loPI   C5A17215   6.232   4.363   7.316  0.3152  0.1033 -0.0550
 1118loPI   C6A17216   6.077   4.250   7.734 -0.2410 -0.1080  0.1837
 1118loPI   C1B17217   6.476   5.488   5.818  0.1661 -0.1484 -0.3273
 1118loPI   C2B17218   6.618   5.715   6.120  0.0460 -0.0004  0.3075
 1118loPI   C3B17219   6.495   5.746   6.563  0.1090 -0.0494  0.1361
 1118loPI   C4B17220   6.574   5.949   7.024  0.2493  0.0218 -0.2102
 1119loPI    C117221   9.200  13.909   4.888 -0.0598 -0.0032 -0.0794
 1119loPI    C217222   9.474  13.664   4.731 -0.1281 -0.2786  0.2192
 1119loPI    C317223   9.085  13.578   4.696 -0.1844  0.1019 -0.1881
 1119loPI   PO417224   9.240  14.035   5.129  0.2368 -0.1582  0.3789
 1119loPI   GL117225   9.276  14.027   5.561 -0.0992 -0.3136  0.1263
 1119loPI   GL217226   9.589  14.263   5.434  0.1406  0.0358 -0.0717
 1119loPI   C1A17227   9.270  13.798   5.927  0.1701  0.1515  0.1689
 1119loPI   C2A17228   9.299  13.828   6.326 -0.0331 -0.1096 -0.0838
 1119loPI   C3A17229   9.485  14.144   6.673  0.0210  0.2125  0.1546
 1119loPI   C4A17230   9.492  14.478   6.873 -0.1929  0.5188 -0.2866
 1119loPI   C5A17231   9.774  14.650   7.092  0.2377  0.2051 -0.3079
 1119loPI   C6A17232   9.985  14.984   7.159  0.2448 -0.2014  0.1665
 1119loPI   C1B17233   9.739  13.959   5.780 -0.0223 -0.4258  0.0528
 1119loPI   C2B17234  10.037  13.723   5.997 -0.1470  0.0512  0.3269
 1119loPI   C3B17235  10.123  13.387   6.380 -0.0722  0.1904 -0.1863
 1119loPI   C4B17236   9.959  13.172   6.777  0.1348 -0.4107 -0.2255
 1120loPI    C117237  14.638  17.312   5.151  0.0162 -0.0078 -0.1446
 1120loPI    C217238  14.588  17.492   4.798  0.1691 -0.0946 -0.2114
 1120loPI    C317239  14.549  17.095   4.827  0.1384 -0.0855 -0.1269
 1120loPI   PO417240  14.503  17.344   5.389  0.0319  0.0277 -0.1121
 1120loPI   GL117241  14.679  17.526   5.699 -0.0644 -0.0673 -0.0599
 1120loPI   GL217242  14.484  17.820   5.634 -0.0201  0.1448 -0.2065
 1120loPI   C1A17243  14.745  17.397   6.043  0.1151  0.0871  0.2963
 1120loPI   C2A17244  14.807  17.267   6.445 -0.0912 -0.0858 -0.1298
 1120loPI   C3A17245  14.858  17.034   6.828  0.1393 -0.2227 -0.0753
 1120loPI   C4A17246  14.817  16.689   7.063  0.4388 -0.3341 -0.0581
 1120loPI   C5A17247  14.860  16.617   7.479 -0.1587 -0.0852  0.1010
 1120loPI   C6A17248  14.496  16.400   7.648  0.3599  0.1082  0.1427
 1120loPI   C1B17249  14.273  17.704   6.076 -0.2043 -0.3525 -0.1654
 1120loPI   C2B17250  14.074  17.617   6.455  0.2285 -0.3311 -0.3968
 1120loPI   C3B17251  13.986  17.446   6.907  0.2035  0.1222  0.2453
 1120loPI   C4B17252  13.967  17.123   7.174 -0.0434 -0.2121  0.0749
 1121loPI    C117253  10.352   5.799   4.361  0.0841 -0.0109  0.0337
 1121loPI    C217254  10.626   5.931   4.101 -0.0590 -0.0046 -0.1162
 1121loPI    C317255  10.342   5.678   3.980 -0.1784  0.0656  0.0141
 1121loPI   PO417256  10.442   5.595   4.691  0.1455  0.2726  0.0654
 1121loPI   GL117257  10.510   5.335   4.978  0.2184  0.0723  0.0380
 1121loPI   GL217258  10.304   5.074   5.032 -0.2587 -0.4110  0.1316
 1121loPI   C1A17259  10.723   5.262   5.382  0.2046  0.1587  0.1591
 1121loPI   C2A17260  10.647   5.091   5.730  0.1678 -0.0226 -0.1720
 1121loPI   C3A17261  10.538   5.192   6.239 -0.0052 -0.1135  0.1749
 1121loPI   C4A17262  10.681   5.264   6.609 -0.0009 -0.1407 -0.2381
 1121loPI   C5A17263  10.508   5.234   7.017  0.0054 -0.1751 -0.1234
 1121loPI   C6A17264  10.435   4.961   7.376  0.0072 -0.0289  0.2016
 1121loPI   C1B17265  10.261   5.311   5.507  0.0253 -0.1091  0.1707
 1121loPI   C2B17266  10.238   5.458   5.860  0.1297 -0.1130  0.3662
 1121loPI   C3B17267  10.195   5.632   6.172  0.1038  0.1070 -0.0910
 1121loPI   C4B17268  10.134   5.882   6.545  0.4274  0.0181  0.2615
 1122loPI    C117269  11.759   3.470   4.597 -0.1231  0.2483  0.1277
 1122loPI    C217270  11.717   3.169   4.337 -0.0823  0.1769  0.2033
 1122loPI    C317271  11.845   3.525   4.210  0.0118  0.1204  0.1385
 1122loPI   PO417272  11.564   3.380   4.818  0.4394 -0.3669 -0.1306
 1122loPI   GL117273  11.502   3.226   5.334 -0.0074 -0.0157  0.3172
 1122loPI   GL217274  11.228   3.051   5.346 -0.1496 -0.0762 -0.0476
 1122loPI   C1A17275  11.712   3.274   5.727  0.2727  0.2302  0.2402
 1122loPI   C2A17276  11.761   3.570   6.050  0.3587  0.1269 -0.0770
 1122loPI   C3A17277  11.444   3.721   6.350 -0.1051  0.2585 -0.0457
 1122loPI   C4A17278  11.422   4.064   6.778 -0.0206  0.0470 -0.2635
 1122loPI   C5A17279  11.190   4.183   7.225  0.1690  0.2261 -0.1616
 1122loPI   C6A17280  10.837   4.312   7.341 -0.3260  0.0697  0.1390
 1122loPI   C1B17281  11.314   2.823   5.684 -0.0976 -0.0716  0.0864
 1122loPI   C2B17282  11.313   2.564   6.195 -0.0199  0.1814 -0.1113
 1122loPI   C3B17283  11.059   2.568   6.546 -0.0627  0.2563  0.0042
 1122loPI   C4B17284  10.845   2.520   6.989 -0.1342  0.0461  0.0664
 1123loPI    C117285  11.499  13.434   4.674  0.0196  0.1105 -0.1218
 1123loPI    C217286  11.701  13.088   4.669 -0.0917  0.0423  0.0282
 1123loPI    C317287  11.761  13.360   4.381  0.0864 -0.0499 -0.0226
 1123loPI   PO417288  11.466  13.440   4.943 -0.1395  0.0661  0.1567
 1123loPI   GL117289  11.780  13.242   5.258 -0.0149 -0.3199  0.0908
 1123loPI   GL217290  11.816  13.510   5.293 -0.0990 -0.1581 -0.2774
 1123loPI   C1A17291  11.470  13.069   5.446  0.2130  0.2343 -0.0429
 1123loPI   C2A17292  11.181  13.119   5.793 -0.1629 -0.2931  0.0661
 1123loPI   C3A17293  11.119  13.251   6.225 -0.0257  0.3748 -0.3491
 1123loPI   C4A17294  11.023  13.223   6.609  0.2447 -0.0030 -0.1867
 1123loPI   C5A17295  10.836  12.879   6.911 -0.0245 -0.3603  0.2834
 1123loPI   C6A17296  10.665  12.481   6.940 -0.1217  0.0166 -0.3567
 1123loPI   C1B17297  11.960  13.784   5.664 -0.1482 -0.0978 -0.0118
 1123loPI   C2B17298  11.927  13.749   6.023 -0.0101  0.2171  0.3637
 1123loPI   C3B17299  11.845  13.779   6.385  0.0030  0.0114  0.1121
 1123loPI   C4B17300  11.931  13.547   6.748 -0.1862 -0.0044 -0.1165
 1124loPI    C117301   1.636  13.331   4.863 -0.1028  0.1303 -0.1045
 1124loPI    C217302   1.613  13.618   4.586  0.0931  0.2926  0.0436
 1124loPI    C317303   1.829  13.288   4.516 -0.4738 -0.0222 -0.2967
 1124loPI   PO417304   1.745  13.460   5.138 -0.0552  0.0111  0.0565
 1124loPI   GL117305   1.892  13.250   5.365  0.2192 -0.0996 -0.0964
 1124loPI   GL217306   2.207  13.464   5.463  0.2758 -0.1784  0.0621
 1124loPI   C1A17307   2.021  12.965   5.641  0.0951  0.1737  0.2103
 1124loPI   C2A17308   1.996  13.049   6.073  0.0599 -0.0178 -0.1013
 1124loPI   C3A17309   1.998  13.183   6.484 -0.0622  0.0156  0.0753
 1124loPI   C4A17310   1.917  13.086   6.935  0.4149 -0.2028 -0.0571
 1124loPI   C5A17311   1.795  12.839   7.327 -0.3060 -0.4021 -0.0344
 1124loPI   C6A17312   1.935  12.727   7.813  0.0063  0.2152 -0.1056
 1124loPI   C1B17313   2.206  13.417   5.832 -0.1973 -0.0113 -0.1756
 1124loPI   C2B17314   2.207  13.564   6.225 -0.1615  0.2909 -0.1657
 1124loPI   C3B17315   2.213  13.873   6.552  0.0050 -0.3525 -0.3634
 1124loPI   C4B17316   2.188  14.259   6.804 -0.3383 -0.2745 -0.1999
 1125loPI    C117317   6.071  16.008   4.887  0.0898  0.1282 -0.1952
 1125loPI    C217318   6.463  15.950   4.943  0.0503 -0.0335 -0.0809
 1125loPI    C317319   6.333  16.135   4.613  0.2178 -0.0462 -0.1549
 1125loPI   PO417320   6.010  15.964   5.205  0.2744  0.1921 -0.1467
 1125loPI   GL117321   6.041  16.071   5.598 -0.1007 -0.1966  0.3857
 1125loPI   GL217322   6.304  16.098   5.659 -0.3473 -0.1504 -0.1821
 1125loPI   C1A17323   5.968  15.974   5.998  0.0787 -0.0514  0.3202
 1125loPI   C2A17324   6.076  16.190   6.430  0.2429  0.1520  0.0992
 1125loPI   C3A17325   6.016  16.247   6.823  0.1987  0.3567 -0.0450
 1125loPI   C4A17326   5.886  16.225   7.260 -0.3144  0.2146  0.1156
 1125loPI   C5A17327   6.149  16.448   7.507 -0.2549  0.3254 -0.2083
 1125loPI   C6A17328   6.497  16.581   7.836  0.0301 -0.3086  0.2946
 1125loPI   C1B17329   6.422  16.217   6.045 -0.3539 -0.1695  0.0011
 1125loPI   C2B17330   6.579  16.535   6.310 -0.1103 -0.1093 -0.0127
 1125loPI   C3B17331   6.468  16.624   6.699  0.0506  0.1305 -0.0608
 1125loPI   C4B17332   6.440  16.468   7.110  0.1244  0.0951 -0.0912
 1126loPI    C117333   4.314   1.727   4.963  0.3446 -0.0049 -0.2051
 1126loPI    C217334   4.466   2.024   4.742 -0.0091  0.1818 -0.2037
 1126loPI    C317335   4.202   1.770   4.581 -0.0660  0.1567 -0.0720
 1126loPI   PO417336   4.274   1.852   5.158 -0.2046  0.3284 -0.2091
 1126loPI   GL117337   4.450   1.796   5.605 -0.0516 -0.1988 -0.1110
 1126loPI   GL217338   4.653   2.084   5.625 -0.0373 -0.3008  0.0581
 1126loPI   C1A17339   4.227   1.717   5.988 -0.1340  0.2699  0.1541
 1126loPI   C2A17340   4.168   1.608   6.374  0.1229 -0.1182 -0.1825
 1126loPI   C3A17341   3.969   1.397   6.682  0.1952  0.2342 -0.1565
 1126loPI   C4A17342   3.960   1.392   7.150  0.1239 -0.0558  0.1408
 1126loPI   C5A17343   4.303   1.747   7.269  0.2850  0.0083  0.0184
 1126loPI   C6A17344   4.601   1.988   7.076 -0.1390  0.1493  0.0172
 1126loPI   C1B17345   4.642   2.111   6.020  0.2819 -0.0271  0.3224
 1126loPI   C2B17346   4.539   2.165   6.426 -0.0108 -0.3974  0.0084
 1126loPI   C3B17347   4.296   1.976   6.711  0.2723 -0.1405 -0.2098
 1126loPI   C4B17348   4.392   1.514   6.880 -0.1862 -0.0361 -0.0048
 1127loPI    C117349   4.988  12.420   4.663  0.0246 -0.1384 -0.0827
 1127loPI    C217350   5.126  12.783   4.565  0.1521 -0.2281 -0.2395
 1127loPI    C317351   4.732  12.714   4.571  0.1295 -0.1042 -0.2720
 1127loPI   PO417352   5.140  12.318   4.831 -0.2672  0.1499  0.1102
 1127loPI   GL117353   5.299  12.404   5.198 -0.0816  0.0542  0.0614
 1127loPI   GL217354   5.391  12.094   5.250  0.1023 -0.3245 -0.1668
 1127loPI   C1A17355   5.227  12.511   5.646 -0.2795 -0.0066 -0.0671
 1127loPI   C2A17356   5.284  12.565   5.999 -0.2643 -0.1101 -0.0777
 1127loPI   C3A17357   5.460  12.554   6.502 -0.0248 -0.0573 -0.1059
 1127loPI   C4A17358   5.535  12.404   6.982  0.1720  0.2316 -0.1448
 1127loPI   C5A17359   5.788  12.265   7.304 -0.1805 -0.3733  0.0736
 1127loPI   C6A17360   6.158  12.459   7.463 -0.1509 -0.0148  0.5007
 1127loPI   C1B17361   5.347  12.025   5.741  0.1698  0.2942  0.2041
 1127loPI   C2B17362   5.391  11.749   6.144 -0.1005 -0.2026  0.1293
 1127loPI   C3B17363   5.207  11.619   6.500  0.0576  0.2366  0.0074
 1127loPI   C4B17364   5.284  11.436   6.908 -0.0606  0.0409  0.0004
 1128loPI    C117365  18.151   9.888   4.547 -0.1848  0.1461 -0.0157
 1128loPI    C217366  17.951   9.670   4.278  0.1652  0.0727 -0.2221
 1128loPI    C317367  18.278   9.873   4.168  0.2027  0.1971  0.1076
 1128loPI   PO417368  18.078   9.888   4.884  0.1731 -0.3640 -0.2139
 1128loPI   GL117369  18.087   9.584   5.223 -0.4304 -0.1847  0.1226
 1128loPI   GL217370  17.985   9.461   5.480  0.0545 -0.4162  0.0024
 1128loPI   C1A17371  18.189   9.823   5.711 -0.0574 -0.0121  0.1153
 1128loPI   C2A17372  17.873   9.953   6.028  0.0915 -0.1123 -0.3148
 1128loPI   C3A17373  18.012   9.895   6.516  0.1787  0.2490  0.0950
 1128loPI   C4A17374  18.088  10.253   6.826 -0.0067  0.2087 -0.0909
 1128loPI   C5A17375  17.904  10.354   7.270 -0.0953 -0.0971  0.1546
 1128loPI   C6A17376  17.882  10.461   7.703  0.1382  0.3104  0.0632
 1128loPI   C1B17377  17.844   9.433   5.830 -0.0551  0.1276  0.2110
 1128loPI   C2B17378  17.862   9.471   6.233 -0.1874 -0.0394 -0.1393
 1128loPI   C3B17379  17.932   9.318   6.684  0.0033  0.4126 -0.0490
 1128loPI   C4B17380  17.952   8.957   6.858 -0.0496  0.3205  0.3042
 1129loPI    C117381   6.777   4.568   5.227 -0.3511 -0.0061 -0.0595
 1129loPI    C217382   6.929   4.201   5.278 -0.3287  0.0090 -0.0168
 1129loPI    C317383   6.865   4.342   4.909  0.0800  0.1328 -0.0452
 1129loPI   PO417384   6.639   4.628   5.375 -0.1981 -0.0398 -0.1093
 1129loPI   GL117385   6.683   4.889   5.687  0.1374 -0.2942 -0.1592
 1129loPI   GL217386   6.428   4.907   5.711 -0.0261  0.0696 -0.2839
 1129loPI   C1A17387   6.903   4.848   6.015  0.0448 -0.1583 -0.0562
 1129loPI   C2A17388   6.909   4.807   6.462 -0.0464 -0.0063  0.1855
 1129loPI   C3A17389   6.864   4.674   6.882 -0.4720 -0.0050  0.1269
 1129loPI   C4A17390   6.723   4.554   7.352  0.0229  0.0765 -0.2355
 1129loPI   C5A17391   6.397   4.820   7.512  0.0240  0.2022  0.2391
 1129loPI   C6A17392   6.093   5.142   7.382 -0.3542 -0.0025  0.0168
 1129loPI   C1B17393   6.392   4.840   6.118  0.2535 -0.0109 -0.1727
 1129loPI   C2B17394   6.066   4.623   6.292  0.2256 -0.0452  0.0638
 1129loPI   C3B17395   5.754   4.340   6.141 -0.0248  0.0494  0.1273
 1129loPI   C4B17396   5.556   4.128   6.008 -0.0245 -0.0787  0.0252
 1130loPI    C117397   5.575  16.128   4.959 -0.0728  0.0037 -0.0320
 1130loPI    C217398   5.213  16.211   5.107 -0.0449  0.1510 -0.0456
 1130loPI    C317399   5.314  15.832   5.029  0.0134  0.0444  0.5031
 1130loPI   PO417400   5.731  16.380   5.138 -0.2395 -0.0199  0.1029
 1130loPI   GL117401   5.636  16.544   5.481  0.1929  0.0915 -0.2286
 1130loPI   GL217402   5.407  16.525   5.674 -0.0512  0.1868  0.1847
 1130loPI   C1A17403   5.932  16.491   5.816  0.0568 -0.1767  0.1002
 1130loPI   C2A17404   6.098  16.642   6.125  0.1613 -0.0810  0.1045
 1130loPI   C3A17405   5.990  16.699   6.474  0.0968 -0.3615 -0.2111
 1130loPI   C4A17406   6.052  16.851   6.936 -0.0604  0.1732 -0.1872
 1130loPI   C5A17407   6.322  16.933   7.270  0.2017 -0.1477 -0.1895
 1130loPI   C6A17408   6.765  17.055   7.216  0.0654  0.1213 -0.0569
 1130loPI   C1B17409   5.175  16.245   6.040 -0.2400  0.1430  0.0771
 1130loPI   C2B17410   4.933  16.160   6.361  0.1439 -0.0829  0.0125
 1130loPI   C3B17411   4.995  16.362   6.768  0.1724  0.0120 -0.1891
 1130loPI   C4B17412   5.111  16.500   7.251 -0.4965  0.1772 -0.3537
 1131loPI    C117413   5.828   8.373   4.637 -0.1896 -0.0575  0.1038
 1131loPI    C217414   6.129   8.223   4.420 -0.0083  0.1980  0.1742
 1131loPI    C317415   5.751   8.172   4.299  0.0790  0.1466 -0.0829
 1131loPI   PO417416   5.932   8.356   4.888 -0.2040  0.1158  0.1540
 1131loPI   GL117417   5.929   8.115   5.236 -0.1973  0.2268 -0.3842
 1131loPI   GL217418   5.630   8.187   5.251 -0.1391 -0.0744 -0.0158
 1131loPI   C1A17419   6.148   7.940   5.599  0.3542  0.0563 -0.0732
 1131loPI   C2A17420   6.130   7.981   6.133  0.0452 -0.4382 -0.2722
 1131loPI   C3A17421   5.947   8.159   6.513  0.0776 -0.1534  0.1688
 1131loPI   C4A17422   5.752   8.158   7.013  0.1544 -0.1179  0.1919
 1131loPI   C5A17423   5.543   7.817   7.389 -0.1083 -0.0019  0.0388
 1131loPI   C6A17424   5.298   7.723   7.770 -0.1307  0.0628 -0.3288
 1131loPI   C1B17425   5.646   8.140   5.786  0.2865 -0.2702  0.2802
 1131loPI   C2B17426   5.644   8.324   6.147  0.2175 -0.4008 -0.3465
 1131loPI   C3B17427   5.826   8.684   6.387  0.0105 -0.0479  0.1255
 1131loPI   C4B17428   5.873   8.943   6.761  0.0435  0.0949 -0.0183
 1132loPI    C117429  10.647  10.982   4.424  0.0349  0.1004 -0.1293
 1132loPI    C217430  10.283  11.139   4.477 -0.0182 -0.1064  0.1432
 1132loPI    C317431  10.366  10.932   4.145 -0.0017  0.3349 -0.1366
 1132loPI   PO417432  10.750  11.061   4.693  0.1631 -0.0349 -0.1421
 1132loPI   GL117433  10.856  10.952   5.152  0.2727  0.1531 -0.0115
 1132loPI   GL217434  10.635  10.703   5.091  0.1142 -0.1383 -0.1130
 1132loPI   C1A17435  10.875  11.237   5.503  0.0155 -0.0088 -0.1112
 1132loPI   C2A17436  10.638  11.117   5.890 -0.0926 -0.1199  0.2821
 1132loPI   C3A17437  10.567  10.841   6.243  0.1869 -0.2549 -0.3757
 1132loPI   C4A17438  10.310  10.840   6.570 -0.2116 -0.0420 -0.0499
 1132loPI   C5A17439   9.930  10.731   6.795 -0.0238 -0.3246  0.1631
 1132loPI   C6A17440   9.704  11.007   7.057 -0.1867  0.1604  0.0199
 1132loPI   C1B17441  10.498  10.726   5.519  0.0261 -0.2124 -0.0312
 1132loPI   C2B17442  10.240  10.662   5.911  0.2172  0.0663 -0.3731
 1132loPI   C3B17443  10.055  10.455   6.310 -0.0779  0.0461 -0.1992
 1132loPI   C4B17444  10.270  10.281   6.698  0.0129  0.1095  0.1134
 1133loPI    C117445  17.012  19.134   5.183 -0.1356  0.1020  0.0362
 1133loPI    C217446  16.791  19.055   4.858 -0.1535 -0.1753  0.1139
 1133loPI    C317447  16.765  19.413   5.035 -0.1222 -0.0115 -0.2053
 1133loPI   PO417448  16.945  18.892   5.299 -0.1888 -0.2017 -0.1513
 1133loPI   GL117449  17.159  18.741   5.722  0.0060  0.1943  0.0337
 1133loPI   GL217450  16.873  18.572   5.879  0.0477 -0.0549  0.3503
 1133loPI   C1A17451  17.097  19.075   6.002 -0.5084  0.0244  0.1971
 1133loPI   C2A17452  16.858  19.307   6.319 -0.1240 -0.0045  0.1546
 1133loPI   C3A17453  16.711  19.342   6.699  0.3572 -0.0998 -0.1036
 1133loPI   C4A17454  16.703  19.368   7.156 -0.1684  0.0330 -0.0461
 1133loPI   C5A17455  16.547  19.172   7.466 -0.0012 -0.3559 -0.1677
 1133loPI   C6A17456  16.250  19.353   7.763  0.3316 -0.1068 -0.1218
 1133loPI   C1B17457  16.918  18.704   6.272 -0.0746 -0.2457 -0.0829
 1133loPI   C2B17458  16.656  18.806   6.643 -0.1633 -0.2357 -0.0065
 1133loPI   C3B17459  16.417  18.941   6.889  0.3286  0.1122 -0.0802
 1133loPI   C4B17460  16.038  19.032   6.890 -0.0230  0.1051 -0.1582
 1134loPI    C117461  18.191   1.863   4.529  0.0970  0.0197  0.1587
 1134loPI    C217462  17.836   1.952   4.369  0.1106  0.0649  0.1539
 1134loPI    C317463  18.051   1.650   4.221 -0.0375 -0.1225  0.3160
 1134loPI   PO417464  18.166   1.761   4.758  0.1044  0.1606 -0.2154
 1134loPI   GL117465  18.129   1.845   5.290 -0.3214  0.0392  0.0221
 1134loPI   GL217466  17.821   1.973   5.451  0.0650 -0.0831 -0.1302
 1134loPI   C1A17467  18.374   1.788   5.603  0.0318 -0.0503 -0.0557
 1134loPI   C2A17468  18.388   1.719   5.958  0.0857  0.0116 -0.1361
 1134loPI   C3A17469  18.518   1.690   6.347  0.2767 -0.1035 -0.0342
 1134loPI   C4A17470  18.660   1.672   6.806 -0.0923  0.1954  0.2565
 1134loPI   C5A17471  18.573   1.842   7.189  0.1625 -0.2090  0.2544
 1134loPI   C6A17472  18.206   1.818   7.443 -0.2669 -0.1115  0.2971
 1134loPI   C1B17473  17.871   1.893   5.860 -0.2595 -0.0081  0.0972
 1134loPI   C2B17474  17.925   1.847   6.307  0.0868  0.0961 -0.3216
 1134loPI   C3B17475  18.103   1.652   6.607  0.3823 -0.1677  0.2386
 1134loPI   C4B17476  18.253   1.208   6.762 -0.1272 -0.0995 -0.1648
 1135loPI    C117477  13.700   7.746   4.375 -0.2432 -0.0439  0.1174
 1135loPI    C217478  13.761   8.076   4.158  0.4082 -0.0717  0.2401
 1135loPI    C317479  13.766   7.717   3.982 -0.3246 -0.0294  0.1024
 1135loPI   PO417480  13.880   7.697   4.506 -0.3352 -0.0108 -0.2157
 1135loPI   GL117481  14.016   7.783   4.884 -0.0989  0.0303  0.0025
 1135loPI   GL217482  13.705   7.601   4.933 -0.2305 -0.2036  0.0399
 1135loPI   C1A17483  14.075   8.028   5.233  0.2180  0.0874  0.1270
 1135loPI   C2A17484  14.302   7.831   5.606 -0.0938 -0.1624  0.2063
 1135loPI   C3A17485  14.337   7.924   6.005  0.3819  0.2452  0.0367
 1135loPI   C4A17486  14.310   8.013   6.506 -0.3122 -0.1487 -0.0180
 1135loPI   C5A17487  13.976   7.844   6.680  0.2351 -0.1319  0.3274
 1135loPI   C6A17488  13.825   7.441   6.772 -0.0439 -0.0935 -0.1904
 1135loPI   C1B17489  13.734   7.605   5.337  0.1624 -0.0841 -0.1289
 1135loPI   C2B17490  13.514   7.407   5.658  0.0430 -0.0175 -0.0683
 1135loPI   C3B17491  13.151   7.180   5.592  0.2209  0.1496 -0.2932
 1135loPI   C4B17492  12.854   7.059   5.871 -0.1258 -0.0429  0.0293
 1136loPI    C117493   0.337   6.850   5.042 -0.0829 -0.2260  0.1475
 1136loPI    C217494   0.541   6.523   4.933  0.0939 -0.0213 -0.1517
 1136loPI    C317495   0.364   6.750   4.656  0.2235  0.3001  0.0236
 1136loPI   PO417496   0.512   7.013   5.213  0.1505  0.1877  0.1948
 1136loPI   GL117497   0.721   6.861   5.581 -0.2206 -0.3742  0.1368
 1136loPI   GL217498   0.381   6.754   5.633  0.0018 -0.0879 -0.0288
 1136loPI   C1A17499   1.048   7.014   5.833  0.0284 -0.0584 -0.4007
 1136loPI   C2A17500   1.000   7.125   6.190  0.1713 -0.0547  0.0661
 1136loPI   C3A17501   0.978   7.328   6.611 -0.0779 -0.1361  0.2639
 1136loPI   C4A17502   1.134   7.470   7.117  0.1900 -0.0355 -0.1494
 1136loPI   C5A17503   1.117   7.744   7.504  0.0062  0.0354 -0.1723
 1136loPI   C6A17504   1.086   8.056   7.619 -0.2227  0.0038 -0.2367
 1136loPI   C1B17505   0.567   6.681   6.105  0.0170  0.1079 -0.1692
 1136loPI   C2B17506   0.604   6.283   6.373  0.0410  0.1228 -0.1568
 1136loPI   C3B17507   0.786   6.293   6.832  0.0850  0.2273  0.3202
 1136loPI   C4B17508   1.114   6.097   7.013 -0.2388 -0.2418  0.0775
 1137loPI    C117509   8.510   2.277   4.389 -0.4221 -0.2634  0.1277
 1137loPI    C217510   8.706   2.035   4.138  0.2734  0.4118 -0.0183
 1137loPI    C317511   8.429   2.287   3.998 -0.0975  0.0611  0.0637
 1137loPI   PO417512   8.644   2.299   4.608 -0.1023  0.0174  0.2251
 1137loPI   GL117513   8.484   2.451   4.968 -0.0422  0.0632 -0.0417
 1137loPI   GL217514   8.311   2.312   5.151 -0.2700  0.0292 -0.0719
 1137loPI   C1A17515   8.798   2.243   5.353  0.4082  0.2252 -0.0515
 1137loPI   C2A17516   8.746   2.354   5.832 -0.3768  0.5241 -0.1106
 1137loPI   C3A17517   8.717   2.476   6.254  0.0653  0.0169  0.0692
 1137loPI   C4A17518   8.693   2.562   6.643  0.3251  0.1162  0.1173
 1137loPI   C5A17519   8.466   2.577   7.006 -0.1402  0.0846 -0.2200
 1137loPI   C6A17520   8.122   2.394   7.212  0.2203 -0.0123  0.0719
 1137loPI   C1B17521   8.230   2.458   5.554 -0.1518 -0.1604 -0.0951
 1137loPI   C2B17522   8.273   2.504   6.058  0.0974 -0.3043  0.0415
 1137loPI   C3B17523   8.118   2.467   6.509 -0.0457 -0.3142  0.2384
 1137loPI   C4B17524   8.082   2.187   6.777 -0.1990 -0.1838  0.0427
 1138loPI    C117525  11.429  12.555   4.679 -0.1972 -0.0600 -0.1607
 1138loPI    C217526  11.685  12.491   4.379 -0.0866  0.0667 -0.0946
 1138loPI    C317527  11.294  12.423   4.327 -0.0409 -0.1266 -0.1964
 1138loPI   PO417528  11.724  12.498   4.853  0.2061 -0.1088 -0.0855
 1138loPI   GL117529  11.706  12.670   5.150  0.2716 -0.2062 -0.1241
 1138loPI   GL217530  11.391  12.652   5.170 -0.2015  0.0643 -0.1255
 1138loPI   C1A17531  11.981  12.846   5.482  0.1411  0.0176  0.0527
 1138loPI   C2A17532  11.716  12.870   5.801  0.1569 -0.0592  0.0961
 1138loPI   C3A17533  11.407  12.835   6.220  0.4289  0.0152 -0.1852
 1138loPI   C4A17534  11.165  12.720   6.525 -0.0454 -0.0125 -0.3887
 1138loPI   C5A17535  11.298  12.649   6.973  0.0910 -0.0472 -0.1038
 1138loPI   C6A17536  11.616  12.298   7.205 -0.0843 -0.0994 -0.3922
 1138loPI   C1B17537  11.313  12.616   5.662 -0.2615 -0.1294  0.1621
 1138loPI   C2B17538  10.966  12.713   5.976 -0.1435  0.0786  0.0923
 1138loPI   C3B17539  10.718  12.861   6.290 -0.1480  0.0614 -0.1350
 1138loPI   C4B17540  10.542  13.165   6.601 -0.0253 -0.3214  0.0261
 1139loPI    C117541  11.919  11.289   4.689  0.4481 -0.0276  0.0367
 1139loPI    C217542  11.910  11.220   4.296  0.1047 -0.1293  0.0593
 1139loPI    C317543  11.835  11.587   4.436  0.0307 -0.1367  0.0396
 1139loPI   PO417544  12.172  11.228   4.762 -0.1925  0.0330 -0.2881
 1139loPI   GL117545  12.428  11.254   5.139 -0.1512 -0.2176  0.2126
 1139loPI   GL217546  12.710  11.179   5.336  0.0268  0.0586 -0.0230
 1139loPI   C1A17547  12.361  11.448   5.614 -0.0874 -0.2473  0.1331
 1139loPI   C2A17548  12.117  11.309   5.958  0.2120 -0.3649 -0.1865
 1139loPI   C3A17549  12.117  11.242   6.403 -0.2803 -0.1004  0.3314
 1139loPI   C4A17550  12.007  11.387   6.834  0.2497  0.0664 -0.2094
 1139loPI   C5A17551  11.914  11.741   7.093 -0.0168 -0.1682  0.0578
 1139loPI   C6A17552  12.134  12.116   7.386  0.1277  0.0612 -0.1152
 1139loPI   C1B17553  12.723  11.129   5.781 -0.0165  0.1611  0.2546
 1139loPI   C2B17554  12.640  11.300   6.188 -0.0938  0.1978 -0.1316
 1139loPI   C3B17555  12.612  11.337   6.681  0.0614  0.4687 -0.0931
 1139loPI   C4B17556  12.869  11.240   7.166  0.1351 -0.2688 -0.1233
 1140loPI    C117557  16.289   9.222   4.772  0.0622 -0.1777  0.1664
 1140loPI    C217558  16.592   9.482   4.757 -0.0625 -0.0441 -0.1160
 1140loPI    C317559  16.309   9.489   4.475 -0.3324 -0.1640  0.1463
 1140loPI   PO417560  16.387   8.938   4.905  0.0684  0.2193  0.2187
 1140loPI   GL117561  16.311   8.842   5.274  0.1419 -0.0457 -0.1208
 1140loPI   GL217562  16.279   8.578   5.455 -0.4993  0.0651 -0.0233
 1140loPI   C1A17563  16.489   9.053   5.575  0.1313 -0.1093 -0.2361
 1140loPI   C2A17564  16.553   9.278   5.919 -0.1747 -0.0030  0.2493
 1140loPI   C3A17565  16.316   9.528   6.194  0.0572  0.3829  0.0505
 1140loPI   C4A17566  16.090   9.422   6.542  0.5050  0.0486 -0.2758
 1140loPI   C5A17567  15.864   9.411   6.910  0.2157 -0.0894  0.1032
 1140loPI   C6A17568  15.758   9.590   7.259 -0.2231 -0.2905  0.0648
 1140loPI   C1B17569  16.108   8.734   5.896  0.0448 -0.0641  0.1253
 1140loPI   C2B17570  16.041   8.824   6.443 -0.2515 -0.1266  0.1334
 1140loPI   C3B17571  16.057   8.886   6.935  0.0351 -0.0205  0.2253
 1140loPI   C4B17572  16.224   8.985   7.241  0.0415 -0.2301 -0.1198
 1141loPI    C117573   7.858   9.812   4.490  0.0157  0.0060 -0.2184
 1141loPI    C217574   8.096   9.673   4.780 -0.0976 -0.1469 -0.1972
 1141loPI    C317575   8.254   9.853   4.460  0.0248  0.0800 -0.0119
 1141loPI   PO417576   7.667  10.030   4.651 -0.0867  0.2411 -0.0421
 1141loPI   GL117577   7.562   9.919   5.116  0.0228  0.4079  0.1658
 1141loPI   GL217578   7.829   9.860   5.109 -0.1546 -0.1380  0.4292
 1141loPI   C1A17579   7.346   9.780   5.420  0.0246 -0.0779 -0.2206
 1141loPI   C2A17580   7.256   9.389   5.730  0.0078 -0.0471 -0.2916
 1141loPI   C3A17581   7.149   9.397   6.162  0.2173 -0.0238 -0.1020
 1141loPI   C4A17582   6.900   9.470   6.584  0.1567 -0.1709  0.1832
 1141loPI   C5A17583   7.031   9.827   6.821 -0.0911  0.0900 -0.0026
 1141loPI   C6A17584   7.069  10.173   7.149 -0.0002  0.2461 -0.0095
 1141loPI   C1B17585   7.874   9.820   5.490  0.1726  0.0375 -0.2058
 1141loPI   C2B17586   8.011   9.895   5.940 -0.0410  0.1675  0.3652
 1141loPI   C3B17587   8.121  10.227   6.221 -0.1459  0.3040  0.2351
 1141loPI   C4B17588   8.074  10.481   6.483 -0.0974 -0.0189 -0.0865
 1142loPI    C117589   8.846  16.563   5.117  0.2757 -0.2298 -0.1239
 1142loPI    C217590   8.898  16.766   4.776  0.0236 -0.2244 -0.1605
 1142loPI    C317591   8.799  16.379   4.764  0.0811 -0.2412 -0.0930
 1142loPI   PO417592   8.664  16.648   5.296  0.1723  0.0851 -0.1819
 1142loPI   GL117593   8.782  16.896   5.559 -0.0932  0.0768  0.3952
 1142loPI   GL217594   8.922  17.079   5.788 -0.0833 -0.1463  0.2519
 1142loPI   C1A17595   8.771  16.663   5.965 -0.2362  0.0102  0.1769
 1142loPI   C2A17596   8.674  16.461   6.407  0.0495 -0.2731  0.0007
 1142loPI   C3A17597   8.688  16.256   6.770  0.1347  0.0831 -0.0301
 1142loPI   C4A17598   8.914  16.204   7.157  0.2455  0.0108  0.0693
 1142loPI   C5A17599   9.053  16.028   7.521 -0.0129 -0.1526  0.1343
 1142loPI   C6A17600   8.716  16.065   7.866 -0.0184  0.2638 -0.2817
 1142loPI   C1B17601   8.987  17.126   6.173 -0.0105 -0.1027 -0.1751
 1142loPI   C2B17602   9.012  17.011   6.691  0.0933 -0.3517  0.1630
 1142loPI   C3B17603   9.046  17.208   7.153  0.1000  0.2982  0.0256
 1142loPI   C4B17604   9.198  16.992   7.569  0.1130 -0.1048  0.1423
 1143loPI    C117605   9.424  15.842   4.997 -0.0500  0.1483 -0.1199
 1143loPI    C217606   9.172  15.535   4.945  0.0550  0.0522 -0.0649
 1143loPI    C317607   9.050  15.908   4.871 -0.1009  0.0055 -0.0465
 1143loPI   PO417608   9.542  15.869   5.151  0.0207 -0.1838  0.1303
 1143loPI   GL117609   9.466  15.817   5.545  0.1780 -0.0302 -0.0860
 1143loPI   GL217610   9.423  16.148   5.734 -0.3419 -0.4561  0.0761
 1143loPI   C1A17611   9.752  15.752   5.981  0.0483 -0.2032 -0.0044
 1143loPI   C2A17612   9.785  15.497   6.340 -0.0998  0.1917 -0.0602
 1143loPI   C3A17613   9.952  15.299   6.663  0.4537  0.1163  0.2897
 1143loPI   C4A17614   9.843  15.548   7.051 -0.3024 -0.0634 -0.0466
 1143loPI   C5A17615   9.726  15.863   7.312  0.0175  0.1552 -0.0581
 1143loPI   C6A17616   9.815  16.224   7.550  0.1938  0.1743 -0.2703
 1143loPI   C1B17617   9.761  16.281   5.959  0.1798  0.0064 -0.2104
 1143loPI   C2B17618   9.833  16.559   6.330  0.0753  0.2164 -0.0442
 1143loPI   C3B17619   9.856  16.438   6.750  0.2411 -0.0319  0.1736
 1143loPI   C4B17620   9.938  16.121   6.997 -0.1150  0.1354 -0.0748
 1144loPI    C117621  18.974   6.722   5.040 -0.1258 -0.0113 -0.0038
 1144loPI    C217622  18.887   6.374   5.217 -0.1847 -0.0325 -0.0736
 1144loPI    C317623  18.690   6.485   4.888 -0.1604  0.0633 -0.0563
 1144loPI   PO417624  19.032   6.907   5.244 -0.1282 -0.4096  0.0364
 1144loPI   GL117625  19.128   7.010   5.628  0.2204  0.3623  0.3280
 1144loPI   GL217626  19.358   7.177   5.720  0.1813  0.0351 -0.2061
 1144loPI   C1A17627  19.072   6.939   6.092  0.0598 -0.2525  0.2352
 1144loPI   C2A17628  19.363   6.739   6.412 -0.0231  0.1459 -0.0076
 1144loPI   C3A17629  19.577   6.596   6.775  0.2304 -0.0926 -0.1235
 1144loPI   C4A17630  19.594   6.252   7.112 -0.2236  0.1902 -0.1537
 1144loPI   C5A17631  19.489   6.007   7.454  0.0270 -0.0012  0.1813
 1144loPI   C6A17632  19.444   5.605   7.591 -0.1553  0.0334 -0.2639
 1144loPI   C1B17633  19.564   7.135   6.041 -0.0205 -0.1110  0.2851
 1144loPI   C2B17634  19.687   7.147   6.482  0.0411  0.2664 -0.2361
 1144loPI   C3B17635  19.673   7.285   6.960 -0.1173 -0.1845 -0.0783
 1144loPI   C4B17636  19.481   7.227   7.338  0.0839 -0.0937  0.1162
 1145loPI    C117637   4.767   1.296   4.842 -0.0210 -0.0489  0.2093
 1145loPI    C217638   5.052   1.576   4.858  0.2596 -0.3172  0.0131
 1145loPI    C317639   4.743   1.620   4.609  0.3383 -0.2138 -0.0672
 1145loPI   PO417640   4.615   1.312   5.054 -0.0563  0.0527 -0.0221
 1145loPI   GL117641   4.552   1.294   5.468 -0.2408 -0.1118 -0.0649
 1145loPI   GL217642   4.799   1.387   5.712  0.1665 -0.0772 -0.2716
 1145loPI   C1A17643   4.279   1.196   5.831  0.0059  0.1437  0.0968
 1145loPI   C2A17644   4.351   1.156   6.342  0.1923  0.1909 -0.0473
 1145loPI   C3A17645   4.381   1.029   6.798  0.2825 -0.2418 -0.0437
 1145loPI   C4A17646   4.312   0.815   7.151 -0.1389 -0.1152 -0.2301
 1145loPI   C5A17647   4.043   0.508   7.305 -0.0594 -0.1676 -0.3016
 1145loPI   C6A17648   3.810   0.402   6.986  0.0515 -0.3559 -0.2950
 1145loPI   C1B17649   4.724   1.583   6.169  0.1647  0.2745  0.2463
 1145loPI   C2B17650   4.745   1.750   6.537 -0.1278  0.1223 -0.0702
 1145loPI   C3B17651   4.876   1.634   6.841  0.2818 -0.1945 -0.1389
 1145loPI   C4B17652   5.154   1.563   7.258  0.0244  0.1327  0.1085
 1146loPI    C117653   8.252   8.499   4.489 -0.0450 -0.0584  0.0548
 1146loPI    C217654   8.490   8.465   4.169 -0.0421 -0.0681  0.0580
 1146loPI    C317655   8.095   8.508   4.121 -0.0185  0.1488  0.0474
 1146loPI   PO417656   8.344   8.311   4.661  0.1996 -0.4009  0.0418
 1146loPI   GL117657   8.532   8.140   4.934 -0.0221  0.2755 -0.1497
 1146loPI   GL217658   8.237   8.024   5.168 -0.2902 -0.1063  0.2294
 1146loPI   C1A17659   8.724   8.076   5.309  0.0475 -0.1058 -0.0461
 1146loPI   C2A17660   8.847   8.071   5.828  0.0544  0.1645  0.4225
 1146loPI   C3A17661   8.806   8.126   6.211 -0.0313 -0.1476  0.0484
 1146loPI   C4A17662   8.807   8.320   6.569 -0.0531  0.1563  0.0698
 1146loPI   C5A17663   9.034   8.631   6.725 -0.4768  0.0674  0.0505
 1146loPI   C6A17664   8.852   8.970   6.875  0.0206 -0.1962  0.0250
 1146loPI   C1B17665   8.017   8.066   5.590  0.0625  0.0116  0.1047
 1146loPI   C2B17666   7.923   8.042   6.030 -0.1616  0.0516  0.0625
 1146loPI   C3B17667   7.938   7.870   6.430 -0.0923 -0.0262 -0.2001
 1146loPI   C4B17668   7.790   7.609   6.696  0.1004  0.0583 -0.3352
 1147loPI    C117669  17.848   7.927   4.767 -0.3949  0.0795 -0.0085
 1147loPI    C217670  17.625   7.839   5.087  0.0195 -0.2684  0.1939
 1147loPI    C317671  18.024   7.806   5.106  0.0838  0.1797 -0.2125
 1147loPI   PO417672  17.790   8.200   4.719  0.1458  0.3855  0.0412
 1147loPI   GL117673  17.646   8.455   5.063 -0.0030  0.1858  0.0366
 1147loPI   GL217674  17.740   8.743   5.122 -0.0150 -0.2474 -0.0287
 1147loPI   C1A17675  17.809   8.301   5.463 -0.1034  0.0288  0.0420
 1147loPI   C2A17676  17.663   8.415   5.908 -0.0145  0.0875 -0.1247
 1147loPI   C3A17677  17.410   8.709   6.083  0.1896  0.0253  0.2157
 1147loPI   C4A17678  17.228   8.427   6.357  0.1613 -0.1124  0.1899
 1147loPI   C5A17679  16.984   8.337   6.700  0.0497  0.1838  0.1103
 1147loPI   C6A17680  16.601   8.224   7.017 -0.1649 -0.1712 -0.2339
 1147loPI   C1B17681  17.848   8.868   5.631  0.0769 -0.1239  0.1938
 1147loPI   C2B17682  17.885   8.948   6.130  0.2813 -0.0477  0.0412
 1147loPI   C3B17683  18.242   8.976   6.411 -0.0169  0.3787  0.0553
 1147loPI   C4B17684  18.454   9.061   6.802 -0.3508  0.3154  0.0358
 1148loPI    C117685  15.962   5.149   5.030  0.0309  0.0807  0.0395
 1148loPI    C217686  15.875   4.764   5.094  0.4794 -0.0576 -0.1499
 1148loPI    C317687  15.877   4.910   4.721 -0.3385  0.2999 -0.0357
 1148loPI   PO417688  16.183   5.195   5.187 -0.2015  0.2091  0.0376
 1148loPI   GL117689  16.418   5.360   5.534 -0.1488  0.0810 -0.0030
 1148loPI   GL217690  16.131   5.274   5.751 -0.0619  0.3810 -0.4788
 1148loPI   C1A17691  16.792   5.385   5.849  0.0442 -0.1538 -0.1693
 1148loPI   C2A17692  16.766   5.382   6.353 -0.0176 -0.1184 -0.1044
 1148loPI   C3A17693  16.757   5.425   6.780  0.2269  0.0500 -0.1620
 1148loPI   C4A17694  16.769   5.321   7.171 -0.2523 -0.2822 -0.1769
 1148loPI   C5A17695  16.789   4.973   7.499  0.3610 -0.0905  0.4084
 1148loPI   C6A17696  16.735   4.538   7.731 -0.1212 -0.1689 -0.0875
 1148loPI   C1B17697  15.906   5.415   6.080 -0.0747  0.0223 -0.0019
 1148loPI   C2B17698  15.837   5.143   6.357 -0.1680  0.0558 -0.0399
 1148loPI   C3B17699  15.726   4.743   6.433 -0.0944 -0.2695 -0.1416
 1148loPI   C4B17700  15.318   4.540   6.254  0.1195 -0.0099  0.1300
 1149loPI    C117701  11.247   6.247   4.512  0.0718  0.0545  0.1975
 1149loPI    C217702  11.472   6.288   4.184  0.0815 -0.3481  0.1494
 1149loPI    C317703  11.092   6.412   4.182  0.1735 -0.0601  0.0913
 1149loPI   PO417704  11.361   6.441   4.772 -0.0060 -0.1102  0.3020
 1149loPI   GL117705  11.363   6.318   5.166 -0.0411 -0.1335 -0.1320
 1149loPI   GL217706  11.110   6.621   5.147  0.0920  0.0480 -0.0379
 1149loPI   C1A17707  11.523   6.209   5.582 -0.1912 -0.1331 -0.2986
 1149loPI   C2A17708  11.483   6.218   6.057  0.0531 -0.1663  0.2464
 1149loPI   C3A17709  11.542   6.251   6.493  0.2153  0.0493 -0.0637
 1149loPI   C4A17710  11.942   6.294   6.673 -0.2087 -0.2533 -0.3010
 1149loPI   C5A17711  12.076   6.742   6.858 -0.0394 -0.1075  0.0389
 1149loPI   C6A17712  12.286   6.957   7.209 -0.1507  0.0979 -0.0747
 1149loPI   C1B17713  11.115   6.699   5.621  0.1347 -0.1534  0.1216
 1149loPI   C2B17714  11.063   6.552   6.044  0.1532  0.2775 -0.1604
 1149loPI   C3B17715  10.960   6.437   6.451  0.0765 -0.3958  0.2486
 1149loPI   C4B17716  11.124   6.357   6.907 -0.1654  0.0183  0.1826
 1150loPI    C117717  11.238  10.311   4.365  0.2102  0.0161 -0.0021
 1150loPI    C217718  11.427  10.469   4.050  0.0465 -0.0011 -0.1101
 1150loPI    C317719  11.028  10.490   4.075  0.0759  0.2306  0.2233
 1150loPI   PO417720  11.387  10.328   4.616 -0.0711 -0.0941  0.0746
 1150loPI   GL117721  11.375  10.571   5.019  0.1367 -0.0007 -0.0453
 1150loPI   GL217722  11.062  10.487   5.091  0.0241 -0.0155  0.1308
 1150loPI   C1A17723  11.726  10.637   5.410 -0.2856 -0.1500 -0.1704
 1150loPI   C2A17724  11.683  10.715   5.854  0.1136 -0.2321 -0.1852
 1150loPI   C3A17725  11.760  10.453   6.204  0.1712  0.1460  0.0056
 1150loPI   C4A17726  11.865  10.225   6.665  0.2148  0.1584  0.2097
 1150loPI   C5A17727  11.744  10.231   7.097 -0.3851 -0.2731 -0.2963
 1150loPI   C6A17728  11.421  10.456   7.281 -0.0736 -0.4066 -0.2058
 1150loPI   C1B17729  11.252  10.397   5.458  0.2019 -0.1522 -0.3100
 1150loPI   C2B17730  11.286  10.404   5.926 -0.3072 -0.0902 -0.1778
 1150loPI   C3B17731  11.284  10.293   6.396  0.1418 -0.3220  0.0571
 1150loPI   C4B17732  11.520  10.595   6.720 -0.1115  0.2707  0.0810
 1151loPI    C117733   7.478  13.878   5.130 -0.1741 -0.1624  0.0998
 1151loPI    C217734   7.407  13.687   4.786 -0.2684 -0.2998  0.1942
 1151loPI    C317735   7.190  14.009   4.885 -0.0441 -0.0810 -0.0106
 1151loPI   PO417736   7.422  13.717   5.302  0.1605  0.0709 -0.1958
 1151loPI   GL117737   7.474  13.430   5.480 -0.2889 -0.1170 -0.1266
 1151loPI   GL217738   7.187  13.249   5.526  0.0162 -0.2769 -0.4909
 1151loPI   C1A17739   7.433  13.389   5.921  0.0077 -0.1059  0.2342
 1151loPI   C2A17740   7.596  13.507   6.318 -0.1467  0.1918 -0.1442
 1151loPI   C3A17741   7.753  13.648   6.649 -0.2637  0.4205 -0.0877
 1151loPI   C4A17742   7.657  13.667   7.053  0.0151 -0.0509  0.2884
 1151loPI   C5A17743   7.914  13.679   7.307 -0.0739 -0.1349 -0.1441
 1151loPI   C6A17744   8.358  13.833   7.496 -0.1347 -0.0271 -0.5278
 1151loPI   C1B17745   7.203  12.914   5.890 -0.1291  0.0696 -0.1978
 1151loPI   C2B17746   7.440  12.846   6.279  0.4071 -0.0678  0.1308
 1151loPI   C3B17747   7.564  12.658   6.643 -0.1831 -0.0463 -0.1287
 1151loPI   C4B17748   7.500  12.823   7.036  0.0337  0.2670  0.0660
 1152loPI    C117749  11.595  10.788   4.397 -0.0651  0.0210 -0.0281
 1152loPI    C217750  11.197  10.827   4.379 -0.0805 -0.1183 -0.0007
 1152loPI    C317751  11.425  10.976   4.087 -0.1337  0.1975  0.1145
 1152loPI   PO417752  11.652  10.795   4.673  0.1368 -0.4560 -0.3922
 1152loPI   GL117753  11.602  11.103   5.127 -0.4513  0.1345  0.0975
 1152loPI   GL217754  11.433  11.337   5.279 -0.1051 -0.2442  0.1662
 1152loPI   C1A17755  11.300  10.900   5.452 -0.3238 -0.1288 -0.2131
 1152loPI   C2A17756  11.171  10.867   5.822  0.0915  0.3810  0.2584
 1152loPI   C3A17757  11.034  10.826   6.260  0.0798  0.1199 -0.0689
 1152loPI   C4A17758  10.851  10.925   6.698 -0.1435 -0.1659 -0.3675
 1152loPI   C5A17759  11.067  10.890   7.021  0.4488 -0.2900  0.0721
 1152loPI   C6A17760  11.400  10.978   7.278  0.1190 -0.0730 -0.0762
 1152loPI   C1B17761  11.639  11.203   5.728  0.1273 -0.1487 -0.3016
 1152loPI   C2B17762  11.545  11.043   6.234  0.0685 -0.1279 -0.1101
 1152loPI   C3B17763  11.595  11.171   6.623 -0.2005  0.2308  0.1695
 1152loPI   C4B17764  11.547  11.359   7.050 -0.2407 -0.1613 -0.0082
 1153loPI    C117765   0.921  14.987   5.049  0.0045  0.1086  0.0568
 1153loPI    C217766   0.738  15.319   4.920 -0.0938  0.0514  0.0480
 1153loPI    C317767   1.136  15.291   4.904 -0.1039  0.0480 -0.2385
 1153loPI   PO417768   0.809  14.986   5.325 -0.0539 -0.3636  0.0487
 1153loPI   GL117769   0.896  14.841   5.684  0.2379  0.1250  0.0269
 1153loPI   GL217770   0.573  14.796   5.877  0.2291 -0.3140 -0.2151
 1153loPI   C1A17771   1.074  14.753   6.193  0.0337  0.4707 -0.1570
 1153loPI   C2A17772   0.962  14.889   6.561 -0.2226  0.0746 -0.1379
 1153loPI   C3A17773   0.751  14.882   6.986 -0.0191  0.1345 -0.2146
 1153loPI   C4A17774   0.710  14.610   7.402  0.2299 -0.1447  0.1045
 1153loPI   C5A17775   0.481  14.190   7.485 -0.0887  0.2293  0.1932
 1153loPI   C6A17776   0.573  13.829   7.708 -0.0945 -0.0092 -0.0446
 1153loPI   C1B17777   0.287  14.818   6.315 -0.2001 -0.1690  0.0163
 1153loPI   C2B17778   0.143  14.442   6.491  0.1601  0.0040  0.1906
 1153loPI   C3B17779   0.275  14.137   6.887  0.0640 -0.0656  0.2624
 1153loPI   C4B17780   0.051  13.986   7.279 -0.0789 -0.2971 -0.1992
 1154loPI    C117781   7.343   4.031   4.816 -0.1430 -0.4377 -0.0852
 1154loPI    C217782   7.181   4.287   4.555  0.0543  0.0092  0.2169
 1154loPI    C317783   7.039   3.914   4.584 -0.1881  0.0534 -0.2868
 1154loPI   PO417784   7.429   4.190   4.938 -0.1468  0.4514 -0.0882
 1154loPI   GL117785   7.411   4.145   5.368  0.3570  0.0416 -0.0025
 1154loPI   GL217786   7.656   4.306   5.466 -0.0536 -0.2718  0.1603
 1154loPI   C1A17787   7.085   3.981   5.701  0.0492 -0.3265  0.1458
 1154loPI   C2A17788   6.916   4.068   6.096  0.1805  0.1148  0.1379
 1154loPI   C3A17789   6.982   4.208   6.538 -0.1772  0.0555 -0.1348
 1154loPI   C4A17790   7.019   4.147   6.954 -0.1098 -0.1660 -0.0822
 1154loPI   C5A17791   6.734   4.090   7.172  0.4342  0.0496  0.0054
 1154loPI   C6A17792   6.462   3.898   7.462  0.0687 -0.0270 -0.1073
 1154loPI   C1B17793   7.659   4.263   5.978  0.2710  0.1085 -0.3833
 1154loPI   C2B17794   7.468   3.934   6.285  0.4624  0.1940 -0.0893
 1154loPI   C3B17795   7.504   4.003   6.638  0.0387 -0.1299  0.1511
 1154loPI   C4B17796   7.545   4.060   7.053 -0.0276  0.0403 -0.0566
 1155loPI    C117797  10.435   4.087   5.024  0.2484  0.0770  0.0720
 1155loPI    C217798  10.753   4.275   5.175  0.2956  0.1727 -0.1430
 1155loPI    C317799  10.767   4.125   4.804  0.1697 -0.0293 -0.0674
 1155loPI   PO417800  10.229   4.244   5.133  0.1148  0.0875  0.1685
 1155loPI   GL117801  10.388   4.350   5.522 -0.1378  0.0367 -0.0090
 1155loPI   GL217802  10.063   4.448   5.626 -0.0662 -0.3992  0.0228
 1155loPI   C1A17803  10.448   4.165   5.826 -0.0221  0.1072  0.2622
 1155loPI   C2A17804  10.615   4.047   6.207  0.1434  0.1759  0.4169
 1155loPI   C3A17805  10.590   3.982   6.508 -0.6162 -0.3337 -0.0121
 1155loPI   C4A17806  10.589   3.991   7.041  0.0807 -0.2109  0.0337
 1155loPI   C5A17807  10.713   3.766   7.435  0.1213 -0.2233  0.2665
 1155loPI   C6A17808  10.691   4.044   7.722  0.0635  0.0375 -0.2344
 1155loPI   C1B17809  10.096   4.466   6.103 -0.2078 -0.0339 -0.3705
 1155loPI   C2B17810  10.158   4.240   6.516  0.1230  0.2718  0.0409
 1155loPI   C3B17811  10.120   4.390   6.917  0.2324 -0.2907  0.2600
 1155loPI   C4B17812  10.023   4.245   7.366  0.2204 -0.1323  0.1535
 1156loPI    C117813  12.872  18.079   4.692 -0.1074  0.1218 -0.0174
 1156loPI    C217814  12.811  18.470   4.751  0.1697  0.1728 -0.0573
 1156loPI    C317815  12.879  18.332   4.382 -0.0989  0.0614 -0.0669
 1156loPI   PO417816  12.955  17.996   4.961  0.1456  0.2368 -0.0441
 1156loPI   GL117817  13.158  18.067   5.415  0.3390 -0.2974 -0.0663
 1156loPI   GL217818  13.094  17.852   5.545  0.0077  0.1331 -0.2148
 1156loPI   C1A17819  13.374  18.153   5.829 -0.1871 -0.0190 -0.0748
 1156loPI   C2A17820  13.063  18.237   6.256  0.0450  0.0714 -0.4242
 1156loPI   C3A17821  12.996  18.308   6.745  0.1205  0.1249  0.1423
 1156loPI   C4A17822  12.835  18.470   7.180 -0.0272 -0.2182 -0.1503
 1156loPI   C5A17823  12.936  18.923   7.499  0.1361 -0.0520  0.2798
 1156loPI   C6A17824  12.778  19.363   7.384  0.2048 -0.2057 -0.1807
 1156loPI   C1B17825  12.942  17.810   5.929  0.2200 -0.0733  0.0335
 1156loPI   C2B17826  12.855  17.806   6.343  0.0784 -0.3510 -0.2066
 1156loPI   C3B17827  12.686  17.902   6.835  0.0168 -0.2937  0.1265
 1156loPI   C4B17828  12.936  17.962   7.269  0.3127  0.2522  0.2324
 1157loPI    C117829  13.115   2.041   4.825  0.0268 -0.4011  0.2002
 1157loPI    C217830  12.760   1.916   4.690  0.0218 -0.1908  0.0123
 1157loPI    C317831  13.041   2.035   4.432  0.1184 -0.0623  0.1752
 1157loPI   PO417832  13.134   1.863   5.035 -0.1642  0.2049 -0.3315
 1157loPI   GL117833  13.226   1.706   5.460  0.0760  0.1970  0.3017
 1157loPI   GL217834  12.828   1.554   5.489 -0.0088  0.1254  0.0874
 1157loPI   C1A17835  13.177   1.537   5.808 -0.0207 -0.2585 -0.1604
 1157loPI   C2A17836  13.020   1.637   6.268  0.1719 -0.2540 -0.1142
 1157loPI   C3A17837  13.132   1.578   6.769 -0.0228 -0.1673 -0.1310
 1157loPI   C4A17838  13.333   1.568   7.229 -0.1712 -0.0743  0.1450
 1157loPI   C5A17839  13.272   1.889   7.506 -0.1659  0.2751  0.2034
 1157loPI   C6A17840  13.327   2.361   7.528 -0.0517 -0.3220 -0.0589
 1157loPI   C1B17841  12.489   1.536   5.720 -0.0122 -0.5897 -0.1601
 1157loPI   C2B17842  12.544   1.532   6.192 -0.0279 -0.3512  0.1500
 1157loPI   C3B17843  12.619   1.479   6.557 -0.0509  0.3300 -0.1500
 1157loPI   C4B17844  12.502   1.535   6.866  0.0141 -0.1443  0.1285
 1158loPI    C117845   0.820   3.789   4.724 -0.1828 -0.1110  0.0494
 1158loPI    C217846   1.062   3.917   4.433  0.1125 -0.1165  0.2882
 1158loPI    C317847   0.695   3.786   4.344  0.0938  0.1511 -0.0473
 1158loPI   PO417848   0.871   3.646   4.945  0.0260  0.1829  0.0627
 1158loPI   GL117849   0.773   3.757   5.315  0.0951 -0.0049 -0.1448
 1158loPI   GL217850   0.551   3.496   5.377  0.0079 -0.0888  0.0468
 1158loPI   C1A17851   0.663   3.736   5.779 -0.1374  0.2697 -0.1334
 1158loPI   C2A17852   0.755   3.822   6.221 -0.1860  0.2419 -0.1051
 1158loPI   C3A17853   0.807   3.671   6.645  0.0239 -0.0295 -0.0287
 1158loPI   C4A17854   0.685   3.526   6.975  0.4103 -0.4256  0.2711
 1158loPI   C5A17855   0.406   3.236   6.957 -0.1010 -0.2949 -0.1877
 1158loPI   C6A17856   0.245   2.727   7.195  0.0220  0.1740  0.1416
 1158loPI   C1B17857   0.502   3.242   5.715  0.1547  0.1368  0.0552
 1158loPI   C2B17858   0.322   3.296   6.109  0.1935 -0.1526  0.1333
 1158loPI   C3B17859   0.121   3.158   6.531  0.2079 -0.0375 -0.0833
 1158loPI   C4B17860  -0.103   3.123   6.976 -0.0403  0.1530 -0.4548
 1159loPI    C117861   0.790  11.816   5.426  0.0776  0.1041  0.1692
 1159loPI    C217862   0.946  12.179   5.491 -0.0544  0.1859  0.0334
 1159loPI    C317863   0.767  12.097   5.142 -0.2119  0.0568  0.1432
 1159loPI   PO417864   0.697  11.745   5.655 -0.0104  0.2546 -0.0305
 1159loPI   GL117865   0.843  11.508   5.969  0.1332 -0.1075  0.0543
 1159loPI   GL217866   0.912  11.595   6.252 -0.3093  0.0025 -0.3702
 1159loPI   C1A17867   0.398  11.494   6.219  0.0621  0.0039  0.0544
 1159loPI   C2A17868   0.300  11.444   6.630 -0.0578 -0.0268 -0.0411
 1159loPI   C3A17869   0.254  11.438   7.018  0.0381  0.0043 -0.2237
 1159loPI   C4A17870   0.139  11.511   7.442 -0.1339  0.0861 -0.4389
 1159loPI   C5A17871   0.316  11.788   7.634 -0.3422 -0.2552 -0.0023
 1159loPI   C6A17872   0.533  11.672   7.975 -0.2565  0.0886  0.5681
 1159loPI   C1B17873   1.246  11.587   6.596  0.0944  0.2108 -0.3481
 1159loPI   C2B17874   1.437  11.495   7.016  0.2896 -0.0662  0.0465
 1159loPI   C3B17875   1.529  11.408   7.458  0.5084  0.0520  0.0092
 1159loPI   C4B17876   1.762  11.037   7.615  0.0741 -0.0500 -0.1011
 1160loPI    C117877  15.852   2.766   4.620  0.1131 -0.1770 -0.2267
 1160loPI    C217878  15.817   2.873   4.236  0.1591  0.0961 -0.1572
 1160loPI    C317879  16.158   2.945   4.434  0.1582 -0.1007 -0.0811
 1160loPI   PO417880  15.638   2.959   4.902  0.0367  0.2563 -0.2617
 1160loPI   GL117881  15.643   3.138   5.284 -0.1487  0.1415 -0.1228
 1160loPI   GL217882  15.391   3.364   5.208 -0.3563 -0.1816  0.0584
 1160loPI   C1A17883  15.841   2.872   5.639 -0.1101  0.2316  0.2153
 1160loPI   C2A17884  16.090   2.577   5.885 -0.0607  0.1567 -0.3882
 1160loPI   C3A17885  15.955   2.312   6.245  0.1360  0.0289 -0.1263
 1160loPI   C4A17886  15.612   2.371   6.446 -0.0565  0.0712 -0.1539
 1160loPI   C5A17887  15.252   2.627   6.604  0.0623  0.1909  0.2218
 1160loPI   C6A17888  14.963   2.738   6.724 -0.3036 -0.1751 -0.1439
 1160loPI   C1B17889  15.218   3.518   5.624 -0.3010 -0.0446 -0.0096
 1160loPI   C2B17890  15.107   3.454   6.040 -0.0269 -0.0360  0.2852
 1160loPI   C3B17891  15.174   3.756   6.337 -0.4003  0.1701  0.0648
 1160loPI   C4B17892  15.033   3.932   6.707 -0.1111 -0.1860  0.2423
 1161loPI    C117893   5.912   9.747   4.540  0.0317 -0.0081  0.0649
 1161loPI    C217894   5.880  10.022   4.251  0.0325 -0.1184 -0.0409
 1161loPI    C317895   6.239   9.876   4.350  0.0453  0.0046  0.0971
 1161loPI   PO417896   5.766   9.936   4.758 -0.1914  0.0637 -0.1819
 1161loPI   GL117897   5.869  10.282   5.095 -0.1415 -0.0314 -0.1376
 1161loPI   GL217898   5.818  10.541   4.992 -0.1832  0.2526 -0.2359
 1161loPI   C1A17899   6.024  10.308   5.459  0.1927  0.0869  0.0001
 1161loPI   C2A17900   5.968  10.385   5.888  0.0167  0.0348 -0.1855
 1161loPI   C3A17901   5.792  10.393   6.274  0.2328  0.1873  0.0371
 1161loPI   C4A17902   5.778  10.493   6.657 -0.2774  0.0122 -0.0753
 1161loPI   C5A17903   5.660  10.670   7.074  0.1266  0.0777  0.1896
 1161loPI   C6A17904   5.856  10.476   7.535  0.1392  0.1859 -0.1153
 1161loPI   C1B17905   5.492  10.606   5.317  0.0047  0.1042 -0.4204
 1161loPI   C2B17906   5.475  10.637   5.806  0.3224 -0.0708 -0.0884
 1161loPI   C3B17907   5.535  10.976   6.199  0.1590 -0.0508 -0.1053
 1161loPI   C4B17908   5.626  11.349   6.466  0.0836 -0.3444  0.1182
 1162loPI    C117909   8.634  18.768   4.775  0.0460 -0.0205 -0.0171
 1162loPI    C217910   8.805  18.462   4.582 -0.1097 -0.1474  0.0440
 1162loPI    C317911   8.725  18.802   4.387  0.0114 -0.1656 -0.0386
 1162loPI   PO417912   8.722  18.745   5.040 -0.2052  0.0481 -0.0905
 1162loPI   GL117913   8.649  18.998   5.420 -0.0507 -0.0797 -0.0044
 1162loPI   GL217914   8.993  19.093   5.543 -0.0542  0.0300  0.2832
 1162loPI   C1A17915   8.733  18.807   5.906 -0.0519  0.3132 -0.0390
 1162loPI   C2A17916   8.840  18.871   6.270 -0.2186  0.1695  0.1176
 1162loPI   C3A17917   8.830  19.143   6.616  0.3465 -0.0687  0.0327
 1162loPI   C4A17918   9.020  19.550   6.715 -0.2631 -0.0044  0.2442
 1162loPI   C5A17919   9.263  19.945   7.029  0.0466 -0.1068 -0.1434
 1162loPI   C6A17920   8.962  20.290   7.238  0.2936  0.1523  0.0830
 1162loPI   C1B17921   8.801  19.309   5.956  0.1218  0.0082 -0.0200
 1162loPI   C2B17922   8.489  19.278   6.308  0.1802  0.0780  0.0933
 1162loPI   C3B17923   8.284  19.290   6.602  0.2439 -0.1811  0.0058
 1162loPI   C4B17924   8.018  19.378   6.895  0.1045  0.0024 -0.0912
 1163loPI    C117925   0.445  11.516   5.146 -0.0678  0.2928  0.0798
 1163loPI    C217926   0.617  11.394   4.806 -0.0141  0.1587  0.1546
 1163loPI    C317927   0.407  11.734   4.813 -0.1259  0.0953 -0.0448
 1163loPI   PO417928   0.651  11.352   5.313  0.1856 -0.2850  0.2510
 1163loPI   GL117929   0.769  10.952   5.613 -0.1737  0.0232 -0.3070
 1163loPI   GL217930   0.839  10.614   5.656  0.1556 -0.1866  0.4632
 1163loPI   C1A17931   0.830  11.009   6.023  0.0145  0.1783  0.2022
 1163loPI   C2A17932   0.834  11.137   6.505  0.3523  0.3239 -0.1531
 1163loPI   C3A17933   1.091  11.075   6.805 -0.2937 -0.2092 -0.0075
 1163loPI   C4A17934   1.291  10.876   7.172 -0.2602  0.2294  0.0343
 1163loPI   C5A17935   1.394  10.628   7.535 -0.1198 -0.0343  0.0304
 1163loPI   C6A17936   1.224  10.478   7.897 -0.0932  0.2324 -0.1501
 1163loPI   C1B17937   0.771  10.534   6.088 -0.0791 -0.0435 -0.1872
 1163loPI   C2B17938   0.713  10.642   6.504  0.2560 -0.1307 -0.0843
 1163loPI   C3B17939   0.668  10.745   6.872  0.1000  0.0752  0.1707
 1163loPI   C4B17940   0.677  11.078   7.131 -0.0437  0.1352 -0.1770
 1164loPI    C117941   9.993   1.116   4.667 -0.0244  0.0929  0.1557
 1164loPI    C217942   9.949   1.338   4.338 -0.1802 -0.2020 -0.0263
 1164loPI    C317943  10.274   1.110   4.383 -0.0865 -0.0459  0.0964
 1164loPI   PO417944   9.958   1.229   4.898  0.1036  0.0196 -0.1545
 1164loPI   GL117945  10.106   1.402   5.279 -0.0386  0.1463 -0.3650
 1164loPI   GL217946  10.374   1.393   5.335 -0.1619  0.0194  0.1068
 1164loPI   C1A17947  10.102   1.026   5.628  0.0381 -0.1895  0.0409
 1164loPI   C2A17948   9.973   0.793   5.910 -0.0697 -0.0978  0.2850
 1164loPI   C3A17949   9.857   0.794   6.301  0.1920  0.0192 -0.0361
 1164loPI   C4A17950   9.717   0.985   6.743  0.0358  0.3957  0.3168
 1164loPI   C5A17951   9.726   1.343   7.011  0.3573  0.2454 -0.2331
 1164loPI   C6A17952  10.137   1.535   7.113 -0.1943  0.0395  0.3165
 1164loPI   C1B17953  10.575   1.224   5.706 -0.2633  0.2099  0.3526
 1164loPI   C2B17954  10.470   1.036   5.967 -0.0373 -0.1084 -0.0151
 1164loPI   C3B17955  10.314   1.050   6.368 -0.2817 -0.0390  0.2089
 1164loPI   C4B17956  10.194   1.154   6.771  0.0487  0.0805 -0.0844
 1165loPI    C117957  18.926   8.739   4.851  0.0051 -0.0307 -0.0424
 1165loPI    C217958  19.030   8.905   4.503  0.2334  0.0499  0.0625
 1165loPI    C317959  19.020   8.506   4.539 -0.1219  0.0374 -0.1324
 1165loPI   PO417960  18.788   9.019   4.941  0.0261  0.1035  0.0547
 1165loPI   GL117961  18.644   9.142   5.347  0.0119 -0.0257 -0.0068
 1165loPI   GL217962  18.817   8.845   5.409  0.2325 -0.0124  0.4169
 1165loPI   C1A17963  18.314   9.166   5.655  0.1932  0.0615  0.1520
 1165loPI   C2A17964  18.350   9.341   6.077 -0.0487  0.0404 -0.0207
 1165loPI   C3A17965  18.432   9.444   6.523 -0.2149 -0.0629  0.2728
 1165loPI   C4A17966  18.671   9.457   6.936  0.2113  0.3943  0.0357
 1165loPI   C5A17967  19.031   9.384   7.202  0.0207 -0.2190 -0.3421
 1165loPI   C6A17968  19.211   9.325   7.571  0.0478  0.0908 -0.0468
 1165loPI   C1B17969  18.659   8.824   5.740 -0.1191 -0.3543 -0.2597
 1165loPI   C2B17970  18.637   8.869   6.161 -0.3057 -0.2010  0.0496
 1165loPI   C3B17971  18.768   8.754   6.557 -0.0469 -0.3134  0.1617
 1165loPI   C4B17972  18.866   8.836   7.043 -0.1031 -0.0649  0.1799
 1166loPI    C117973  16.774   8.483   4.789 -0.1358  0.0604 -0.0336
 1166loPI    C217974  16.682   8.135   4.964 -0.0091  0.0793  0.0722
 1166loPI    C317975  16.729   8.153   4.567  0.2345 -0.0797  0.0915
 1166loPI   PO417976  16.834   8.657   4.900  0.1847 -0.0484 -0.3403
 1166loPI   GL117977  16.804   8.676   5.261  0.0327 -0.0913  0.0995
 1166loPI   GL217978  16.812   8.391   5.361  0.0981 -0.2420 -0.1413
 1166loPI   C1A17979  16.982   9.017   5.544 -0.3581 -0.1675  0.1792
 1166loPI   C2A17980  17.017   8.987   5.969  0.0788 -0.0184 -0.1849
 1166loPI   C3A17981  16.953   8.828   6.403 -0.2023  0.0091 -0.3340
 1166loPI   C4A17982  17.239   8.762   6.762 -0.0955  0.1719  0.1124
 1166loPI   C5A17983  17.397   8.717   7.210 -0.0185 -0.2687 -0.2377
 1166loPI   C6A17984  17.523   8.320   7.401 -0.3037 -0.0227  0.3832
 1166loPI   C1B17985  16.691   8.627   5.769 -0.0495 -0.2000 -0.0851
 1166loPI   C2B17986  16.509   8.837   6.129  0.4964 -0.0822 -0.4233
 1166loPI   C3B17987  16.448   9.107   6.410  0.0472 -0.3980 -0.2122
 1166loPI   C4B17988  16.576   9.612   6.568  0.2016 -0.0707 -0.1226
 1167loPI    C117989   1.432   5.148   4.490  0.1194 -0.2179  0.0243
 1167loPI    C217990   1.198   4.835   4.576  0.1510 -0.2425  0.0210
 1167loPI    C317991   1.572   4.776   4.448  0.2254 -0.2012  0.2150
 1167loPI   PO417992   1.464   5.398   4.750 -0.0008  0.3461  0.1683
 1167loPI   GL117993   1.341   5.575   5.158  0.0855  0.2245 -0.0484
 1167loPI   GL217994   1.220   5.189   5.225  0.0147 -0.0250 -0.1459
 1167loPI   C1A17995   1.125   5.579   5.545 -0.0190  0.1243 -0.4307
 1167loPI   C2A17996   0.974   5.566   6.039  0.2923 -0.1250 -0.0500
 1167loPI   C3A17997   0.875   5.501   6.370 -0.0770 -0.1083 -0.3201
 1167loPI   C4A17998   0.878   5.422   6.759  0.1193  0.0391 -0.0361
 1167loPI   C5A17999   0.778   5.279   7.261 -0.0697  0.1779 -0.1540
 1167loPI   C6A18000   0.845   4.859   7.505 -0.1197  0.0799 -0.2764
 1167loPI   C1B18001   1.442   5.049   5.473 -0.0773 -0.1078  0.0477
 1167loPI   C2B18002   1.818   5.098   5.699 -0.2363  0.0394 -0.0894
 1167loPI   C3B18003   1.747   5.066   6.142  0.4662  0.1047  0.2685
 1167loPI   C4B18004   1.661   4.852   6.602 -0.1105  0.2129  0.0103
 1168loPI    C118005   9.363  14.567   4.650 -0.2357 -0.0369 -0.0064
 1168loPI    C218006   9.520  14.243   4.474 -0.0797  0.2297 -0.3710
 1168loPI    C318007   9.123  14.283   4.501 -0.1079 -0.3147  0.3047
 1168loPI   PO418008   9.441  14.562   4.998 -0.1314 -0.0152  0.0599
 1168loPI   GL118009   9.256  14.689   5.340  0.0757  0.2390  0.0891
 1168loPI   GL218010   8.975  14.440   5.441 -0.2056  0.0447 -0.0258
 1168loPI   C1A18011   9.402  14.816   5.749 -0.1313  0.4031 -0.1308
 1168loPI   C2A18012   9.178  14.839   6.149 -0.0889  0.0630 -0.1877
 1168loPI   C3A18013   9.126  14.768   6.575 -0.0120  0.2094  0.2199
 1168loPI   C4A18014   9.074  14.875   7.024 -0.1283  0.2178 -0.0328
 1168loPI   C5A18015   9.272  14.884   7.381 -0.2749 -0.2295 -0.0707
 1168loPI   C6A18016   9.592  15.197   7.637  0.2065  0.0949 -0.1293
 1168loPI   C1B18017   9.213  14.379   5.893 -0.0227  0.3073  0.2786
 1168loPI   C2B18018   9.342  14.407   6.297  0.1244 -0.3165  0.0495
 1168loPI   C3B18019   9.752  14.565   6.458  0.4437  0.0339 -0.2001
 1168loPI   C4B18020  10.041  14.408   6.733 -0.2746 -0.0063  0.1472
 1169loPI    C118021   1.476   4.419   4.762 -0.2524  0.1952  0.1754
 1169loPI    C218022   1.327   4.365   4.394 -0.0928  0.3080  0.0930
 1169loPI    C318023   1.591   4.104   4.544 -0.1145  0.2930  0.1052
 1169loPI   PO418024   1.338   4.521   4.935 -0.1063 -0.1024  0.0242
 1169loPI   GL118025   0.951   4.410   5.218  0.0596 -0.1256  0.2585
 1169loPI   GL218026   1.124   4.635   5.397  0.0603 -0.0188 -0.0080
 1169loPI   C1A18027   0.955   4.251   5.693  0.0050 -0.1774  0.1622
 1169loPI   C2A18028   1.010   4.277   6.031  0.1481 -0.1752  0.0744
 1169loPI   C3A18029   0.982   4.280   6.364 -0.4102 -0.1509  0.1193
 1169loPI   C4A18030   1.006   4.127   6.593 -0.0609 -0.0282 -0.1071
 1169loPI   C5A18031   1.207   4.134   6.961  0.0029  0.1197  0.0689
 1169loPI   C6A18032   1.519   4.121   7.350 -0.1656  0.3085  0.3385
 1169loPI   C1B18033   1.285   4.639   5.849 -0.1983 -0.2060 -0.1593
 1169loPI   C2B18034   1.358   4.699   6.244 -0.3701  0.0722 -0.2457
 1169loPI   C3B18035   1.143   4.747   6.627 -0.1223 -0.1010  0.1354
 1169loPI   C4B18036   0.729   4.519   6.772 -0.3066  0.0647 -0.0764
 1170loPI    C118037   8.235   0.504   4.772  0.1511 -0.0675  0.0912
 1170loPI    C218038   8.598   0.625   4.654  0.0335  0.1102 -0.0950
 1170loPI    C318039   8.335   0.891   4.796 -0.0280 -0.0165  0.0313
 1170loPI   PO418040   8.309   0.333   4.953 -0.0479  0.0847  0.0882
 1170loPI   GL118041   8.415   0.211   5.361 -0.1154 -0.0893 -0.3300
 1170loPI   GL218042   8.062   0.209   5.377 -0.2048  0.3508  0.2969
 1170loPI   C1A18043   8.349   0.100   5.774 -0.0225 -0.3295 -0.4497
 1170loPI   C2A18044   8.258  -0.225   5.989  0.2020  0.0185  0.0011
 1170loPI   C3A18045   8.373  -0.395   6.412  0.1214 -0.0667 -0.2011
 1170loPI   C4A18046   8.086  -0.390   6.784  0.1623  0.2362 -0.2191
 1170loPI   C5A18047   7.988  -0.456   7.181 -0.0275 -0.1555 -0.3893
 1170loPI   C6A18048   7.737  -0.448   7.503 -0.0530  0.2259  0.0130
 1170loPI   C1B18049   7.991   0.434   5.736 -0.1590 -0.0730 -0.0167
 1170loPI   C2B18050   7.969   0.360   6.183 -0.4106  0.2147  0.3035
 1170loPI   C3B18051   7.850   0.002   6.424 -0.1878  0.0641  0.4101
 1170loPI   C4B18052   7.895  -0.464   6.284 -0.0058  0.0789 -0.0026
 1171loPI    C118053  18.954  12.142   5.432  0.2853 -0.3423 -0.1626
 1171loPI    C218054  19.220  12.390   5.600 -0.2208  0.0537  0.0809
 1171loPI    C318055  19.136  12.421   5.210 -0.0927  0.0914  0.0559
 1171loPI   PO418056  19.001  11.928   5.562  0.0252 -0.1352 -0.1993
 1171loPI   GL118057  19.257  11.992   5.951 -0.1268  0.0559  0.3608
 1171loPI   GL218058  19.597  11.915   5.997  0.0552 -0.1075 -0.0674
 1171loPI   C1A18059  19.380  11.887   6.446  0.1422  0.0039 -0.0240
 1171loPI   C2A18060  19.743  11.873   6.646  0.3104 -0.0206  0.0830
 1171loPI   C3A18061  19.982  11.561   6.763 -0.0343 -0.1392  0.0167
 1171loPI   C4A18062  20.197  11.496   7.227 -0.2476 -0.2456  0.2488
 1171loPI   C5A18063  20.255  11.176   7.506 -0.0640 -0.3344  0.0180
 1171loPI   C6A18064  20.486  10.987   7.885 -0.0235 -0.1057 -0.3059
 1171loPI   C1B18065  19.528  12.346   6.162  0.0312  0.1594  0.0136
 1171loPI   C2B18066  19.448  12.644   6.427 -0.2569  0.3724  0.1969
 1171loPI   C3B18067  19.431  13.014   6.515 -0.0423 -0.2041 -0.1484
 1171loPI   C4B18068  19.583  13.425   6.360 -0.0612  0.1275 -0.2948
 1172loPI    C118069   0.362  13.171   5.323  0.0131 -0.1164  0.0047
 1172loPI    C218070   0.176  12.826   5.407 -0.0783 -0.0431  0.1071
 1172loPI    C318071  -0.005  13.174   5.483 -0.0013  0.0280 -0.0303
 1172loPI   PO418072   0.550  13.175   5.424 -0.0826 -0.1382 -0.2858
 1172loPI   GL118073   0.805  13.061   5.843 -0.1586  0.3223  0.1608
 1172loPI   GL218074   1.118  12.838   5.881 -0.0629  0.1683 -0.4637
 1172loPI   C1A18075   1.070  13.339   6.090 -0.1107 -0.1895 -0.2676
 1172loPI   C2A18076   1.191  13.567   6.471  0.0922  0.3234 -0.0400
 1172loPI   C3A18077   1.357  13.903   6.794 -0.1042  0.0864 -0.1727
 1172loPI   C4A18078   1.433  13.900   7.152  0.1765 -0.0927 -0.1113
 1172loPI   C5A18079   1.699  13.856   7.564  0.0265  0.3206  0.3775
 1172loPI   C6A18080   2.130  14.053   7.822 -0.0281  0.2077  0.1547
 1172loPI   C1B18081   1.183  12.712   6.282  0.1908 -0.0704 -0.2863
 1172loPI   C2B18082   1.092  12.496   6.677  0.0975  0.2932  0.2029
 1172loPI   C3B18083   0.866  12.342   7.082  0.0922  0.2868  0.2093
 1172loPI   C4B18084   0.536  12.467   7.207 -0.0882 -0.1994 -0.1086
 1173loPI    C118085   4.193   8.224   4.784 -0.0929  0.1594 -0.0347
 1173loPI    C218086   4.092   7.917   4.549 -0.0400 -0.0009  0.1494
 1173loPI    C318087   3.957   8.284   4.468  0.1366 -0.0179 -0.2438
 1173loPI   PO418088   4.152   8.051   5.028  0.0498 -0.3490  0.0265
 1173loPI   GL118089   4.255   8.105   5.346  0.4247 -0.1827 -0.1481
 1173loPI   GL218090   4.364   8.282   5.473 -0.1367  0.5399  0.0178
 1173loPI   C1A18091   4.144   7.854   5.733  0.0663 -0.0229  0.1371
 1173loPI   C2A18092   4.254   7.889   6.132 -0.0259  0.0884  0.2296
 1173loPI   C3A18093   4.494   7.909   6.585 -0.0028 -0.0867 -0.0228
 1173loPI   C4A18094   4.300   7.765   6.921 -0.1242 -0.0513  0.1832
 1173loPI   C5A18095   3.920   7.797   7.179  0.1286 -0.3180  0.0864
 1173loPI   C6A18096   3.562   7.582   7.313 -0.2796 -0.2469  0.1358
 1173loPI   C1B18097   4.184   8.432   5.824  0.2603 -0.0698 -0.1131
 1173loPI   C2B18098   4.281   8.330   6.279 -0.2393 -0.1079  0.1334
 1173loPI   C3B18099   4.307   8.512   6.641  0.0111  0.5527  0.1146
 1173loPI   C4B18100   4.312   8.757   7.038  0.1280  0.0960  0.0642
 1174loPI    C118101   0.762   2.227   4.571  0.1413  0.0508  0.0041
 1174loPI    C218102   0.834   2.527   4.318  0.2446 -0.0692 -0.1103
 1174loPI    C318103   1.103   2.434   4.598  0.2753 -0.1442 -0.1645
 1174loPI   PO418104   0.517   2.280   4.743  0.2326 -0.2140 -0.0778
 1174loPI   GL118105   0.683   2.166   5.191  0.1450  0.0605  0.1447
 1174loPI   GL218106   0.790   1.839   5.254 -0.2513  0.0142  0.3151
 1174loPI   C1A18107   0.398   2.322   5.562  0.2068  0.4263 -0.3860
 1174loPI   C2A18108   0.505   2.292   5.987 -0.1941  0.1204 -0.0252
 1174loPI   C3A18109   0.613   2.271   6.462  0.1437  0.0706 -0.2022
 1174loPI   C4A18110   0.707   2.019   6.806 -0.2762  0.1403  0.2499
 1174loPI   C5A18111   0.901   2.117   7.280  0.1185 -0.0825  0.1014
 1174loPI   C6A18112   1.289   2.298   7.498  0.2197  0.1979 -0.1001
 1174loPI   C1B18113   0.689   1.554   5.539 -0.3127  0.0334 -0.0167
 1174loPI   C2B18114   0.581   1.342   5.953 -0.0137 -0.0403  0.3264
 1174loPI   C3B18115   0.725   1.401   6.352  0.1709 -0.0820  0.1393
 1174loPI   C4B18116   0.821   1.466   6.747  0.2698  0.1950  0.0071
 1175loPI    C118117   3.063   3.830   4.625  0.1313  0.0471 -0.2041
 1175loPI    C218118   3.429   3.708   4.519  0.1655 -0.2375  0.2182
 1175loPI    C318119   3.126   3.446   4.530 -0.1153  0.0440 -0.3658
 1175loPI   PO418120   3.101   4.053   4.845  0.3685 -0.0067  0.2024
 1175loPI   GL118121   3.129   4.012   5.252 -0.0541 -0.2191 -0.0332
 1175loPI   GL218122   3.205   4.067   5.463 -0.1436 -0.0693  0.2275
 1175loPI   C1A18123   2.793   3.949   5.593  0.2921  0.2229 -0.1255
 1175loPI   C2A18124   2.700   3.907   6.006 -0.2176 -0.1856 -0.0610
 1175loPI   C3A18125   2.663   3.648   6.391  0.1920  0.0130 -0.1278
 1175loPI   C4A18126   2.675   3.550   6.847  0.0167 -0.1071 -0.1236
 1175loPI   C5A18127   2.932   3.227   7.039 -0.0545  0.2457 -0.1868
 1175loPI   C6A18128   3.304   3.203   7.200  0.0834 -0.1503 -0.1419
 1175loPI   C1B18129   3.439   3.982   5.844 -0.0796 -0.1855 -0.0595
 1175loPI   C2B18130   3.384   3.959   6.118 -0.2060 -0.1629 -0.0308
 1175loPI   C3B18131   3.422   4.128   6.504 -0.0936  0.1367  0.0884
 1175loPI   C4B18132   3.675   4.234   6.837 -0.2090 -0.1627 -0.0800
 1176loPI    C118133  14.126  14.072   4.732  0.1077  0.1213  0.0963
 1176loPI    C218134  14.066  14.359   4.459 -0.0292 -0.1685 -0.1851
 1176loPI    C318135  14.119  13.980   4.343 -0.1502 -0.3071  0.1962
 1176loPI   PO418136  14.016  14.196   4.958  0.3786 -0.2406  0.1679
 1176loPI   GL118137  14.131  14.479   5.321 -0.0224  0.1573  0.2567
 1176loPI   GL218138  14.436  14.399   5.266  0.0964  0.1072  0.1663
 1176loPI   C1A18139  13.965  14.409   5.717  0.2897  0.0381 -0.0169
 1176loPI   C2A18140  13.834  14.335   6.141  0.3300 -0.4717  0.1338
 1176loPI   C3A18141  13.754  14.092   6.367  0.0618 -0.1105 -0.3324
 1176loPI   C4A18142  13.318  13.957   6.429 -0.2876  0.1868  0.0787
 1176loPI   C5A18143  13.225  13.851   6.775  0.2015  0.0031  0.1215
 1176loPI   C6A18144  13.089  13.793   7.233  0.1042 -0.0402  0.0919
 1176loPI   C1B18145  14.461  14.316   5.705 -0.6023  0.1049  0.0526
 1176loPI   C2B18146  14.614  14.535   5.988  0.2707  0.0616  0.0571
 1176loPI   C3B18147  14.783  14.410   6.369 -0.1236  0.0888 -0.0821
 1176loPI   C4B18148  14.932  14.414   6.751 -0.0084 -0.1270  0.1187
 1177loPI    C118149   1.820   2.850   4.679  0.1289  0.1211  0.0381
 1177loPI    C218150   2.217   2.827   4.722  0.1204 -0.0330  0.0406
 1177loPI    C318151   2.057   3.109   4.488  0.2211  0.1491  0.1889
 1177loPI   PO418152   1.720   2.928   4.933 -0.1686  0.1834  0.2507
 1177loPI   GL118153   1.929   3.091   5.385 -0.1926  0.1587  0.1519
 1177loPI   GL218154   2.024   3.397   5.349  0.2663  0.2521 -0.1731
 1177loPI   C1A18155   1.936   2.969   5.748  0.2360 -0.0005  0.0373
 1177loPI   C2A18156   1.848   2.994   6.257  0.1260  0.2426 -0.1249
 1177loPI   C3A18157   1.774   3.165   6.556 -0.3247  0.0113  0.0985
 1177loPI   C4A18158   1.648   3.390   7.037 -0.2376  0.3513 -0.3588
 1177loPI   C5A18159   1.531   3.538   7.421 -0.2581 -0.0622  0.0214
 1177loPI   C6A18160   1.690   3.367   7.752 -0.0848  0.1837  0.3498
 1177loPI   C1B18161   1.766   3.662   5.539 -0.2670  0.2031 -0.1515
 1177loPI   C2B18162   1.653   3.663   5.953 -0.1568  0.0921 -0.1368
 1177loPI   C3B18163   1.708   3.670   6.466  0.0024 -0.1328  0.1743
 1177loPI   C4B18164   1.696   3.912   6.865  0.1646 -0.3726 -0.1946
 1178loPI    C118165  13.091  15.710   5.238  0.1240  0.0941 -0.2488
 1178loPI    C218166  13.312  15.635   4.913  0.1092 -0.0140 -0.2341
 1178loPI    C318167  13.162  16.001   4.972 -0.0423 -0.0406 -0.4437
 1178loPI   PO418168  12.889  15.571   5.349 -0.2763 -0.0286 -0.0677
 1178loPI   GL118169  12.886  15.560   5.745  0.3830 -0.2091 -0.1087
 1178loPI   GL218170  13.216  15.566   5.737 -0.1367  0.2577  0.0846
 1178loPI   C1A18171  12.743  15.727   6.163 -0.0060 -0.0409  0.2040
 1178loPI   C2A18172  12.470  15.529   6.397 -0.2420  0.0508 -0.3706
 1178loPI   C3A18173  12.171  15.433   6.723 -0.0414  0.1536  0.0093
 1178loPI   C4A18174  12.146  15.258   7.050  0.5344  0.0232  0.0541
 1178loPI   C5A18175  11.749  15.002   7.190 -0.1233 -0.3354  0.0940
 1178loPI   C6A18176  11.552  14.630   7.223 -0.1615  0.1790 -0.0901
 1178loPI   C1B18177  13.209  15.471   6.125  0.2803  0.3174  0.0469
 1178loPI   C2B18178  13.287  15.578   6.609 -0.1969  0.2560 -0.2595
 1178loPI   C3B18179  13.245  15.520   7.080 -0.2053  0.0391  0.0895
 1178loPI   C4B18180  13.534  15.443   7.366  0.1812 -0.2437 -0.0101
 1179loPI    C118181   3.731  16.396   5.024 -0.1804  0.0936 -0.0533
 1179loPI    C218182   3.828  16.729   4.825 -0.0750 -0.0447 -0.2366
 1179loPI    C318183   3.882  16.372   4.654 -0.2946 -0.1522 -0.0856
 1179loPI   PO418184   3.795  16.487   5.333 -0.0981 -0.1827 -0.2124
 1179loPI   GL118185   4.035  16.637   5.557 -0.2641  0.1853  0.0285
 1179loPI   GL218186   4.273  16.485   5.718 -0.3065 -0.1416 -0.2414
 1179loPI   C1A18187   4.002  16.836   6.050  0.3127  0.1224  0.3341
 1179loPI   C2A18188   4.188  16.853   6.455 -0.0098  0.0024  0.1024
 1179loPI   C3A18189   4.319  17.076   6.803 -0.1258 -0.0260 -0.1870
 1179loPI   C4A18190   4.396  16.889   7.251  0.0176  0.1894 -0.1807
 1179loPI   C5A18191   4.203  16.522   7.544 -0.4160  0.2152  0.2151
 1179loPI   C6A18192   4.238  16.117   7.753 -0.1997  0.0717 -0.1158
 1179loPI   C1B18193   4.517  16.847   5.898 -0.1573  0.2402  0.0545
 1179loPI   C2B18194   4.661  16.945   6.285 -0.1585  0.1457  0.1952
 1179loPI   C3B18195   4.743  16.829   6.590 -0.1120 -0.0627  0.2868
 1179loPI   C4B18196   4.847  16.841   6.932 -0.0295  0.2856  0.0065
 1180loPI    C118197  14.477   4.859   4.757  0.1035 -0.2609  0.0933
 1180loPI    C218198  14.681   5.126   4.539 -0.0885 -0.1465  0.0514
 1180loPI    C318199  14.857   4.785   4.653 -0.0097 -0.2455 -0.3513
 1180loPI   PO418200  14.427   5.047   4.975 -0.1443  0.1049 -0.1131
 1180loPI   GL118201  14.338   5.247   5.274 -0.2011  0.3381  0.1635
 1180loPI   GL218202  14.448   5.599   5.480 -0.0705  0.0434 -0.4997
 1180loPI   C1A18203  13.999   5.205   5.554 -0.4345 -0.0802 -0.0197
 1180loPI   C2A18204  13.973   5.269   6.025  0.1788 -0.0212 -0.1594
 1180loPI   C3A18205  14.085   5.248   6.523  0.0762  0.1170 -0.1892
 1180loPI   C4A18206  13.940   5.299   6.923  0.3922  0.2234  0.6769
 1180loPI   C5A18207  14.207   5.332   7.287 -0.0695 -0.1172 -0.0272
 1180loPI   C6A18208  14.588   5.098   7.610 -0.0356 -0.2197  0.2029
 1180loPI   C1B18209  14.492   5.594   5.919  0.4095  0.0920  0.0185
 1180loPI   C2B18210  14.489   5.636   6.409  0.1971 -0.0813 -0.0243
 1180loPI   C3B18211  14.322   5.686   6.840 -0.0795  0.1025 -0.0641
 1180loPI   C4B18212  13.980   5.815   7.237 -0.0535 -0.1578 -0.1463
 1181loPI    C118213   1.088  16.518   4.881 -0.0021 -0.1257  0.0125
 1181loPI    C218214   1.124  16.200   5.121  0.1112 -0.1551 -0.0425
 1181loPI    C318215   1.425  16.303   4.879  0.0153 -0.0983 -0.1387
 1181loPI   PO418216   0.971  16.756   5.105 -0.4491 -0.0561 -0.1128
 1181loPI   GL118217   0.846  16.909   5.570  0.0907 -0.0012  0.2098
 1181loPI   GL218218   0.890  16.788   5.695  0.2124  0.0562 -0.4209
 1181loPI   C1A18219   0.807  17.268   5.899 -0.0233  0.2426  0.2030
 1181loPI   C2A18220   0.596  17.389   6.221  0.0593 -0.1308  0.0454
 1181loPI   C3A18221   0.445  17.285   6.682 -0.1545 -0.0624  0.1330
 1181loPI   C4A18222  -0.069  17.256   6.859  0.0198 -0.2370  0.1080
 1181loPI   C5A18223  -0.187  17.488   7.113 -0.1287  0.1432 -0.0565
 1181loPI   C6A18224  -0.326  17.854   7.434 -0.0717  0.0632 -0.1652
 1181loPI   C1B18225   0.869  16.822   6.179 -0.1602 -0.1608  0.1933
 1181loPI   C2B18226   0.820  16.943   6.589  0.2075  0.1977 -0.0393
 1181loPI   C3B18227   0.596  16.923   6.976 -0.2871  0.1838  0.2905
 1181loPI   C4B18228   0.443  16.615   7.310 -0.0448  0.0060  0.1749
 1182loPI    C118229   8.871  10.797   4.779  0.0796  0.0720 -0.2694
 1182loPI    C218230   8.494  10.706   4.877  0.1530  0.0675  0.0173
 1182loPI    C318231   8.567  10.954   4.572 -0.0791  0.0144 -0.0833
 1182loPI   PO418232   8.932  10.984   4.981 -0.2229  0.2574  0.3247
 1182loPI   GL118233   8.942  11.117   5.287  0.2541 -0.0938 -0.0028
 1182loPI   GL218234   8.802  10.800   5.465 -0.5971 -0.0288  0.2215
 1182loPI   C1A18235   9.185  11.346   5.490 -0.3912  0.0748  0.0395
 1182loPI   C2A18236   9.257  11.474   5.831  0.0020 -0.0611 -0.0973
 1182loPI   C3A18237   9.171  11.563   6.304  0.1083  0.2382  0.0921
 1182loPI   C4A18238   9.200  11.424   6.702 -0.0910 -0.2143 -0.0565
 1182loPI   C5A18239   8.991  11.552   7.121 -0.1813 -0.3251  0.1316
 1182loPI   C6A18240   9.096  11.735   7.510 -0.3865 -0.1591 -0.4337
 1182loPI   C1B18241   9.125  10.973   5.813  0.0061 -0.0995 -0.0653
 1182loPI   C2B18242   9.305  11.044   6.256  0.1528  0.1103  0.0365
 1182loPI   C3B18243   9.652  11.138   6.495 -0.0590  0.1052 -0.0968
 1182loPI   C4B18244   9.986  11.247   6.669 -0.2739 -0.1025 -0.0085
 1183loPI    C118245   2.306  17.683   4.961  0.1941  0.0213 -0.1502
 1183loPI    C218246   1.985  17.645   4.726 -0.1435  0.1547  0.2750
 1183loPI    C318247   2.167  17.320   4.872 -0.0838  0.0790  0.0365
 1183loPI   PO418248   2.216  17.909   5.089  0.1312  0.1978  0.1426
 1183loPI   GL118249   2.024  17.875   5.506 -0.4356  0.3280 -0.3304
 1183loPI   GL218250   2.399  18.159   5.525  0.1425 -0.0025  0.0451
 1183loPI   C1A18251   2.106  17.832   5.891  0.1548  0.1129  0.1872
 1183loPI   C2A18252   2.428  18.040   6.126 -0.3135 -0.1462  0.1053
 1183loPI   C3A18253   2.711  18.123   6.361  0.0852 -0.3719 -0.0739
 1183loPI   C4A18254   2.855  18.011   6.848  0.2440 -0.2950 -0.0308
 1183loPI   C5A18255   2.916  17.879   7.275 -0.0668 -0.3778 -0.1053
 1183loPI   C6A18256   2.642  18.045   7.604 -0.3111  0.1941 -0.1749
 1183loPI   C1B18257   2.077  18.326   5.868 -0.2141  0.1260 -0.0132
 1183loPI   C2B18258   2.001  18.385   6.325  0.1537 -0.0130 -0.5340
 1183loPI   C3B18259   1.728  18.411   6.672  0.0219 -0.4317  0.2071
 1183loPI   C4B18260   1.431  18.514   6.956 -0.2407  0.1944  0.0765
 1184loPI    C118261   4.683  14.209   4.948  0.0273  0.1383  0.0358
 1184loPI    C218262   4.930  13.988   4.724 -0.0786 -0.1110  0.1609
 1184loPI    C318263   5.025  14.366   4.813  0.0205 -0.0467 -0.2029
 1184loPI   PO418264   4.511  14.001   5.024  0.1395 -0.5839 -0.1236
 1184loPI   GL118265   4.379  13.788   5.322 -0.3354 -0.3402  0.2422
 1184loPI   GL218266   4.305  13.607   5.444  0.0938  0.4128  0.0341
 1184loPI   C1A18267   4.124  14.025   5.660  0.1783 -0.1252  0.3803
 1184loPI   C2A18268   3.970  14.080   6.073 -0.2552 -0.0648  0.1532
 1184loPI   C3A18269   4.129  14.145   6.459  0.1232 -0.1522  0.1749
 1184loPI   C4A18270   4.484  14.249   6.804  0.0876  0.0075  0.1391
 1184loPI   C5A18271   4.361  13.997   7.302  0.0274  0.1924 -0.1118
 1184loPI   C6A18272   4.639  13.765   7.506  0.0544 -0.0447 -0.3008
 1184loPI   C1B18273   4.640  13.853   5.814 -0.3275  0.0545  0.0676
 1184loPI   C2B18274   4.919  14.260   5.899  0.0606  0.1768 -0.1853
 1184loPI   C3B18275   5.103  14.348   6.257 -0.3153 -0.0638  0.0718
 1184loPI   C4B18276   5.491  14.309   6.373 -0.0610  0.1309  0.0968
 1185loPI    C118277  17.036   0.890   4.851 -0.1220  0.2691  0.1253
 1185loPI    C218278  16.953   0.700   4.508 -0.1322  0.1036  0.2181
 1185loPI    C318279  16.812   1.070   4.572 -0.1911  0.1066  0.0744
 1185loPI   PO418280  17.012   0.708   5.066 -0.0908  0.3636  0.2098
 1185loPI   GL118281  17.044   0.912   5.383  0.0780 -0.1928  0.2183
 1185loPI   GL218282  17.243   1.153   5.622  0.0326 -0.0098 -0.1811
 1185loPI   C1A18283  16.905   0.918   5.847 -0.2851 -0.1089  0.0205
 1185loPI   C2A18284  16.904   0.843   6.205  0.0603  0.2305  0.3241
 1185loPI   C3A18285  17.114   0.519   6.399 -0.0725  0.0687  0.2691
 1185loPI   C4A18286  17.183   0.290   6.856  0.1437 -0.1749  0.2092
 1185loPI   C5A18287  17.499   0.123   7.227 -0.1704  0.2038  0.0081
 1185loPI   C6A18288  17.920   0.001   7.481  0.2444  0.2186 -0.0902
 1185loPI   C1B18289  17.421   1.131   6.004 -0.2464  0.1400 -0.0761
 1185loPI   C2B18290  17.308   1.108   6.444 -0.1057  0.2111 -0.0232
 1185loPI   C3B18291  17.239   0.835   6.796 -0.0974  0.0831 -0.0416
 1185loPI   C4B18292  17.537   0.650   7.046  0.0184  0.2718 -0.2249
 1186loPI    C118293   3.006  15.749   5.068 -0.1245  0.3615  0.1253
 1186loPI    C218294   2.810  15.477   5.287  0.2628  0.1450  0.2126
 1186loPI    C318295   2.931  15.386   4.917  0.0772  0.3275  0.1047
 1186loPI   PO418296   3.235  15.773   5.257  0.1702 -0.0595 -0.0346
 1186loPI   GL118297   3.269  15.711   5.665  0.2464 -0.0576 -0.2694
 1186loPI   GL218298   2.880  15.773   5.687 -0.1096  0.2407  0.0797
 1186loPI   C1A18299   3.191  15.519   6.024 -0.1814  0.1795  0.2177
 1186loPI   C2A18300   3.279  15.760   6.388 -0.0062 -0.1505  0.2910
 1186loPI   C3A18301   3.033  15.802   6.804 -0.2928  0.3080  0.1115
 1186loPI   C4A18302   3.057  16.110   7.192  0.1137 -0.1419  0.0024
 1186loPI   C5A18303   3.297  16.223   7.455 -0.4500 -0.0786 -0.1467
 1186loPI   C6A18304   3.775  16.336   7.594 -0.2200 -0.3433 -0.0046
 1186loPI   C1B18305   2.803  15.866   6.064 -0.1578 -0.0329  0.1842
 1186loPI   C2B18306   2.639  15.904   6.445 -0.0868 -0.1613 -0.0276
 1186loPI   C3B18307   2.536  15.868   6.964 -0.2960 -0.0287 -0.1502
 1186loPI   C4B18308   2.813  15.594   7.251 -0.1650 -0.0366 -0.1998
 1187loPI    C118309  18.994   1.771   4.415 -0.1393  0.0995 -0.2489
 1187loPI    C218310  18.879   2.133   4.541 -0.0605  0.0588 -0.0566
 1187loPI    C318311  18.621   1.898   4.345 -0.1697  0.1434 -0.0159
 1187loPI   PO418312  19.250   1.826   4.626 -0.1412  0.0685  0.0720
 1187loPI   GL118313  19.116   1.956   4.984  0.3813 -0.0350 -0.2312
 1187loPI   GL218314  19.361   2.230   5.046  0.2097 -0.0103 -0.2383
 1187loPI   C1A18315  19.387   1.862   5.335  0.2377  0.0773  0.1279
 1187loPI   C2A18316  19.560   1.862   5.737  0.1291  0.0392  0.0978
 1187loPI   C3A18317  19.892   1.874   5.982 -0.0578  0.1025  0.0975
 1187loPI   C4A18318  20.184   1.866   6.417  0.0658 -0.0549  0.2925
 1187loPI   C5A18319  20.334   1.797   6.801  0.2283 -0.0080 -0.1850
 1187loPI   C6A18320  20.313   1.590   7.248 -0.0080  0.4416  0.0595
 1187loPI   C1B18321  19.048   2.357   5.404  0.1243  0.0020 -0.0784
 1187loPI   C2B18322  19.163   2.271   5.818 -0.2231  0.1676  0.0016
 1187loPI   C3B18323  19.342   1.969   6.221  0.2905 -0.5501  0.0603
 1187loPI   C4B18324  19.621   1.811   6.449 -0.2772  0.1842  0.2021
 1188loPI    C118325  10.197  14.694   5.001 -0.0431 -0.1142 -0.1120
 1188loPI    C218326   9.952  14.430   5.177  0.0410 -0.0663  0.0802
 1188loPI    C318327   9.882  14.549   4.801 -0.2270 -0.0570  0.1315
 1188loPI   PO418328  10.395  14.649   5.039  0.2167 -0.2320  0.3173
 1188loPI   GL118329  10.326  14.689   5.553 -0.3218  0.1259 -0.1104
 1188loPI   GL218330  10.460  14.422   5.617 -0.1703  0.1550 -0.0583
 1188loPI   C1A18331  10.103  14.811   5.924 -0.2090  0.0484  0.0660
 1188loPI   C2A18332   9.837  15.017   6.207 -0.0256  0.1373  0.0806
 1188loPI   C3A18333   9.509  15.047   6.544 -0.2102 -0.0975  0.1154
 1188loPI   C4A18334   9.496  15.061   6.990  0.1440  0.2006  0.0812
 1188loPI   C5A18335   9.367  15.337   7.231 -0.0911  0.2080  0.2216
 1188loPI   C6A18336   9.361  15.648   7.591  0.0861 -0.2766 -0.0301
 1188loPI   C1B18337  10.228  14.224   5.874 -0.4888  0.0453  0.3245
 1188loPI   C2B18338  10.189  14.365   6.250 -0.0216 -0.1221 -0.1510
 1188loPI   C3B18339  10.437  14.621   6.581  0.0302  0.0655 -0.1194
 1188loPI   C4B18340  10.427  15.021   6.778 -0.0805  0.3198 -0.0892
 1189loPI    C118341  16.219   3.999   4.389  0.0919 -0.0531 -0.1353
 1189loPI    C218342  16.201   3.836   4.024 -0.2946 -0.1817 -0.0635
 1189loPI    C318343  15.903   4.069   4.155  0.0004  0.1449  0.0441
 1189loPI   PO418344  16.267   3.794   4.604  0.1050  0.0946  0.0802
 1189loPI   GL118345  16.072   3.697   5.019  0.3106  0.3382 -0.2562
 1189loPI   GL218346  15.850   3.546   5.291 -0.1648 -0.2482  0.5411
 1189loPI   C1A18347  16.248   3.862   5.537 -0.0261 -0.0395  0.1440
 1189loPI   C2A18348  16.556   4.179   5.616 -0.0340  0.0289 -0.2368
 1189loPI   C3A18349  16.814   4.323   6.061 -0.0969 -0.1963  0.0123
 1189loPI   C4A18350  17.010   4.393   6.458 -0.2786 -0.4734  0.0907
 1189loPI   C5A18351  17.240   4.585   6.760 -0.1285  0.1266 -0.1494
 1189loPI   C6A18352  17.460   4.679   7.126  0.0755  0.0146 -0.4712
 1189loPI   C1B18353  15.978   3.322   5.556 -0.0463  0.0745 -0.0039
 1189loPI   C2B18354  16.074   3.260   5.992 -0.0900  0.0461 -0.0145
 1189loPI   C3B18355  15.921   2.943   6.165 -0.1613 -0.0662 -0.2899
 1189loPI   C4B18356  15.594   2.616   5.974  0.4381  0.0257  0.1973
 1190loPI    C118357   1.390   3.543   4.819  0.2881  0.1206  0.0121
 1190loPI    C218358   1.532   3.296   4.538 -0.2802 -0.3402  0.1096
 1190loPI    C318359   1.152   3.421   4.521 -0.1022  0.2537  0.2609
 1190loPI   PO418360   1.358   3.446   5.001  0.3117  0.1079  0.3097
 1190loPI   GL118361   1.529   3.349   5.283  0.1259 -0.0278  0.0783
 1190loPI   GL218362   1.267   3.704   5.411 -0.1669  0.0031  0.0577
 1190loPI   C1A18363   1.463   3.134   5.616 -0.0625 -0.0293 -0.0958
 1190loPI   C2A18364   1.381   3.129   6.022 -0.3046  0.2543 -0.0639
 1190loPI   C3A18365   1.309   3.209   6.423  0.2214 -0.5427 -0.2984
 1190loPI   C4A18366   1.229   3.191   6.798 -0.3547 -0.0727  0.0332
 1190loPI   C5A18367   1.025   3.178   7.074  0.1037  0.1850  0.3221
 1190loPI   C6A18368   0.722   2.953   7.335 -0.0238 -0.2022  0.3903
 1190loPI   C1B18369   1.177   3.824   5.821  0.0888 -0.0313 -0.3328
 1190loPI   C2B18370   1.236   3.786   6.269 -0.3040  0.0356  0.1760
 1190loPI   C3B18371   1.286   3.656   6.666  0.0225  0.0947 -0.0807
 1190loPI   C4B18372   1.170   3.631   7.078  0.1078  0.0874 -0.0812
 1191loPI    C118373  17.338   1.232   5.148  0.0541  0.1819 -0.0301
 1191loPI    C218374  17.045   1.466   5.288 -0.0884 -0.0241  0.0205
 1191loPI    C318375  17.139   1.473   4.899 -0.1089  0.0976  0.0173
 1191loPI   PO418376  17.606   1.276   5.319  0.1315  0.0237 -0.0071
 1191loPI   GL118377  17.772   1.510   5.599  0.3011  0.0490 -0.1327
 1191loPI   GL218378  17.451   1.653   5.779  0.2214  0.1226  0.1555
 1191loPI   C1A18379  17.901   1.457   6.033 -0.4968  0.1557 -0.0850
 1191loPI   C2A18380  17.839   1.292   6.371  0.0341  0.2854  0.0371
 1191loPI   C3A18381  17.742   1.040   6.751  0.1459  0.0225  0.0011
 1191loPI   C4A18382  17.707   1.129   7.142  0.1234 -0.0398 -0.0228
 1191loPI   C5A18383  17.784   0.983   7.611  0.0157 -0.0982  0.0679
 1191loPI   C6A18384  18.025   1.326   7.827  0.4414 -0.4358 -0.4276
 1191loPI   C1B18385  17.471   1.579   6.175  0.1924  0.0305 -0.1262
 1191loPI   C2B18386  17.441   1.615   6.516  0.1620  0.0630  0.1584
 1191loPI   C3B18387  17.646   1.534   6.819 -0.0183  0.2794 -0.1543
 1191loPI   C4B18388  18.006   1.546   7.079 -0.1717  0.0271 -0.1697
 1192loPI    C118389   7.123  15.322   5.348 -0.1549 -0.1233  0.0289
 1192loPI    C218390   7.115  15.357   4.950  0.1494  0.0928  0.0385
 1192loPI    C318391   7.275  15.032   5.119  0.1327  0.0573 -0.0140
 1192loPI   PO418392   7.101  15.686   5.429 -0.0537  0.1313  0.2503
 1192loPI   GL118393   7.325  15.669   5.842  0.2688 -0.0258 -0.0662
 1192loPI   GL218394   7.233  15.919   6.241 -0.0169 -0.1302  0.0230
 1192loPI   C1A18395   7.684  15.395   5.941 -0.0067  0.2002  0.5869
 1192loPI   C2A18396   7.769  15.026   6.312  0.1763  0.2612 -0.1372
 1192loPI   C3A18397   7.664  15.094   6.793  0.0311  0.2917 -0.0384
 1192loPI   C4A18398   7.821  14.809   7.028 -0.0541 -0.1786  0.2572
 1192loPI   C5A18399   8.174  14.552   6.884  0.0692  0.2294 -0.0732
 1192loPI   C6A18400   8.240  14.551   6.443  0.0686  0.3702 -0.4275
 1192loPI   C1B18401   7.287  16.051   6.602 -0.1218  0.0294 -0.1896
 1192loPI   C2B18402   7.274  16.276   6.941  0.2704 -0.2052 -0.1364
 1192loPI   C3B18403   7.181  16.540   7.268  0.1132 -0.1074  0.1021
 1192loPI   C4B18404   6.894  16.723   7.544  0.0726  0.2144 -0.0109
 1193loPI    C118405   9.674   3.164   4.926  0.1224 -0.4885 -0.1339
 1193loPI    C218406   9.969   3.313   4.700 -0.2060  0.0616 -0.2154
 1193loPI    C318407   9.678   3.097   4.531 -0.2363  0.1339 -0.2563
 1193loPI   PO418408   9.586   3.395   5.060 -0.0902  0.0537  0.0633
 1193loPI   GL118409   9.691   3.550   5.421  0.1630  0.1085 -0.0904
 1193loPI   GL218410   9.573   3.780   5.547  0.0061 -0.4064 -0.2271
 1193loPI   C1A18411   9.859   3.376   5.685 -0.1832 -0.2587  0.0281
 1193loPI   C2A18412   9.921   3.239   6.169 -0.1301 -0.3180  0.0409
 1193loPI   C3A18413  10.127   3.277   6.584 -0.1971 -0.1245  0.2048
 1193loPI   C4A18414  10.208   3.167   7.048  0.0428 -0.2049  0.1111
 1193loPI   C5A18415   9.851   3.308   7.374 -0.0667  0.0334  0.0937
 1193loPI   C6A18416   9.444   3.356   7.666  0.0855 -0.2628  0.1491
 1193loPI   C1B18417   9.534   3.740   6.002  0.2333  0.0640 -0.0728
 1193loPI   C2B18418   9.508   3.633   6.448  0.4583 -0.2865  0.1384
 1193loPI   C3B18419   9.652   3.914   6.829 -0.2089 -0.2041  0.1652
 1193loPI   C4B18420   9.775   3.821   7.306 -0.2094  0.0141  0.0433
 1194loPI    C118421  17.226   9.420   4.867 -0.1288  0.0031  0.0377
 1194loPI    C218422  16.970   9.172   4.685 -0.0207  0.0683 -0.2074
 1194loPI    C318423  17.317   9.264   4.510  0.0082  0.2722 -0.0471
 1194loPI   PO418424  17.083   9.632   4.979 -0.0226 -0.0168  0.1040
 1194loPI   GL118425  17.063   9.541   5.405 -0.0475  0.0298  0.2970
 1194loPI   GL218426  17.001   9.925   5.354 -0.0722 -0.1715  0.0191
 1194loPI   C1A18427  17.006   9.480   5.797  0.0969  0.0684  0.1144
 1194loPI   C2A18428  17.017   9.399   6.272  0.0617  0.1464 -0.2282
 1194loPI   C3A18429  17.012   9.435   6.775 -0.0029  0.0532 -0.0711
 1194loPI   C4A18430  16.747   9.563   7.092 -0.0349  0.0813  0.1983
 1194loPI   C5A18431  16.589   9.556   7.522  0.3085  0.1079 -0.2730
 1194loPI   C6A18432  16.804   9.477   7.804 -0.2907  0.3661  0.3020
 1194loPI   C1B18433  17.095  10.062   5.713  0.0386  0.2089 -0.0599
 1194loPI   C2B18434  16.997  10.337   6.146  0.0931  0.1873 -0.0674
 1194loPI   C3B18435  16.905  10.480   6.554 -0.1017 -0.0285  0.1482
 1194loPI   C4B18436  17.020  10.538   6.927  0.0590 -0.0441 -0.2369
 1195loPI    C118437   5.837  17.380   5.055  0.0672 -0.1513  0.0771
 1195loPI    C218438   5.499  17.262   4.876  0.0498 -0.1368  0.1003
 1195loPI    C318439   5.825  17.340   4.657  0.0200 -0.0907  0.0723
 1195loPI   PO418440   5.842  17.440   5.306 -0.2188  0.0459 -0.2809
 1195loPI   GL118441   6.041  17.461   5.672  0.0182  0.2515 -0.0460
 1195loPI   GL218442   6.196  17.731   5.601 -0.4119  0.2057  0.1148
 1195loPI   C1A18443   5.675  17.606   6.042  0.0085 -0.0000  0.3055
 1195loPI   C2A18444   5.488  17.655   6.413  0.0231  0.1180 -0.0646
 1195loPI   C3A18445   5.709  17.682   6.850  0.2810 -0.3857 -0.2526
 1195loPI   C4A18446   5.608  17.634   7.246  0.0355  0.3351 -0.0920
 1195loPI   C5A18447   5.524  17.833   7.627  0.0383  0.1558 -0.1261
 1195loPI   C6A18448   5.176  17.856   7.900  0.1091  0.3342 -0.0001
 1195loPI   C1B18449   6.628  17.834   5.853  0.3383  0.1507 -0.0752
 1195loPI   C2B18450   6.853  17.928   6.233 -0.1738  0.1534  0.1344
 1195loPI   C3B18451   6.945  17.884   6.674 -0.2698  0.3607  0.1478
 1195loPI   C4B18452   7.339  18.020   7.028  0.2076 -0.1067 -0.0507
 1196loPI    C118453  10.565  16.873   4.892  0.3210 -0.0884 -0.0169
 1196loPI    C218454  10.268  16.870   4.625  0.3425  0.2432 -0.0480
 1196loPI    C318455  10.613  16.686   4.542  0.2446  0.0932 -0.1256
 1196loPI   PO418456  10.391  16.874   5.095  0.2699 -0.1836  0.1149
 1196loPI   GL118457  10.201  16.875   5.579 -0.2799  0.1892 -0.0626
 1196loPI   GL218458  10.128  17.170   5.395  0.0644 -0.1856 -0.0973
 1196loPI   C1A18459  10.416  17.078   5.942 -0.5333  0.2945  0.3495
 1196loPI   C2A18460  10.279  17.273   6.420  0.0463 -0.0308  0.2185
 1196loPI   C3A18461  10.080  17.616   6.743 -0.3323 -0.0123  0.1460
 1196loPI   C4A18462  10.050  17.656   7.163  0.0310 -0.3268 -0.1888
 1196loPI   C5A18463  10.256  18.003   7.482 -0.0621 -0.1846 -0.0622
 1196loPI   C6A18464  10.524  18.220   7.703  0.1631 -0.1987  0.0468
 1196loPI   C1B18465   9.950  17.252   5.839 -0.0372  0.0780 -0.2643
 1196loPI   C2B18466   9.922  17.073   6.154 -0.0758  0.1067  0.0254
 1196loPI   C3B18467   9.873  16.989   6.585 -0.0862  0.0048 -0.1805
 1196loPI   C4B18468  10.124  17.103   7.013  0.1352 -0.2246 -0.2118
 1197loPI    C118469  18.332  17.911   5.345  0.0292  0.2938  0.0222
 1197loPI    C218470  18.694  17.875   5.512 -0.0212 -0.0248  0.0697
 1197loPI    C318471  18.660  17.921   5.116  0.0683 -0.0760  0.0559
 1197loPI   PO418472  18.233  18.054   5.472  0.0704  0.5387  0.1699
 1197loPI   GL118473  18.070  17.799   5.815 -0.1269  0.0882 -0.3409
 1197loPI   GL218474  18.288  17.549   5.787  0.0335 -0.1493 -0.4057
 1197loPI   C1A18475  17.936  17.921   6.256  0.3431 -0.1783  0.3095
 1197loPI   C2A18476  17.760  18.304   6.540  0.0278  0.1877  0.0181
 1197loPI   C3A18477  17.741  18.437   6.917  0.1335  0.0349 -0.0664
 1197loPI   C4A18478  17.675  18.580   7.338 -0.1300 -0.0735  0.1095
 1197loPI   C5A18479  17.430  18.899   7.558 -0.1547 -0.2367 -0.0714
 1197loPI   C6A18480  17.066  19.102   7.428 -0.0019  0.0113 -0.0412
 1197loPI   C1B18481  18.283  17.594   6.245 -0.1672 -0.1625  0.0915
 1197loPI   C2B18482  18.270  17.591   6.672  0.1348 -0.0215  0.0243
 1197loPI   C3B18483  18.101  17.385   6.936  0.3108  0.3613  0.1242
 1197loPI   C4B18484  18.182  17.258   7.357  0.0237 -0.3113 -0.1022
 1198loPI    C118485   5.808   6.221   4.599  0.0729  0.0022  0.0721
 1198loPI    C218486   5.679   6.479   4.876  0.0897  0.0931 -0.0040
 1198loPI    C318487   5.417   6.254   4.674  0.0937 -0.1492  0.2541
 1198loPI   PO418488   6.066   6.194   4.652 -0.4380  0.1479  0.0563
 1198loPI   GL118489   6.207   6.449   5.078  0.0085 -0.0467 -0.0617
 1198loPI   GL218490   6.058   6.691   5.150 -0.1020  0.0310 -0.2537
 1198loPI   C1A18491   6.245   6.475   5.495  0.0933 -0.1021  0.1985
 1198loPI   C2A18492   6.188   6.538   5.883  0.4494 -0.0275 -0.1616
 1198loPI   C3A18493   6.291   6.789   6.175  0.3886  0.0455 -0.0828
 1198loPI   C4A18494   6.298   6.849   6.701 -0.4473  0.0497 -0.0816
 1198loPI   C5A18495   6.197   7.058   7.174 -0.4551 -0.0045 -0.0810
 1198loPI   C6A18496   6.038   6.966   7.610 -0.2659 -0.1634  0.0775
 1198loPI   C1B18497   5.985   6.943   5.452  0.3342 -0.5353 -0.1597
 1198loPI   C2B18498   5.928   6.947   5.856  0.0883 -0.3076 -0.1841
 1198loPI   C3B18499   5.854   7.021   6.286  0.1884  0.2743 -0.0091
 1198loPI   C4B18500   5.670   7.171   6.699 -0.1369  0.0379  0.1470
 1199loPI    C118501  12.154  12.954   4.721  0.0692 -0.0126 -0.1876
 1199loPI    C218502  12.217  12.657   4.981 -0.2314  0.0372 -0.0536
 1199loPI    C318503  12.140  12.574   4.597 -0.1970 -0.0526 -0.0414
 1199loPI   PO418504  12.142  13.141   4.931  0.1075 -0.2587  0.3303
 1199loPI   GL118505  12.317  13.244   5.341 -0.1229 -0.1052  0.0947
 1199loPI   GL218506  12.418  12.918   5.318 -0.2729 -0.2337  0.0598
 1199loPI   C1A18507  12.093  13.290   5.769 -0.1011 -0.1194 -0.0294
 1199loPI   C2A18508  12.150  13.355   6.207 -0.1705  0.2297  0.3529
 1199loPI   C3A18509  12.284  13.172   6.600  0.0166  0.0614 -0.1085
 1199loPI   C4A18510  12.210  13.149   6.960  0.0171 -0.1355  0.2613
 1199loPI   C5A18511  11.860  13.220   7.132 -0.2043  0.1468  0.0634
 1199loPI   C6A18512  11.705  12.829   7.203  0.3380 -0.2311 -0.0078
 1199loPI   C1B18513  12.483  12.959   5.730 -0.4876 -0.3017  0.0264
 1199loPI   C2B18514  12.409  12.944   6.136  0.0510 -0.0619 -0.0055
 1199loPI   C3B18515  12.415  12.699   6.570  0.1695 -0.1975 -0.0779
 1199loPI   C4B18516  12.185  12.316   6.903  0.0920 -0.1963  0.1142
 1200loPI    C118517   1.373  19.169   5.051 -0.1316  0.0921 -0.0363
 1200loPI    C218518   1.403  18.887   4.769 -0.0595  0.2540 -0.1928
 1200loPI    C318519   1.204  19.226   4.693  0.1263  0.3820 -0.1168
 1200loPI   PO418520   1.263  19.103   5.187 -0.0571  0.1655  0.1178
 1200loPI   GL118521   0.973  19.189   5.602  0.0625 -0.2416  0.1474
 1200loPI   GL218522   0.703  19.399   5.458 -0.2585 -0.2898  0.0211
 1200loPI   C1A18523   0.801  18.885   5.865  0.0870 -0.4516  0.1070
 1200loPI   C2A18524   0.818  18.642   6.219  0.0459  0.0280 -0.0784
 1200loPI   C3A18525   0.595  18.712   6.593  0.2503 -0.0342  0.4901
 1200loPI   C4A18526   0.478  18.827   6.980 -0.2335 -0.0698 -0.0747
 1200loPI   C5A18527   0.550  18.702   7.494  0.1270 -0.0476  0.1294
 1200loPI   C6A18528   0.540  18.502   7.952 -0.2040 -0.1913  0.0722
 1200loPI   C1B18529   0.635  19.449   5.896 -0.4131 -0.2530  0.0266
 1200loPI   C2B18530   0.584  19.172   6.295  0.0004  0.0218 -0.2062
 1200loPI   C3B18531   0.627  19.229   6.778 -0.0059  0.1287 -0.1262
 1200loPI   C4B18532   0.621  19.297   7.159 -0.0313 -0.0889  0.0623
 1201loPI    C118533   0.116   8.196   4.739  0.1961  0.2431  0.1394
 1201loPI    C218534   0.493   8.278   4.635  0.0631  0.2799 -0.3375
 1201loPI    C318535   0.309   7.957   4.483 -0.0071  0.0953  0.1216
 1201loPI   PO418536   0.045   8.235   4.960  0.2374  0.1401  0.2633
 1201loPI   GL118537  -0.154   8.407   5.282 -0.0240  0.2082 -0.0918
 1201loPI   GL218538   0.173   8.413   5.386 -0.1057  0.3532 -0.2502
 1201loPI   C1A18539  -0.100   8.155   5.765  0.0430  0.0223 -0.0299
 1201loPI   C2A18540  -0.327   8.027   6.129  0.1815  0.2944  0.0595
 1201loPI   C3A18541  -0.377   7.686   6.419  0.3155 -0.2785  0.0638
 1201loPI   C4A18542  -0.626   7.508   6.806 -0.1611  0.0109  0.0381
 1201loPI   C5A18543  -0.702   7.842   7.151 -0.0024 -0.1391  0.2725
 1201loPI   C6A18544  -0.693   7.911   7.585 -0.1304 -0.4179 -0.0828
 1201loPI   C1B18545  -0.070   8.616   5.764 -0.3319 -0.4366 -0.0764
 1201loPI   C2B18546  -0.179   8.542   6.198 -0.1655  0.5883  0.1721
 1201loPI   C3B18547  -0.336   8.186   6.564 -0.1103 -0.1689 -0.1867
 1201loPI   C4B18548  -0.556   8.293   6.964  0.0617 -0.0748  0.1255
 1202loPI    C118549   5.398  18.731   4.785 -0.0086 -0.0675 -0.0334
 1202loPI    C218550   5.661  18.558   4.539 -0.1070 -0.0300 -0.1665
 1202loPI    C318551   5.324  18.367   4.637  0.1009 -0.2013  0.2356
 1202loPI   PO418552   5.505  18.884   5.004 -0.1283 -0.1935 -0.0106
 1202loPI   GL118553   5.678  18.963   5.406  0.1479  0.0487 -0.3049
 1202loPI   GL218554   5.961  19.109   5.183 -0.0673  0.0402  0.1888
 1202loPI   C1A18555   5.637  19.210   5.920 -0.1235 -0.2653  0.0662
 1202loPI   C2A18556   5.739  19.010   6.305 -0.1994  0.0218 -0.0111
 1202loPI   C3A18557   5.794  18.783   6.666  0.1794  0.0051  0.1373
 1202loPI   C4A18558   5.715  18.628   7.126 -0.0366 -0.2924 -0.3448
 1202loPI   C5A18559   5.981  18.769   7.578 -0.2468  0.1837  0.2393
 1202loPI   C6A18560   6.321  18.740   7.976 -0.2396 -0.1897  0.1505
 1202loPI   C1B18561   5.971  19.309   5.536 -0.1006 -0.0228 -0.0088
 1202loPI   C2B18562   6.077  19.078   5.909  0.0884 -0.0186 -0.2103
 1202loPI   C3B18563   6.351  18.949   6.315 -0.0594  0.1673  0.2396
 1202loPI   C4B18564   6.407  18.761   6.809  0.0888  0.2313  0.0066
 1203loPI    C118565  15.772  13.453   4.843 -0.1978 -0.0887 -0.2929
 1203loPI    C218566  15.703  13.770   5.077 -0.0288 -0.0420 -0.3052
 1203loPI    C318567  15.794  13.822   4.691 -0.1995 -0.1145 -0.3558
 1203loPI   PO418568  15.785  13.285   5.013 -0.1893  0.0209  0.0595
 1203loPI   GL118569  15.876  13.404   5.342 -0.1612  0.2294  0.3879
 1203loPI   GL218570  16.048  13.341   5.472 -0.0697  0.2436  0.0172
 1203loPI   C1A18571  15.937  13.858   5.481 -0.1600  0.1659 -0.2466
 1203loPI   C2A18572  16.263  14.079   5.527 -0.1623 -0.2877 -0.0271
 1203loPI   C3A18573  16.446  14.381   5.782  0.0723 -0.2595  0.1457
 1203loPI   C4A18574  16.528  14.370   6.159 -0.2600 -0.0114 -0.2387
 1203loPI   C5A18575  16.600  14.540   6.447 -0.0817 -0.1724 -0.1195
 1203loPI   C6A18576  16.712  14.932   6.688 -0.0173  0.0578  0.1826
 1203loPI   C1B18577  16.230  13.553   5.778 -0.0618  0.0957 -0.1050
 1203loPI   C2B18578  16.169  13.471   6.178  0.1075  0.3112  0.1281
 1203loPI   C3B18579  16.102  13.458   6.674 -0.2219  0.0345  0.1950
 1203loPI   C4B18580  15.801  13.504   7.011  0.1108  0.1203 -0.2379
 1204loPI    C118581  13.618  18.983   5.195 -0.1704  0.2937 -0.1337
 1204loPI    C218582  13.704  18.697   4.930  0.0278  0.1152  0.1186
 1204loPI    C318583  13.772  19.080   4.839  0.1274  0.0530 -0.0740
 1204loPI   PO418584  13.307  18.780   5.279  0.1865  0.1434  0.3192
 1204loPI   GL118585  13.205  18.659   5.749 -0.0094 -0.1360  0.2739
 1204loPI   GL218586  13.577  18.757   5.831  0.2856 -0.1440 -0.0387
 1204loPI   C1A18587  13.081  18.700   6.134  0.0673 -0.1908  0.1373
 1204loPI   C2A18588  13.143  18.712   6.491  0.0808 -0.1365 -0.1155
 1204loPI   C3A18589  13.276  18.766   6.897 -0.1345 -0.2251  0.1867
 1204loPI   C4A18590  13.515  18.784   7.305 -0.1164 -0.0252  0.1154
 1204loPI   C5A18591  13.746  19.144   7.528  0.1663 -0.0831  0.0794
 1204loPI   C6A18592  13.985  19.288   7.810  0.1162  0.0111 -0.2913
 1204loPI   C1B18593  13.558  18.496   6.168 -0.2624 -0.0942  0.0695
 1204loPI   C2B18594  13.437  18.218   6.543 -0.2206  0.0282  0.0960
 1204loPI   C3B18595  13.214  17.861   6.816  0.0838 -0.2333  0.4184
 1204loPI   C4B18596  13.432  17.526   7.066 -0.0619  0.1440 -0.0219
 1205loPI    C118597  15.001  16.993   4.989  0.1489  0.0744 -0.0245
 1205loPI    C218598  14.897  16.623   4.879 -0.0527  0.1372 -0.0503
 1205loPI    C318599  15.234  16.787   4.739  0.0901 -0.0737  0.0416
 1205loPI   PO418600  15.050  17.009   5.240  0.1233 -0.0497 -0.0168
 1205loPI   GL118601  14.889  16.979   5.632  0.2876  0.4204 -0.2836
 1205loPI   GL218602  15.192  16.763   5.664 -0.1051  0.2167  0.0666
 1205loPI   C1A18603  14.716  16.878   5.999  0.2189  0.0322 -0.4518
 1205loPI   C2A18604  14.920  16.696   6.408  0.1177  0.1169  0.1425
 1205loPI   C3A18605  15.187  16.444   6.592  0.1615 -0.3371 -0.0394
 1205loPI   C4A18606  15.065  16.267   6.840  0.0253 -0.1390 -0.3302
 1205loPI   C5A18607  15.228  16.180   7.212  0.0191  0.0435 -0.0798
 1205loPI   C6A18608  15.381  16.399   7.526  0.2954 -0.1246 -0.0261
 1205loPI   C1B18609  15.121  16.568   5.973  0.1302 -0.0872 -0.4279
 1205loPI   C2B18610  15.063  16.116   6.232 -0.0401 -0.0907 -0.0812
 1205loPI   C3B18611  14.897  15.843   6.629 -0.1060  0.1881 -0.0528
 1205loPI   C4B18612  14.782  15.678   7.046  0.1602 -0.3737  0.4205
 1206loPI    C118613   7.649   3.117   4.652 -0.0917 -0.2384  0.2009
 1206loPI    C218614   7.775   3.327   4.336  0.0926 -0.3633  0.1897
 1206loPI    C318615   7.402   3.184   4.345  0.0166 -0.1726  0.1275
 1206loPI   PO418616   7.890   3.100   4.906  0.2201 -0.0447  0.2382
 1206loPI   GL118617   7.833   3.157   5.326 -0.0085  0.0704 -0.0045
 1206loPI   GL218618   7.635   2.918   5.327  0.2277  0.2285  0.1311
 1206loPI   C1A18619   7.705   3.226   5.803 -0.1254  0.3277  0.0865
 1206loPI   C2A18620   7.590   3.314   6.198  0.0574  0.0012  0.1477
 1206loPI   C3A18621   7.617   3.481   6.624 -0.1806  0.0679 -0.0508
 1206loPI   C4A18622   7.595   3.452   7.080  0.2040  0.1730 -0.0759
 1206loPI   C5A18623   7.696   3.670   7.515  0.2273 -0.1227 -0.1228
 1206loPI   C6A18624   7.511   3.913   7.881 -0.3730  0.2197  0.1046
 1206loPI   C1B18625   7.318   2.932   5.612  0.1952 -0.2542  0.1688
 1206loPI   C2B18626   7.437   2.846   6.112 -0.1384 -0.2504  0.1611
 1206loPI   C3B18627   7.545   2.899   6.561 -0.1101 -0.0008 -0.2350
 1206loPI   C4B18628   7.359   3.004   6.992  0.2273 -0.3581  0.4583
 1207loPI    C118629   6.511   6.090   4.864 -0.0230  0.0390 -0.0229
 1207loPI    C218630   6.891   6.197   4.798  0.0581 -0.2809 -0.0910
 1207loPI    C318631   6.602   6.319   4.549  0.1131 -0.0322 -0.0360
 1207loPI   PO418632   6.599   5.824   4.994 -0.1961  0.0311  0.0909
 1207loPI   GL118633   6.664   5.830   5.401  0.1988  0.3559 -0.2213
 1207loPI   GL218634   6.888   5.630   5.559 -0.1724 -0.1585  0.1689
 1207loPI   C1A18635   6.377   6.048   5.758 -0.0383 -0.0829  0.4439
 1207loPI   C2A18636   6.345   6.177   6.248 -0.0402  0.0233 -0.0846
 1207loPI   C3A18637   6.216   6.213   6.657  0.0546  0.0147 -0.2190
 1207loPI   C4A18638   5.871   6.090   6.996 -0.0930  0.1250  0.0654
 1207loPI   C5A18639   5.593   6.013   7.379  0.1091  0.0603 -0.1308
 1207loPI   C6A18640   5.343   5.661   7.607  0.0916 -0.2466  0.1213
 1207loPI   C1B18641   6.889   5.359   5.947  0.0715  0.0912 -0.2513
 1207loPI   C2B18642   6.710   5.251   6.336 -0.2681 -0.0919 -0.1721
 1207loPI   C3B18643   6.472   5.288   6.744 -0.4296 -0.1653  0.1046
 1207loPI   C4B18644   6.547   5.108   7.154  0.0448 -0.0429  0.2148
 1208loPI    C118645  10.880  18.044   4.932  0.0552 -0.2123 -0.0876
 1208loPI    C218646  11.228  17.849   4.899  0.2009  0.0283 -0.0006
 1208loPI    C318647  11.139  18.143   4.644  0.1352  0.0797  0.0809
 1208loPI   PO418648  10.756  17.893   5.021  0.1234 -0.0858  0.4060
 1208loPI   GL118649  10.987  17.649   5.279  0.4081 -0.1555 -0.2184
 1208loPI   GL218650  11.260  17.600   5.422  0.1537  0.0662  0.2935
 1208loPI   C1A18651  10.778  17.673   5.693 -0.0190 -0.1824 -0.0497
 1208loPI   C2A18652  10.635  17.506   6.048 -0.1367 -0.1863  0.2019
 1208loPI   C3A18653  10.705  17.469   6.485 -0.2403  0.0075 -0.2860
 1208loPI   C4A18654  10.523  17.348   6.871 -0.1607 -0.0485 -0.1073
 1208loPI   C5A18655  10.603  17.260   7.273  0.0243 -0.2134 -0.0831
 1208loPI   C6A18656  10.692  17.704   7.424 -0.0227 -0.1101  0.2079
 1208loPI   C1B18657  11.299  17.648   5.890 -0.0608 -0.2375 -0.1351
 1208loPI   C2B18658  11.265  17.441   6.194  0.0911 -0.1838  0.0432
 1208loPI   C3B18659  11.155  17.601   6.521 -0.2746 -0.0607 -0.1198
 1208loPI   C4B18660  10.954  17.590   6.926  0.0467  0.1398  0.1302
 1209loPI    C118661  16.186  17.432   4.707 -0.1687  0.2083  0.0372
 1209loPI    C218662  16.396  17.554   5.024 -0.1719 -0.0271  0.1319
 1209loPI    C318663  16.175  17.816   4.818  0.0564  0.1833  0.1495
 1209loPI   PO418664  16.033  17.235   4.839 -0.0527  0.1383 -0.2263
 1209loPI   GL118665  16.061  17.089   5.292 -0.2653  0.0063 -0.0532
 1209loPI   GL218666  16.087  16.803   5.488  0.0033  0.5852 -0.1892
 1209loPI   C1A18667  16.256  17.262   5.733 -0.0419 -0.2205 -0.2083
 1209loPI   C2A18668  16.082  17.040   6.162 -0.1596 -0.0524 -0.1515
 1209loPI   C3A18669  16.238  17.098   6.572 -0.0456 -0.2076 -0.2657
 1209loPI   C4A18670  16.211  17.126   7.041  0.0469  0.0061 -0.1977
 1209loPI   C5A18671  15.796  17.223   7.444 -0.1509 -0.1630  0.2540
 1209loPI   C6A18672  15.363  17.338   7.593 -0.2767 -0.2530 -0.0060
 1209loPI   C1B18673  15.831  16.919   5.730 -0.3616  0.0818  0.1924
 1209loPI   C2B18674  15.602  16.722   6.021  0.1876 -0.2972  0.0202
 1209loPI   C3B18675  15.645  16.682   6.473 -0.2728 -0.0516 -0.0719
 1209loPI   C4B18676  15.660  16.368   6.780  0.0563 -0.0662 -0.3623
 1210loPI    C118677   6.113   3.288   4.898 -0.0357 -0.0988  0.0777
 1210loPI    C218678   6.200   3.311   4.509  0.3007  0.0957  0.1605
 1210loPI    C318679   5.951   3.027   4.641 -0.0238  0.1889 -0.2282
 1210loPI   PO418680   6.388   3.354   5.014 -0.0350  0.0856  0.0348
 1210loPI   GL118681   6.641   3.440   5.326  0.0701  0.1180  0.0845
 1210loPI   GL218682   6.755   3.733   5.435 -0.1454 -0.2395  0.1830
 1210loPI   C1A18683   6.620   3.275   5.708 -0.0459  0.2786 -0.2190
 1210loPI   C2A18684   6.487   3.323   6.124  0.2459 -0.3042 -0.1067
 1210loPI   C3A18685   6.598   3.319   6.569 -0.2374 -0.3672 -0.0467
 1210loPI   C4A18686   6.367   3.168   6.937  0.1568  0.1922 -0.2044
 1210loPI   C5A18687   6.340   2.876   7.349  0.2998  0.1785 -0.1570
 1210loPI   C6A18688   6.818   2.528   7.457  0.0818 -0.4075 -0.1104
 1210loPI   C1B18689   6.623   3.751   5.835  0.2649 -0.2870 -0.0549
 1210loPI   C2B18690   6.544   3.789   6.378 -0.1836 -0.0764  0.2549
 1210loPI   C3B18691   6.628   3.695   6.860 -0.2886 -0.1897  0.1004
 1210loPI   C4B18692   6.616   3.470   7.246 -0.0159  0.1607  0.2389
 1211loPI    C118693   4.653  13.488   4.752  0.3622  0.0248  0.0409
 1211loPI    C218694   4.863  13.152   4.807  0.1247 -0.1359 -0.0197
 1211loPI    C318695   4.670  13.213   4.462 -0.0194 -0.0417  0.0768
 1211loPI   PO418696   4.491  13.421   4.977 -0.0172 -0.1601 -0.2235
 1211loPI   GL118697   4.588  13.137   5.324  0.2472  0.2282  0.1817
 1211loPI   GL218698   4.749  13.361   5.461 -0.1657 -0.3965 -0.1333
 1211loPI   C1A18699   4.335  13.296   5.779  0.1237 -0.0857  0.1048
 1211loPI   C2A18700   4.281  13.619   6.051  0.1848  0.4497  0.1559
 1211loPI   C3A18701   3.999  13.572   6.407  0.1905 -0.3459  0.1606
 1211loPI   C4A18702   3.921  13.439   6.832  0.1922  0.0864  0.1295
 1211loPI   C5A18703   4.021  13.567   7.288  0.0663 -0.0257 -0.0957
 1211loPI   C6A18704   3.946  13.832   7.581 -0.2081 -0.2200  0.1349
 1211loPI   C1B18705   4.771  13.363   5.989 -0.3524 -0.0039 -0.2305
 1211loPI   C2B18706   4.647  13.585   6.397 -0.3671 -0.1336  0.3321
 1211loPI   C3B18707   4.351  13.704   6.687 -0.2284  0.0183 -0.0597
 1211loPI   C4B18708   4.020  13.885   6.887 -0.0602 -0.0525 -0.1714
 1212loPI    C118709  12.682   6.679   4.552 -0.1480  0.1163  0.0345
 1212loPI    C218710  12.672   6.279   4.569 -0.0494  0.1115 -0.0115
 1212loPI    C318711  12.356   6.481   4.431 -0.0901  0.0482 -0.0115
 1212loPI   PO418712  12.733   6.781   4.770  0.0254 -0.0059 -0.0515
 1212loPI   GL118713  12.535   6.688   5.150 -0.0498  0.1919  0.0773
 1212loPI   GL218714  12.656   6.402   5.093 -0.1000 -0.3665  0.2683
 1212loPI   C1A18715  12.636   6.965   5.458  0.1215 -0.1043 -0.0930
 1212loPI   C2A18716  12.390   7.052   5.885  0.0870 -0.0919  0.1137
 1212loPI   C3A18717  12.532   7.004   6.285 -0.3153  0.1622  0.1248
 1212loPI   C4A18718  12.518   6.813   6.695 -0.1374 -0.0849 -0.2416
 1212loPI   C5A18719  12.418   6.386   6.825 -0.0107  0.1893  0.0158
 1212loPI   C6A18720  12.361   5.984   6.593 -0.0101  0.1043 -0.0015
 1212loPI   C1B18721  12.690   6.336   5.532 -0.0753 -0.2107 -0.0715
 1212loPI   C2B18722  12.453   6.127   5.887  0.4237 -0.3371  0.1236
 1212loPI   C3B18723  12.413   5.732   6.053  0.2101 -0.3948  0.0996
 1212loPI   C4B18724  12.596   5.327   6.278 -0.3771  0.4863  0.4319
 1213loPI    C118725   0.969   8.303   4.796  0.0804 -0.0271  0.2153
 1213loPI    C218726   1.070   8.485   4.455 -0.0729  0.1485  0.2619
 1213loPI    C318727   1.135   8.093   4.498  0.0411  0.1445  0.0705
 1213loPI   PO418728   1.000   8.386   5.048 -0.1472  0.0805  0.2039
 1213loPI   GL118729   1.101   8.178   5.430  0.0644 -0.0842  0.1107
 1213loPI   GL218730   0.799   8.216   5.517  0.2240 -0.0249  0.1138
 1213loPI   C1A18731   1.155   8.046   5.804 -0.0772  0.0055 -0.2106
 1213loPI   C2A18732   1.188   8.220   6.204 -0.1492  0.3777  0.1507
 1213loPI   C3A18733   1.073   8.334   6.694  0.0806  0.1533 -0.3000
 1213loPI   C4A18734   0.964   8.498   7.181 -0.1890  0.3372 -0.1439
 1213loPI   C5A18735   0.676   8.533   7.571  0.0728  0.0908  0.3901
 1213loPI   C6A18736   0.581   8.784   7.997 -0.0535 -0.2447 -0.3843
 1213loPI   C1B18737   0.426   8.213   5.800 -0.3162 -0.1134 -0.1409
 1213loPI   C2B18738   0.220   8.174   6.106  0.0413 -0.0823 -0.1777
 1213loPI   C3B18739   0.094   7.905   6.463 -0.0985 -0.2509  0.0228
 1213loPI   C4B18740  -0.178   7.792   6.871 -0.2273 -0.0491 -0.1933
 1214POPI    C118741  14.498  16.295   5.034 -0.1654 -0.2345  0.0360
 1214POPI    C218742  14.456  16.686   5.109  0.1979 -0.1690 -0.0835
 1214POPI    C318743  14.393  16.545   4.740 -0.3433 -0.2940  0.0475
 1214POPI   PO418744  14.464  16.111   5.285  0.2285  0.0747 -0.0607
 1214POPI   GL118745  14.385  16.029   5.659 -0.0474 -0.1050 -0.1039
 1214POPI   GL218746  14.359  15.723   5.763 -0.2771  0.1767  0.4241
 1214POPI   C1A18747  14.126  16.176   5.971 -0.0549  0.4836 -0.2368
 1214POPI   D2A18748  13.967  16.299   6.371 -0.0356 -0.2618 -0.1154
 1214POPI   C3A18749  14.088  16.172   6.772  0.0598  0.1960 -0.1243
 1214POPI   C4A18750  14.283  15.811   7.022 -0.3210 -0.1431 -0.1329
 1214POPI   C1B18751  14.146  15.601   6.149  0.0029  0.0267  0.1088
 1214POPI   C2B18752  14.060  15.682   6.501  0.1940  0.1047  0.0093
 1214POPI   C3B18753  13.819  15.558   6.800  0.2952  0.0145 -0.0123
 1214POPI   C4B18754  13.984  15.407   7.172 -0.0515  0.1046 -0.2197
 1215POPI    C118755   3.512   0.380   4.801  0.0908  0.1359 -0.2835
 1215POPI    C218756   3.399   0.039   4.624 -0.0218 -0.0791  0.1868
 1215POPI    C318757   3.784   0.099   4.716 -0.0005 -0.0745  0.0952
 1215POPI   PO418758   3.268   0.412   4.994 -0.1186  0.2342  0.1465
 1215POPI   GL118759   3.244   0.235   5.375  0.5013 -0.1533 -0.0597
 1215POPI   GL218760   3.570   0.075   5.252  0.1998 -0.1866  0.1314
 1215POPI   C1A18761   3.210   0.092   5.962  0.0646 -0.2828  0.2216
 1215POPI   D2A18762   3.120  -0.217   6.224 -0.2847 -0.0353  0.1192
 1215POPI   C3A18763   3.074  -0.239   6.647 -0.1524  0.0042  0.1403
 1215POPI   C4A18764   3.102  -0.046   7.018 -0.0915  0.3236  0.0401
 1215POPI   C1B18765   3.343  -0.267   5.478  0.0403 -0.2065  0.3418
 1215POPI   C2B18766   2.959  -0.376   5.788  0.1377 -0.2338  0.3430
 1215POPI   C3B18767   2.662  -0.280   6.146  0.1457 -0.2688 -0.0377
 1215POPI   C4B18768   2.584  -0.221   6.611  0.0310  0.3420 -0.0704
 1216POPI    C118769  18.687  13.427   4.807  0.1277 -0.0467 -0.0915
 1216POPI    C218770  18.886  13.170   4.574  0.1790  0.0484 -0.1529
 1216POPI    C318771  18.500  13.108   4.655  0.2514 -0.1771  0.0273
 1216POPI   PO418772  18.865  13.477   5.097  0.1124 -0.0181  0.1105
 1216POPI   GL118773  18.896  13.585   5.515  0.2124 -0.0213  0.0264
 1216POPI   GL218774  18.579  13.493   5.529  0.0417 -0.1577  0.1196
 1216POPI   C1A18775  19.013  13.647   5.962  0.1384  0.0330 -0.0388
 1216POPI   D2A18776  19.024  13.545   6.387  0.2427 -0.0879  0.1135
 1216POPI   C3A18777  19.080  13.287   6.755  0.0623 -0.0956 -0.1865
 1216POPI   C4A18778  19.358  13.110   7.097 -0.1698  0.0057  0.0459
 1216POPI   C1B18779  18.515  13.637   5.875 -0.2486  0.3541 -0.0411
 1216POPI   C2B18780  18.596  13.840   6.282 -0.1673  0.1096 -0.0893
 1216POPI   C3B18781  18.525  14.123   6.592  0.0472 -0.2203 -0.4073
 1216POPI   C4B18782  18.613  14.071   7.006  0.0433  0.0449  0.0435
 1217POPI    C118783  13.077  16.686   5.055 -0.5079  0.3239  0.1205
 1217POPI    C218784  12.986  16.366   5.276  0.1633 -0.1011 -0.1840
 1217POPI    C318785  12.798  16.429   4.928  0.1642 -0.2761 -0.2173
 1217POPI   PO418786  13.163  16.862   5.180  0.2541 -0.0278 -0.2560
 1217POPI   GL118787  13.360  17.193   5.351 -0.1005 -0.2410  0.0281
 1217POPI   GL218788  13.655  16.914   5.248  0.0205  0.0786  0.1285
 1217POPI   C1A18789  13.600  17.094   5.689 -0.0439  0.1086 -0.1428
 1217POPI   D2A18790  13.841  16.835   5.937  0.2256 -0.3092 -0.0439
 1217POPI   C3A18791  13.750  16.728   6.380  0.2121  0.0739  0.0434
 1217POPI   C4A18792  13.879  16.693   6.818 -0.0696 -0.0529  0.0945
 1217POPI   C1B18793  13.686  16.550   5.590  0.3029 -0.3661  0.0234
 1217POPI   C2B18794  13.689  16.352   5.960  0.0191  0.2476 -0.1878
 1217POPI   C3B18795  13.455  16.382   6.355  0.2862 -0.0132  0.0141
 1217POPI   C4B18796  13.317  16.461   6.847  0.0747 -0.3701 -0.0401
 1218POPI    C118797   6.725  10.197   4.485 -0.1951 -0.1239 -0.1561
 1218POPI    C218798   6.524  10.519   4.358  0.0507  0.0464 -0.1205
 1218POPI    C318799   6.580  10.208   4.112  0.1482  0.1934 -0.2869
 1218POPI   PO418800   6.644  10.150   4.763  0.1165  0.1626  0.1282
 1218POPI   GL118801   6.566  10.320   5.039  0.1204 -0.1141 -0.3338
 1218POPI   GL218802   6.808  10.501   5.097 -0.0179  0.1684 -0.1048
 1218POPI   C1A18803   6.452  10.155   5.426  0.1267  0.0746 -0.0497
 1218POPI   D2A18804   6.561  10.008   5.733 -0.0970 -0.2044 -0.1321
 1218POPI   C3A18805   6.727  10.238   6.024  0.2860 -0.0001  0.0550
 1218POPI   C4A18806   6.710  10.148   6.426  0.0994 -0.0038  0.0404
 1218POPI   C1B18807   6.873  10.349   5.547 -0.0876  0.2768 -0.1474
 1218POPI   C2B18808   7.196  10.328   5.852 -0.4355 -0.0810 -0.0338
 1218POPI   C3B18809   7.160  10.445   6.229  0.3361  0.3148 -0.1314
 1218POPI   C4B18810   7.085  10.374   6.675  0.2503 -0.3462 -0.0804
 1219POPI    C118811  10.141  16.231   4.701  0.0135 -0.2122  0.2844
 1219POPI    C218812  10.505  16.153   4.553 -0.1003 -0.0398 -0.0982
 1219POPI    C318813  10.183  15.974   4.396 -0.2056 -0.0047  0.0757
 1219POPI   PO418814  10.238  16.452   4.891  0.1412 -0.0045  0.2583
 1219POPI   GL118815  10.359  16.468   5.354 -0.0601 -0.2887 -0.1503
 1219POPI   GL218816  10.248  16.326   5.611 -0.2928 -0.1177  0.0550
 1219POPI   C1A18817  10.659  16.697   5.636 -0.2006  0.0963  0.0941
 1219POPI   D2A18818  11.055  16.722   5.602 -0.0420  0.0626  0.0206
 1219POPI   C3A18819  11.257  16.535   5.903 -0.0014 -0.1189 -0.0725
 1219POPI   C4A18820  11.343  16.452   6.356  0.1742  0.2346  0.1145
 1219POPI   C1B18821  10.136  16.027   5.926 -0.0722 -0.3933 -0.2743
 1219POPI   C2B18822   9.949  16.037   6.323 -0.4370  0.1428 -0.2650
 1219POPI   C3B18823   9.706  15.838   6.677 -0.0545 -0.2956 -0.4661
 1219POPI   C4B18824   9.442  15.547   6.784 -0.2471  0.0184  0.0564
 1220POPI    C118825   0.408  15.840   5.148  0.0340 -0.0619 -0.0741
 1220POPI    C218826   0.461  15.834   4.751  0.1298 -0.5437 -0.0598
 1220POPI    C318827   0.277  15.529   4.934 -0.1383 -0.2111  0.2411
 1220POPI   PO418828   0.587  15.864   5.240 -0.0606  0.0462 -0.1399
 1220POPI   GL118829   0.814  15.903   5.653  0.0829 -0.0548 -0.1190
 1220POPI   GL218830   0.998  16.207   5.625 -0.2881 -0.1114 -0.4352
 1220POPI   C1A18831   0.907  15.811   6.123 -0.3015  0.0813  0.1505
 1220POPI   D2A18832   1.173  15.966   6.515  0.0123  0.1812  0.4100
 1220POPI   C3A18833   0.902  15.906   6.795  0.0947  0.1219  0.3422
 1220POPI   C4A18834   0.459  15.963   6.922  0.1946 -0.2015 -0.1468
 1220POPI   C1B18835   1.299  16.475   5.683  0.1767 -0.3273 -0.0066
 1220POPI   C2B18836   1.655  16.472   5.838  0.0672  0.2298 -0.2650
 1220POPI   C3B18837   1.984  16.537   6.157  0.2737  0.0280  0.1138
 1220POPI   C4B18838   2.072  16.675   6.614  0.0827 -0.1570  0.0313
 1221POPI    C118839   3.666  15.151   5.286  0.1750  0.3790 -0.1642
 1221POPI    C218840   3.281  15.236   5.354  0.0632 -0.2300  0.0249
 1221POPI    C318841   3.453  15.348   5.011 -0.2573  0.1137 -0.0298
 1221POPI   PO418842   3.734  15.063   5.552 -0.0202 -0.3015  0.1394
 1221POPI   GL118843   3.557  15.176   5.886  0.0114  0.3604  0.1770
 1221POPI   GL218844   3.310  14.991   5.831 -0.0436 -0.0210  0.1262
 1221POPI   C1A18845   3.497  15.254   6.338  0.0325  0.0819  0.1086
 1221POPI   D2A18846   3.363  15.407   6.792  0.2331 -0.3023 -0.0330
 1221POPI   C3A18847   3.332  15.576   7.214  0.0558  0.0922 -0.1344
 1221POPI   C4A18848   3.145  15.763   7.633  0.1685 -0.0770  0.0632
 1221POPI   C1B18849   3.458  14.796   6.241  0.0162  0.0128 -0.1745
 1221POPI   C2B18850   3.770  14.507   6.598  0.2809  0.1314  0.0169
 1221POPI   C3B18851   3.972  14.478   6.860 -0.0231 -0.2153 -0.4121
 1221POPI   C4B18852   3.971  14.250   7.214 -0.0816 -0.2240 -0.4932
 1222POPI    C118853   9.329  12.523   4.736 -0.1366  0.0833 -0.2512
 1222POPI    C218854   9.322  12.873   4.542  0.0045  0.2036 -0.0433
 1222POPI    C318855   9.648  12.641   4.524  0.0741  0.2832  0.1651
 1222POPI   PO418856   9.219  12.657   4.992  0.0453 -0.1650  0.0319
 1222POPI   GL118857   9.135  12.380   5.296  0.2111 -0.1952  0.2136
 1222POPI   GL218858   9.407  12.319   5.423  0.1584  0.2502 -0.0448
 1222POPI   C1A18859   8.960  12.424   5.693 -0.0296  0.0936 -0.1588
 1222POPI   D2A18860   8.899  12.413   6.149  0.0367  0.2261  0.0612
 1222POPI   C3A18861   8.840  12.035   6.340  0.0011 -0.3392 -0.3775
 1222POPI   C4A18862   8.705  12.009   6.795  0.1052 -0.1466  0.1473
 1222POPI   C1B18863   9.420  12.389   5.852 -0.2006  0.0191 -0.0774
 1222POPI   C2B18864   9.371  12.381   6.276 -0.1096  0.0119  0.2986
 1222POPI   C3B18865   9.318  12.015   6.511 -0.1731  0.0773 -0.1499
 1222POPI   C4B18866   9.308  11.863   7.011  0.3538  0.2367 -0.1072
 1223POPI    C118867  17.352  15.086   4.911  0.2876  0.2119  0.0639
 1223POPI    C218868  17.442  15.032   4.524  0.3250 -0.0530  0.1074
 1223POPI    C318869  17.690  15.240   4.761  0.3230  0.0735 -0.0002
 1223POPI   PO418870  17.236  14.762   5.023  0.1524 -0.1909  0.2872
 1223POPI   GL118871  17.197  14.597   5.430  0.0440 -0.2269 -0.0966
 1223POPI   GL218872  17.564  14.549   5.448  0.1633  0.2518 -0.0385
 1223POPI   C1A18873  17.007  14.695   5.771  0.2795 -0.1638  0.0869
 1223POPI   D2A18874  16.990  14.667   6.156 -0.1037 -0.1854  0.3072
 1223POPI   C3A18875  17.081  14.597   6.589 -0.1418 -0.0519  0.3840
 1223POPI   C4A18876  16.997  14.357   7.038  0.1809  0.1485  0.0865
 1223POPI   C1B18877  17.529  14.553   5.897  0.0833 -0.0257 -0.3221
 1223POPI   C2B18878  17.512  14.680   6.325  0.0232  0.2988  0.1126
 1223POPI   C3B18879  17.549  14.705   6.737 -0.1283  0.1250 -0.4021
 1223POPI   C4B18880  17.850  14.611   6.930 -0.0378 -0.1995  0.2682
 1224POPI    C118881  10.781   6.661   4.551 -0.1120 -0.0058  0.0171
 1224POPI    C218882  10.610   6.329   4.409  0.0139  0.0372 -0.2413
 1224POPI    C318883  10.479   6.688   4.290 -0.1294  0.0833  0.0460
 1224POPI   PO418884  10.689   6.718   4.863 -0.1146 -0.1116  0.1391
 1224POPI   GL118885  10.560   6.628   5.296  0.0744 -0.1923  0.1039
 1224POPI   GL218886  10.787   6.278   5.421 -0.2452  0.2935 -0.1626
 1224POPI   C1A18887  10.644   6.608   5.759  0.2850 -0.0957 -0.0342
 1224POPI   D2A18888  10.522   6.612   6.248  0.1207  0.0117  0.1068
 1224POPI   C3A18889  10.439   7.133   6.426 -0.0278  0.0120  0.2684
 1224POPI   C4A18890  10.429   7.423   6.676 -0.2128  0.1741  0.0963
 1224POPI   C1B18891  11.023   6.133   5.725 -0.1708 -0.0367  0.3660
 1224POPI   C2B18892  11.080   6.010   6.159 -0.1408  0.0956  0.0720
 1224POPI   C3B18893  11.116   5.928   6.597 -0.2345 -0.3452  0.5139
 1224POPI   C4B18894  10.865   5.969   6.993  0.0538 -0.1580 -0.1245
 1225POPI    C118895  17.223   0.227   4.816  0.0486  0.0699  0.0914
 1225POPI    C218896  17.518   0.147   4.557  0.0651  0.1571  0.0827
 1225POPI    C318897  17.271  -0.144   4.676  0.1097  0.0990  0.0340
 1225POPI   PO418898  17.357   0.324   5.066  0.0317  0.2115  0.0669
 1225POPI   GL118899  17.158   0.385   5.465  0.0852  0.1031 -0.0763
 1225POPI   GL218900  17.376   0.616   5.567 -0.1575 -0.1451 -0.0990
 1225POPI   C1A18901  16.928   0.260   5.867  0.1211  0.3846  0.4368
 1225POPI   D2A18902  16.445   0.050   6.077  0.0553  0.1287 -0.0805
 1225POPI   C3A18903  16.329  -0.023   6.364 -0.0136  0.0588  0.0301
 1225POPI   C4A18904  16.172   0.296   6.659 -0.1062 -0.1542  0.0177
 1225POPI   C1B18905  17.460   0.640   6.050  0.2996  0.2702 -0.0908
 1225POPI   C2B18906  17.414   0.167   6.344  0.3448 -0.1862  0.1841
 1225POPI   C3B18907  17.264  -0.222   6.536  0.0205 -0.2760  0.1522
 1225POPI   C4B18908  17.026  -0.198   6.922  0.2953 -0.0010 -0.2032
 1226POPI    C118909  14.751   0.642   5.367 -0.0114  0.1739 -0.1952
 1226POPI    C218910  14.767   1.039   5.415 -0.2021  0.1738 -0.1203
 1226POPI    C318911  14.867   0.876   5.064 -0.0949  0.2850 -0.1423
 1226POPI   PO418912  14.559   0.500   5.385 -0.2756  0.0439  0.1098
 1226POPI   GL118913  14.574   0.172   5.648  0.0176  0.4052  0.1434
 1226POPI   GL218914  14.677  -0.101   5.676  0.3399  0.2507  0.2724
 1226POPI   C1A18915  14.440   0.446   6.004 -0.1325 -0.0098  0.1454
 1226POPI   D2A18916  14.473   0.425   6.563  0.1717  0.3757  0.1588
 1226POPI   C3A18917  14.588   0.050   6.649  0.2652 -0.0616 -0.0947
 1226POPI   C4A18918  14.477  -0.159   6.941  0.0930  0.2572  0.1921
 1226POPI   C1B18919  14.723   0.077   6.122  0.1859 -0.0814 -0.0114
 1226POPI   C2B18920  15.067   0.208   6.381  0.1290 -0.2169 -0.2275
 1226POPI   C3B18921  15.221   0.331   6.762 -0.2124 -0.2261 -0.0441
 1226POPI   C4B18922  15.455   0.600   7.173 -0.2456 -0.3699 -0.1786
 1227POPI    C118923  12.385  13.598   4.788 -0.0316  0.0002  0.2121
 1227POPI    C218924  11.986  13.588   4.754 -0.0311  0.2131  0.1320
 1227POPI    C318925  12.213  13.374   4.504 -0.0945  0.1044  0.1671
 1227POPI   PO418926  12.393  13.625   5.045  0.0661 -0.1722  0.0640
 1227POPI   GL118927  12.633  13.723   5.343  0.0894 -0.3148 -0.3659
 1227POPI   GL218928  12.449  13.919   5.460  0.0754  0.1983 -0.1418
 1227POPI   C1A18929  12.518  13.523   5.764 -0.0300 -0.0906 -0.3651
 1227POPI   D2A18930  12.665  13.427   6.172  0.2641  0.2178  0.1280
 1227POPI   C3A18931  12.823  13.690   6.517 -0.2859 -0.4529  0.2268
 1227POPI   C4A18932  12.799  14.009   6.756  0.2297  0.1118  0.1217
 1227POPI   C1B18933  12.422  14.019   5.902  0.2510 -0.0879 -0.2885
 1227POPI   C2B18934  12.360  14.481   6.060 -0.0454 -0.0563  0.3625
 1227POPI   C3B18935  12.232  14.703   6.444 -0.3314 -0.1228 -0.1651
 1227POPI   C4B18936  11.909  14.969   6.582  0.0339  0.2670  0.1322
 1228POPI    C118937  16.052   8.242   4.649  0.1890 -0.1275 -0.0982
 1228POPI    C218938  16.298   8.424   4.905 -0.0749  0.2091 -0.0771
 1228POPI    C318939  16.333   8.492   4.513  0.1607 -0.1043 -0.1142
 1228POPI   PO418940  15.859   8.152   4.802  0.0353 -0.4289  0.0347
 1228POPI   GL118941  15.929   8.241   5.197  0.3199 -0.1092 -0.0961
 1228POPI   GL218942  15.906   8.632   5.107  0.0421  0.3410 -0.3024
 1228POPI   C1A18943  15.935   8.176   5.656  0.0619 -0.1112 -0.1096
 1228POPI   D2A18944  15.869   8.333   5.953  0.1908  0.0584  0.1382
 1228POPI   C3A18945  16.202   8.353   6.244 -0.0015  0.1559 -0.1179
 1228POPI   C4A18946  16.233   8.091   6.666  0.1150  0.1959 -0.0413
 1228POPI   C1B18947  15.843   8.793   5.451  0.2746  0.1922  0.2242
 1228POPI   C2B18948  15.562   8.691   5.796  0.2825  0.3137 -0.3304
 1228POPI   C3B18949  15.607   8.786   6.157 -0.1185 -0.1382 -0.1394
 1228POPI   C4B18950  15.323   8.634   6.547  0.0070 -0.0614  0.3221
 1229POPI    C118951   2.054   8.567   4.770  0.0638  0.0444  0.3999
 1229POPI    C218952   2.331   8.583   5.058  0.3503 -0.3876  0.1593
 1229POPI    C318953   2.439   8.502   4.682 -0.0527 -0.0982 -0.0257
 1229POPI   PO418954   1.863   8.740   4.884  0.0234 -0.2638  0.0384
 1229POPI   GL118955   1.855   8.869   5.346 -0.0758 -0.0600  0.1003
 1229POPI   GL218956   2.137   8.985   5.381 -0.0990 -0.0456 -0.1528
 1229POPI   C1A18957   1.837   8.986   5.792 -0.2592  0.2355 -0.0368
 1229POPI   D2A18958   1.819   8.802   6.168 -0.1312 -0.0323 -0.2078
 1229POPI   C3A18959   1.508   8.938   6.548  0.0830  0.0084  0.0659
 1229POPI   C4A18960   1.189   8.805   6.810 -0.1377 -0.2780  0.0925
 1229POPI   C1B18961   2.313   8.878   5.844 -0.3181  0.0134 -0.2160
 1229POPI   C2B18962   2.474   8.992   6.268 -0.0726 -0.0350 -0.1809
 1229POPI   C3B18963   2.510   9.100   6.756 -0.2446 -0.0387 -0.2244
 1229POPI   C4B18964   2.533   9.251   7.225  0.0406 -0.0942  0.0709
 1230POPI    C118965   3.356  14.802   5.147  0.1282 -0.1789  0.0294
 1230POPI    C218966   3.057  14.655   4.925  0.1112 -0.1279  0.0187
 1230POPI    C318967   3.278  14.960   4.788 -0.1434  0.1586  0.2308
 1230POPI   PO418968   3.278  14.661   5.421 -0.0491  0.0787 -0.0789
 1230POPI   GL118969   3.481  14.512   5.685  0.0802  0.1218 -0.3061
 1230POPI   GL218970   3.658  14.670   5.814  0.1329 -0.1273  0.0071
 1230POPI   C1A18971   3.438  14.352   6.165 -0.0832  0.3124 -0.0161
 1230POPI   D2A18972   3.655  14.079   6.430 -0.1812 -0.1783 -0.1829
 1230POPI   C3A18973   3.583  14.167   6.900  0.0756 -0.0204  0.1232
 1230POPI   C4A18974   3.558  13.974   7.293  0.0124  0.0868  0.0392
 1230POPI   C1B18975   3.928  14.555   6.113 -0.2872  0.0343 -0.2887
 1230POPI   C2B18976   4.259  14.584   6.360  0.0188 -0.2812  0.4865
 1230POPI   C3B18977   4.671  14.535   6.396  0.1960  0.4123  0.1528
 1230POPI   C4B18978   4.926  14.480   6.761  0.0202 -0.1108  0.6009
 1231POPI    C118979  10.934  12.278   4.722  0.1781 -0.0123  0.2583
 1231POPI    C218980  10.832  11.916   4.859 -0.1863 -0.1430 -0.3231
 1231POPI    C318981  10.996  11.954   4.496 -0.0181  0.2675 -0.2100
 1231POPI   PO418982  11.041  12.375   4.972  0.1163  0.1384  0.0194
 1231POPI   GL118983  10.996  12.289   5.395  0.1430 -0.0480 -0.0636
 1231POPI   GL218984  10.773  12.392   5.567  0.0824 -0.3232  0.0879
 1231POPI   C1A18985  11.360  12.117   5.701  0.0692 -0.0406 -0.0042
 1231POPI   D2A18986  11.369  11.922   6.058 -0.0759 -0.0021  0.1165
 1231POPI   C3A18987  11.549  12.091   6.371 -0.2915  0.0912 -0.0210
 1231POPI   C4A18988  11.670  12.428   6.759  0.0589 -0.1441 -0.0008
 1231POPI   C1B18989  10.880  12.076   5.899  0.0032  0.0427 -0.0096
 1231POPI   C2B18990  10.763  11.744   6.206 -0.0787 -0.0261 -0.2930
 1231POPI   C3B18991  11.066  11.848   6.471 -0.2784  0.1485 -0.0097
 1231POPI   C4B18992  11.115  12.192   6.685  0.1620  0.2808 -0.1295
 1232POPI    C118993  12.993  14.613   4.990 -0.1643  0.0252 -0.1749
 1232POPI    C218994  13.232  14.425   4.729 -0.1211 -0.0752 -0.0642
 1232POPI    C318995  12.922  14.642   4.597  0.0594  0.0972 -0.2113
 1232POPI   PO418996  13.009  14.455   5.174  0.1319  0.1218 -0.0245
 1232POPI   GL118997  13.239  14.249   5.551  0.0515 -0.3022  0.8509
 1232POPI   GL218998  12.943  14.176   5.606 -0.0559 -0.1061 -0.0561
 1232POPI   C1A18999  13.400  13.936   5.894 -0.1666 -0.0868  0.0226
 1232POPI   D2A19000  13.796  13.823   5.887 -0.1212 -0.0071 -0.0305
 1232POPI   C3A19001  14.203  13.987   6.023  0.0758  0.3122 -0.1600
 1232POPI   C4A19002  14.311  14.169   6.443  0.0346 -0.0637  0.0469
 1232POPI   C1B19003  12.818  14.514   5.898  0.3192  0.0085 -0.0933
 1232POPI   C2B19004  12.780  14.751   6.303  0.3291  0.1005  0.0012
 1232POPI   C3B19005  12.700  14.683   6.676 -0.4898 -0.1381 -0.1632
 1232POPI   C4B19006  12.610  14.426   7.084 -0.3253  0.3846 -0.3485
 1233POPI    C119007   6.137   7.718   4.368 -0.0587 -0.2332 -0.0895
 1233POPI    C219008   6.495   7.603   4.504  0.1144  0.2178 -0.1449
 1233POPI    C319009   6.461   7.754   4.135 -0.1884 -0.0980 -0.2519
 1233POPI   PO419010   5.952   7.786   4.582 -0.0966 -0.1177  0.0569
 1233POPI   GL119011   5.866   7.639   5.049  0.0657 -0.1791 -0.0240
 1233POPI   GL219012   6.147   7.656   5.198  0.1772  0.1110 -0.0432
 1233POPI   C1A19013   5.631   7.680   5.380  0.2442  0.1007 -0.0307
 1233POPI   D2A19014   5.191   7.833   5.586  0.2584  0.0142  0.1479
 1233POPI   C3A19015   5.200   7.995   6.050  0.6210  0.0890  0.3369
 1233POPI   C4A19016   5.382   8.110   6.482 -0.0910 -0.0275  0.0823
 1233POPI   C1B19017   5.983   7.438   5.561 -0.0755 -0.2765  0.0539
 1233POPI   C2B19018   6.134   7.430   5.975 -0.2235  0.0761 -0.0929
 1233POPI   C3B19019   6.248   7.292   6.402  0.1128 -0.3221 -0.2287
 1233POPI   C4B19020   6.145   7.383   6.817  0.1160  0.1324  0.2004
 1234POPI    C119021  13.620   1.169   4.894  0.0945 -0.0713  0.0785
 1234POPI    C219022  13.381   0.982   4.634 -0.0822  0.1749  0.0596
 1234POPI    C319023  13.634   1.264   4.506 -0.1679  0.2953  0.1535
 1234POPI   PO419024  13.775   0.990   5.064  0.0305 -0.0866 -0.0758
 1234POPI   GL119025  13.890   0.920   5.482  0.0899 -0.2361 -0.1720
 1234POPI   GL219026  13.612   0.788   5.513 -0.0497  0.1339 -0.0627
 1234POPI   C1A19027  13.919   0.850   5.914 -0.2733 -0.1531 -0.2007
 1234POPI   D2A19028  14.151   0.812   6.280 -0.1774  0.1541 -0.1402
 1234POPI   C3A19029  14.459   1.094   6.478  0.0854  0.4785 -0.2789
 1234POPI   C4A19030  14.737   1.288   6.796  0.1362  0.1179  0.1288
 1234POPI   C1B19031  13.316   0.835   5.917 -0.0446 -0.0506  0.0075
 1234POPI   C2B19032  13.530   0.641   6.174  0.1883 -0.1974  0.2861
 1234POPI   C3B19033  13.723   0.866   6.528  0.1230 -0.1429 -0.1465
 1234POPI   C4B19034  14.066   0.962   6.811 -0.3465 -0.0282 -0.0139
 1235POPI    C119035   2.168   3.645   4.838  0.0463 -0.2868  0.0634
 1235POPI    C219036   1.866   3.395   4.917 -0.1449 -0.0967 -0.0535
 1235POPI    C319037   1.820   3.683   4.643  0.0559  0.0966  0.1123
 1235POPI   PO419038   2.277   3.720   5.067 -0.0581 -0.0727 -0.1048
 1235POPI   GL119039   2.233   3.844   5.373 -0.2572 -0.2658 -0.0807
 1235POPI   GL219040   2.056   4.120   5.493 -0.1108 -0.1315 -0.0117
 1235POPI   C1A19041   2.301   3.608   5.789  0.3664  0.1099 -0.1642
 1235POPI   D2A19042   2.165   3.341   6.062 -0.2231  0.0490 -0.0577
 1235POPI   C3A19043   2.277   3.352   6.488 -0.0235  0.0457  0.4234
 1235POPI   C4A19044   2.200   3.321   6.918 -0.0201 -0.2214 -0.1922
 1235POPI   C1B19045   2.114   4.081   5.920 -0.0021 -0.1310 -0.2661
 1235POPI   C2B19046   2.123   3.907   6.257 -0.0289  0.1277 -0.2790
 1235POPI   C3B19047   2.183   3.820   6.745 -0.0437 -0.0643 -0.1420
 1235POPI   C4B19048   2.066   3.748   7.158 -0.1156  0.2071 -0.1278
 1236POPI    C119049   3.971   1.001   4.622  0.1074  0.1429 -0.0268
 1236POPI    C219050   4.264   1.258   4.712  0.3041  0.0052 -0.2587
 1236POPI    C319051   4.316   0.991   4.419  0.0499 -0.2075 -0.1149
 1236POPI   PO419052   3.829   1.056   4.925  0.0196  0.0427 -0.1165
 1236POPI   GL119053   3.810   0.715   5.133  0.1106 -0.0790  0.1791
 1236POPI   GL219054   3.563   0.683   5.373 -0.1981 -0.1590 -0.0539
 1236POPI   C1A19055   3.944   0.863   5.635 -0.0477 -0.0441 -0.1707
 1236POPI   D2A19056   4.057   0.770   6.085  0.1701  0.3626  0.0659
 1236POPI   C3A19057   4.078   0.345   6.214  0.1479 -0.0038 -0.0911
 1236POPI   C4A19058   3.994   0.165   6.584 -0.5089  0.0596 -0.0013
 1236POPI   C1B19059   3.503   0.515   5.695  0.0990  0.1829  0.1808
 1236POPI   C2B19060   3.634   0.450   6.087  0.0632 -0.1830 -0.0323
 1236POPI   C3B19061   3.652   0.514   6.586  0.0053  0.1170  0.2719
 1236POPI   C4B19062   3.798   0.881   6.945 -0.0447 -0.1812 -0.0272
 1237POPI    C119063  18.908   7.791   4.673  0.0195  0.1460  0.1550
 1237POPI    C219064  18.626   7.895   4.409  0.1329  0.1636  0.0401
 1237POPI    C319065  19.003   8.018   4.359  0.2241 -0.1135  0.0254
 1237POPI   PO419066  18.860   7.489   4.745  0.4012 -0.2628 -0.0378
 1237POPI   GL119067  18.805   7.427   5.226  0.1396 -0.0215  0.0968
 1237POPI   GL219068  18.495   7.544   5.259 -0.4246 -0.2009  0.1924
 1237POPI   C1A19069  18.940   7.476   5.682  0.1359 -0.1293 -0.0641
 1237POPI   D2A19070  18.756   7.348   6.046 -0.1591 -0.2722  0.0760
 1237POPI   C3A19071  18.915   7.167   6.488  0.0412 -0.0289 -0.0474
 1237POPI   C4A19072  19.259   6.985   6.811  0.0608  0.1770  0.1855
 1237POPI   C1B19073  18.239   7.977   5.501  0.1620  0.1776  0.1875
 1237POPI   C2B19074  18.082   8.178   5.845 -0.2247 -0.1150  0.2310
 1237POPI   C3B19075  17.939   8.018   6.203 -0.1431 -0.0836  0.0264
 1237POPI   C4B19076  17.883   8.100   6.576 -0.1299  0.1358  0.1300
 1238POPI    C119077   1.438  10.268   5.220 -0.0647  0.1431  0.0588
 1238POPI    C219078   1.233  10.236   4.878  0.0441 -0.0782  0.0122
 1238POPI    C319079   1.630  10.192   4.878  0.0547  0.0094  0.1541
 1238POPI   PO419080   1.262  10.191   5.439 -0.1954  0.1334 -0.2406
 1238POPI   GL119081   1.257  10.164   5.842  0.1981  0.0113  0.0793
 1238POPI   GL219082   1.646  10.323   5.788  0.1474  0.3621 -0.0098
 1238POPI   C1A19083   1.231  10.269   6.308  0.4178  0.1096  0.1450
 1238POPI   D2A19084   0.926  10.185   6.545  0.1982  0.2321 -0.0598
 1238POPI   C3A19085   0.515  10.133   6.291 -0.1112 -0.0753  0.1557
 1238POPI   C4A19086   0.152  10.023   6.304 -0.1658 -0.0385  0.3114
 1238POPI   C1B19087   1.665  10.034   6.183  0.1593  0.1191  0.0277
 1238POPI   C2B19088   1.826   9.883   6.485 -0.0253 -0.2570 -0.1905
 1238POPI   C3B19089   1.801   9.815   6.839  0.4949  0.0282  0.0803
 1238POPI   C4B19090   1.706   9.702   7.193 -0.0959  0.0164  0.2510
 1239POPI    C119091  10.421  13.687   4.891  0.1100  0.0858  0.0075
 1239POPI    C219092  10.022  13.666   4.870  0.0955  0.1638  0.1825
 1239POPI    C319093  10.245  13.548   4.560 -0.0670  0.2453  0.0325
 1239POPI   PO419094  10.392  13.636   5.237  0.1551  0.1216  0.1831
 1239POPI   GL119095  10.668  13.602   5.619  0.0639  0.1968  0.2025
 1239POPI   GL219096  10.523  13.871   5.700  0.1530 -0.0588 -0.3855
 1239POPI   C1A19097  11.011  13.624   5.916  0.4367 -0.0024 -0.0379
 1239POPI   D2A19098  11.375  13.657   6.230 -0.0956  0.0870 -0.1078
 1239POPI   C3A19099  11.372  13.574   6.631 -0.2213 -0.0427  0.0401
 1239POPI   C4A19100  11.484  13.510   7.027  0.0879 -0.1004  0.1317
 1239POPI   C1B19101  10.511  13.904   6.133  0.1254  0.1571 -0.3027
 1239POPI   C2B19102  10.526  14.052   6.481  0.0975 -0.0716 -0.2595
 1239POPI   C3B19103  10.793  14.253   6.815 -0.0372  0.1652 -0.1764
 1239POPI   C4B19104  10.998  14.315   7.273 -0.0624 -0.0648  0.1288
 1240POPI    C119105  13.001   5.362   4.637 -0.2734  0.1745 -0.0867
 1240POPI    C219106  13.148   4.990   4.630 -0.0140  0.2683  0.1551
 1240POPI    C319107  12.821   5.081   4.417 -0.0586 -0.0869  0.0659
 1240POPI   PO419108  13.034   5.473   4.870 -0.0762 -0.0673 -0.0870
 1240POPI   GL119109  13.103   5.276   5.226  0.1276 -0.3060  0.2284
 1240POPI   GL219110  13.448   5.397   5.271  0.1077  0.0111 -0.1983
 1240POPI   C1A19111  12.840   5.259   5.590 -0.1285 -0.2320  0.1016
 1240POPI   D2A19112  12.969   5.059   5.956 -0.0642  0.0822  0.1588
 1240POPI   C3A19113  12.909   4.839   6.349  0.0504  0.0712  0.0691
 1240POPI   C4A19114  13.043   4.751   6.791 -0.0495  0.0878  0.0731
 1240POPI   C1B19115  13.255   5.577   5.677 -0.2459 -0.2140 -0.0583
 1240POPI   C2B19116  13.037   5.636   6.088 -0.1047  0.1383 -0.0553
 1240POPI   C3B19117  12.752   5.784   6.419  0.0160 -0.0608  0.0812
 1240POPI   C4B19118  12.569   5.594   6.826  0.1803  0.3165 -0.1586
 1241POPI    C119119  13.115  15.140   5.010 -0.0942 -0.0457 -0.1390
 1241POPI    C219120  12.716  15.161   5.029 -0.0988 -0.1566 -0.1104
 1241POPI    C319121  12.898  15.139   4.674 -0.1002  0.2229 -0.1385
 1241POPI   PO419122  13.173  15.130   5.380 -0.2831 -0.1174  0.0879
 1241POPI   GL119123  13.239  14.919   5.669 -0.0912 -0.1013 -0.0046
 1241POPI   GL219124  13.502  14.705   5.701 -0.2077  0.0937 -0.0362
 1241POPI   C1A19125  13.216  14.914   6.160  0.1060  0.1148 -0.0699
 1241POPI   D2A19126  13.168  14.856   6.622  0.1285  0.0657  0.0162
 1241POPI   C3A19127  12.971  15.012   6.895 -0.1695 -0.3016  0.1566
 1241POPI   C4A19128  12.737  14.977   7.230  0.0467  0.0174  0.4152
 1241POPI   C1B19129  13.322  14.408   6.040 -0.2024 -0.1681  0.0362
 1241POPI   C2B19130  13.354  14.441   6.484 -0.3792  0.1230  0.1117
 1241POPI   C3B19131  13.171  14.453   7.001 -0.1166  0.1861 -0.0644
 1241POPI   C4B19132  13.042  14.533   7.329 -0.0501  0.1197  0.3067
 1242POPI    C119133  17.491  18.613   5.341  0.0328 -0.2444  0.0564
 1242POPI    C219134  17.634  18.376   5.052  0.2435  0.1312 -0.1545
 1242POPI    C319135  17.318  18.611   4.980  0.0926 -0.0133  0.0253
 1242POPI   PO419136  17.675  18.730   5.504  0.2163 -0.2382  0.0412
 1242POPI   GL119137  17.979  19.033   5.520 -0.2042  0.0732 -0.0720
 1242POPI   GL219138  18.107  19.192   5.361 -0.0448  0.0019 -0.0787
 1242POPI   C1A19139  18.183  18.995   5.908 -0.1909 -0.1078  0.1028
 1242POPI   D2A19140  18.267  18.988   6.325  0.0291 -0.0938  0.5547
 1242POPI   C3A19141  18.712  19.161   6.550 -0.2215  0.2377 -0.0553
 1242POPI   C4A19142  18.957  19.103   6.955  0.0493 -0.1194  0.0678
 1242POPI   C1B19143  18.224  19.454   5.716 -0.1012 -0.0029 -0.3726
 1242POPI   C2B19144  18.514  19.394   6.038 -0.4087  0.0227  0.1320
 1242POPI   C3B19145  18.935  19.484   6.261 -0.2540  0.0345  0.0055
 1242POPI   C4B19146  19.053  19.602   6.639  0.1264  0.1912 -0.2597
 1243POPI    C119147   6.453  16.369   5.183  0.0581  0.1506 -0.0945
 1243POPI    C219148   6.152  16.542   5.381 -0.0798 -0.0632 -0.1134
 1243POPI    C319149   6.169  16.565   4.982 -0.2559 -0.3322 -0.1388
 1243POPI   PO419150   6.649  16.432   5.343  0.1607 -0.0223 -0.0705
 1243POPI   GL119151   6.742  16.454   5.748  0.2419 -0.2875 -0.1992
 1243POPI   GL219152   6.481  16.676   5.799 -0.2236 -0.1922 -0.1251
 1243POPI   C1A19153   7.051  16.402   6.223  0.1049  0.0196 -0.0858
 1243POPI   D2A19154   7.494  16.393   6.311  0.1272  0.0393 -0.1954
 1243POPI   C3A19155   7.696  16.351   6.681  0.5980 -0.0722  0.0598
 1243POPI   C4A19156   7.633  16.550   7.065  0.1613 -0.1727  0.0370
 1243POPI   C1B19157   6.445  17.033   6.188 -0.1209  0.1651 -0.0244
 1243POPI   C2B19158   6.257  17.153   6.498  0.0947 -0.1956 -0.0968
 1243POPI   C3B19159   6.135  17.529   6.575 -0.3002 -0.1601 -0.1282
 1243POPI   C4B19160   5.922  17.922   6.468 -0.0037  0.0895  0.0996
 1244POPI    C119161  11.635  17.270   5.163 -0.0988  0.2292 -0.1677
 1244POPI    C219162  11.648  17.385   4.780 -0.1857  0.2987 -0.1498
 1244POPI    C319163  11.295  17.330   4.961 -0.1463 -0.0006 -0.1590
 1244POPI   PO419164  11.872  17.335   5.243  0.4185  0.0243  0.3622
 1244POPI   GL119165  11.781  17.535   5.616  0.2734  0.1967 -0.2063
 1244POPI   GL219166  11.882  17.187   5.713  0.0082 -0.0191  0.1093
 1244POPI   C1A19167  11.691  17.838   5.969 -0.0658 -0.4056 -0.0999
 1244POPI   D2A19168  11.660  17.876   6.366  0.0285 -0.4011 -0.2145
 1244POPI   C3A19169  11.774  18.241   6.512  0.0611  0.2016 -0.2919
 1244POPI   C4A19170  11.779  18.440   6.890 -0.3102  0.0614 -0.0505
 1244POPI   C1B19171  11.770  17.316   6.118  0.0425 -0.0193 -0.1540
 1244POPI   C2B19172  11.622  17.372   6.491  0.1329  0.0676 -0.1737
 1244POPI   C3B19173  11.422  17.450   6.936 -0.1626  0.0976 -0.1795
 1244POPI   C4B19174  11.142  17.247   7.217 -0.0084  0.1822 -0.0622
 1245POPI    C119175   9.331  12.025   4.572  0.1200  0.4383 -0.2559
 1245POPI    C219176   9.100  12.008   4.246 -0.0153  0.1489 -0.1483
 1245POPI    C319177   9.384  12.289   4.275 -0.1935  0.3591 -0.3860
 1245POPI   PO419178   9.202  11.900   4.791  0.0504  0.1087  0.1021
 1245POPI   GL119179   9.074  11.898   5.165 -0.3503 -0.1696 -0.1963
 1245POPI   GL219180   8.814  11.586   5.118  0.2786  0.2022 -0.1755
 1245POPI   C1A19181   9.068  11.877   5.533  0.2817 -0.0220 -0.0262
 1245POPI   D2A19182   9.151  11.971   5.910  0.2272 -0.0313 -0.0496
 1245POPI   C3A19183   9.520  11.901   5.992 -0.1961 -0.0647 -0.0479
 1245POPI   C4A19184   9.883  12.020   6.164 -0.3388 -0.2187 -0.2901
 1245POPI   C1B19185   8.643  11.569   5.541 -0.0879  0.2320  0.2850
 1245POPI   C2B19186   8.794  11.618   5.948  0.0948 -0.2743  0.0245
 1245POPI   C3B19187   8.698  11.533   6.439  0.0130  0.1951  0.0589
 1245POPI   C4B19188   8.480  11.473   6.754 -0.0679  0.2398 -0.2019
 1246POPI    C119189   7.124  12.750   4.614  0.0822  0.0158 -0.0699
 1246POPI    C219190   7.400  12.533   4.423 -0.0264  0.0942 -0.3204
 1246POPI    C319191   7.209  12.827   4.231 -0.1696  0.1466 -0.1018
 1246POPI   PO419192   7.311  12.827   4.821 -0.3321 -0.0108 -0.2436
 1246POPI   GL119193   7.191  12.733   5.298  0.0716 -0.2971 -0.1080
 1246POPI   GL219194   7.484  12.832   5.443 -0.2547  0.0368 -0.1004
 1246POPI   C1A19195   7.135  12.491   5.642 -0.0055  0.1813  0.0755
 1246POPI   D2A19196   7.445  12.182   5.803 -0.1334  0.0049  0.3063
 1246POPI   C3A19197   7.475  12.241   6.270  0.0609 -0.0791  0.1004
 1246POPI   C4A19198   7.286  12.145   6.718  0.1349 -0.2440  0.2274
 1246POPI   C1B19199   7.674  12.695   5.880 -0.0657  0.0970 -0.3732
 1246POPI   C2B19200   7.971  12.725   6.262  0.1252 -0.1280  0.0161
 1246POPI   C3B19201   8.075  12.785   6.736  0.4453  0.0116 -0.3292
 1246POPI   C4B19202   7.960  12.690   7.097  0.0405 -0.0063 -0.0398
 1247DPPI    C119203  12.140  12.072   4.424  0.0837  0.0582 -0.2374
 1247DPPI    C219204  11.792  12.054   4.227  0.1527  0.0622 -0.3602
 1247DPPI    C319205  12.128  11.920   4.055  0.1836 -0.1030 -0.1754
 1247DPPI   PO419206  12.004  12.019   4.659  0.1035  0.0303  0.0245
 1247DPPI   GL119207  12.054  12.139   5.080  0.0559 -0.1676 -0.0932
 1247DPPI   GL219208  11.909  12.184   5.300 -0.1328  0.3446 -0.2815
 1247DPPI   C1A19209  12.332  11.944   5.292 -0.4775 -0.3007  0.0553
 1247DPPI   C2A19210  12.225  11.941   5.681 -0.0321  0.1018 -0.0290
 1247DPPI   C3A19211  11.999  12.105   6.038  0.0606  0.2399 -0.0229
 1247DPPI   C4A19212  12.062  12.309   6.447  0.1046  0.2022  0.0334
 1247DPPI   C1B19213  11.813  12.374   5.601  0.1893  0.0416  0.0923
 1247DPPI   C2B19214  11.598  12.408   5.981 -0.1471  0.0764 -0.1927
 1247DPPI   C3B19215  11.197  12.358   6.213  0.0465  0.1375 -0.0269
 1247DPPI   C4B19216  10.795  12.346   6.332  0.1141  0.0325 -0.7229
 1248DPPI    C119217  10.760  18.522   4.739  0.0031  0.0322 -0.3970
 1248DPPI    C219218  10.362  18.520   4.695 -0.0745 -0.1957  0.2121
 1248DPPI    C319219  10.576  18.196   4.597 -0.0582 -0.1412  0.0638
 1248DPPI   PO419220  10.902  18.512   5.081 -0.2140  0.1124  0.3803
 1248DPPI   GL119221  10.707  18.463   5.490  0.0011  0.0798 -0.1514
 1248DPPI   GL219222  10.813  18.159   5.468 -0.0129 -0.1278 -0.0281
 1248DPPI   C1A19223  10.784  18.526   5.913 -0.1956 -0.0561  0.0772
 1248DPPI   C2A19224  10.810  18.527   6.292  0.2098  0.0547  0.2244
 1248DPPI   C3A19225  10.748  18.445   6.713  0.1227 -0.1492 -0.1610
 1248DPPI   C4A19226  11.178  18.632   6.816 -0.0790  0.3498 -0.1335
 1248DPPI   C1B19227  10.977  18.085   5.870 -0.1427  0.0806  0.2302
 1248DPPI   C2B19228  10.940  17.891   6.220  0.2243 -0.0867 -0.2785
 1248DPPI   C3B19229  10.786  17.938   6.630  0.0982 -0.1355  0.2238
 1248DPPI   C4B19230  10.636  17.945   6.934  0.0909 -0.0306  0.1267
 1249DPPI    C119231   9.176  13.515   5.202  0.1701  0.1347 -0.3969
 1249DPPI    C219232   9.140  13.178   4.990  0.0145 -0.0633 -0.0637
 1249DPPI    C319233   9.484  13.261   5.176  0.0086 -0.1068 -0.0331
 1249DPPI   PO419234   9.046  13.519   5.398 -0.2491  0.3086 -0.0878
 1249DPPI   GL119235   9.030  13.279   5.799  0.2018 -0.0172 -0.0937
 1249DPPI   GL219236   9.186  13.096   5.699  0.3658  0.2437  0.1235
 1249DPPI   C1A19237   9.094  13.279   6.254 -0.1029 -0.1135 -0.1274
 1249DPPI   C2A19238   9.081  13.309   6.638 -0.2350 -0.0691 -0.1754
 1249DPPI   C3A19239   9.472  13.306   6.974  0.1590 -0.0522 -0.1473
 1249DPPI   C4A19240   9.824  13.377   7.181  0.3086  0.2530 -0.2593
 1249DPPI   C1B19241   9.478  12.936   6.064  0.2328 -0.1494  0.0629
 1249DPPI   C2B19242   9.366  12.930   6.517 -0.2249  0.0090  0.1165
 1249DPPI   C3B19243   9.131  12.887   6.911  0.0974 -0.1211  0.3033
 1249DPPI   C4B19244   9.061  12.738   7.251  0.2638 -0.1106 -0.4572
 1250DPPI    C119245  10.557   9.530   5.358  0.2117  0.0433  0.1605
 1250DPPI    C219246  10.406   9.283   5.082  0.3007  0.1069  0.0539
 1250DPPI    C319247  10.196   9.366   5.413  0.2325 -0.0411  0.0487
 1250DPPI   PO419248  10.646   9.751   5.197 -0.2647 -0.1226  0.0485
 1250DPPI   GL119249  10.851  10.030   5.503  0.3715 -0.0749  0.0007
 1250DPPI   GL219250  10.777  10.325   5.449  0.0462  0.0584 -0.4386
 1250DPPI   C1A19251  10.962   9.997   5.864 -0.4600  0.0968  0.1092
 1250DPPI   C2A19252  11.078   9.883   6.279  0.0490 -0.1475  0.2837
 1250DPPI   C3A19253  11.000   9.866   6.727  0.0553 -0.1206  0.0183
 1250DPPI   C4A19254  10.854  10.073   7.197 -0.0050 -0.3395  0.0533
 1250DPPI   C1B19255  10.799  10.478   5.828  0.1074 -0.1102  0.1512
 1250DPPI   C2B19256  10.770  10.404   6.222 -0.1915  0.0307  0.0173
 1250DPPI   C3B19257  10.808  10.344   6.634 -0.0005  0.0004 -0.0269
 1250DPPI   C4B19258  11.058  10.428   6.939 -0.3149 -0.0496 -0.0014
 1251DPPI    C119259  18.110  12.966   5.013 -0.0730 -0.0072  0.1148
 1251DPPI    C219260  17.935  13.161   4.710 -0.0685 -0.0998  0.0524
 1251DPPI    C319261  18.195  13.352   4.947 -0.1240 -0.0084  0.0400
 1251DPPI   PO419262  17.818  12.888   5.183 -0.2697  0.3699 -0.1223
 1251DPPI   GL119263  17.841  12.812   5.621  0.1777  0.0670  0.0696
 1251DPPI   GL219264  17.854  12.521   5.758 -0.1463  0.1266  0.2504
 1251DPPI   C1A19265  17.614  12.820   6.012 -0.0806 -0.2564  0.0470
 1251DPPI   C2A19266  17.629  12.734   6.452  0.0230 -0.1901 -0.3571
 1251DPPI   C3A19267  17.406  12.848   6.767  0.1022 -0.1265 -0.2931
 1251DPPI   C4A19268  17.341  12.679   7.126 -0.2558  0.4245  0.2902
 1251DPPI   C1B19269  18.176  12.515   6.020 -0.0678  0.0220  0.1025
 1251DPPI   C2B19270  18.109  12.468   6.497  0.1905 -0.3287  0.0098
 1251DPPI   C3B19271  18.186  12.550   6.888 -0.0029 -0.3317 -0.0176
 1251DPPI   C4B19272  18.430  12.757   7.205 -0.2929 -0.0261 -0.0567
 1252DPPI    C119273  15.199  11.081   4.604 -0.1567 -0.3565 -0.0394
 1252DPPI    C219274  14.837  10.913   4.580 -0.2936 -0.0568 -0.1248
 1252DPPI    C319275  14.966  11.153   4.287 -0.1717  0.1214  0.0720
 1252DPPI   PO419276  15.219  11.189   4.898  0.0103 -0.0317  0.1572
 1252DPPI   GL119277  15.211  11.076   5.253 -0.0649 -0.0687  0.0811
 1252DPPI   GL219278  15.350  11.394   5.264  0.1411 -0.0134  0.1165
 1252DPPI   C1A19279  15.073  11.032   5.720  0.1870  0.2201 -0.3602
 1252DPPI   C2A19280  14.866  10.913   6.099  0.0485 -0.1210 -0.0381
 1252DPPI   C3A19281  14.694  10.842   6.526 -0.1311 -0.4269 -0.0548
 1252DPPI   C4A19282  14.453  10.846   7.030  0.1870  0.0466  0.1760
 1252DPPI   C1B19283  15.047  11.519   5.578 -0.1958 -0.2092 -0.0192
 1252DPPI   C2B19284  15.038  11.417   6.021 -0.1526 -0.2428 -0.0842
 1252DPPI   C3B19285  14.772  11.363   6.412 -0.3899 -0.0305 -0.0913
 1252DPPI   C4B19286  14.938  11.471   6.802 -0.1956  0.0108  0.0561
 1253DPPI    C119287   9.078  14.910   4.853 -0.1225  0.0706 -0.0136
 1253DPPI    C219288   8.694  14.856   4.755 -0.1499  0.2439 -0.0046
 1253DPPI    C319289   8.970  14.892   4.468 -0.0985 -0.1582 -0.0111
 1253DPPI   PO419290   8.972  15.085   5.089 -0.3264  0.4365  0.1594
 1253DPPI   GL119291   8.827  15.279   5.444 -0.2084  0.2352  0.0615
 1253DPPI   GL219292   8.859  14.948   5.581  0.0956  0.1385 -0.0501
 1253DPPI   C1A19293   8.849  15.347   5.926 -0.1999 -0.2124 -0.2695
 1253DPPI   C2A19294   8.648  15.584   6.289  0.2709  0.0444  0.2347
 1253DPPI   C3A19295   8.408  15.517   6.681 -0.0306  0.6327  0.3005
 1253DPPI   C4A19296   7.995  15.482   6.948 -0.3480 -0.1726 -0.2772
 1253DPPI   C1B19297   8.772  14.649   5.858 -0.5490 -0.0656 -0.1101
 1253DPPI   C2B19298   8.732  14.619   6.361  0.3622 -0.0874 -0.0839
 1253DPPI   C3B19299   8.625  14.697   6.834  0.1849  0.0523  0.4361
 1253DPPI   C4B19300   8.676  14.786   7.333  0.0295 -0.0548 -0.4064
 1254DPPI    C119301  10.267   0.683   4.723 -0.0539 -0.0490 -0.0174
 1254DPPI    C219302  10.406   0.434   4.442  0.1396  0.2578 -0.1990
 1254DPPI    C319303  10.088   0.664   4.367 -0.0159  0.0965 -0.0447
 1254DPPI   PO419304  10.261   0.514   4.903  0.0551 -0.1324 -0.0234
 1254DPPI   GL119305  10.296   0.377   5.237 -0.2251  0.0811  0.0637
 1254DPPI   GL219306  10.588   0.438   5.360  0.0416  0.0768 -0.0502
 1254DPPI   C1A19307   9.970   0.437   5.525  0.3079  0.3206 -0.0318
 1254DPPI   C2A19308   9.953   0.257   5.919  0.1610 -0.1221  0.1279
 1254DPPI   C3A19309   9.806   0.260   6.346  0.2144  0.2024 -0.3714
 1254DPPI   C4A19310   9.512   0.106   6.494  0.0077  0.0485  0.2078
 1254DPPI   C1B19311  10.463   0.680   5.657  0.0663 -0.0697  0.0620
 1254DPPI   C2B19312  10.405   0.575   6.102 -0.2345  0.0593  0.0686
 1254DPPI   C3B19313  10.397   0.542   6.485 -0.0190  0.1761  0.0283
 1254DPPI   C4B19314  10.356   0.670   6.928 -0.1594 -0.0336  0.1752
 1255DPPI    C119315  13.140  12.191   4.350 -0.2089  0.2642 -0.3418
 1255DPPI    C219316  13.480  12.384   4.435 -0.1038  0.0080 -0.1658
 1255DPPI    C319317  13.415  12.247   4.065  0.1677 -0.2916 -0.1076
 1255DPPI   PO419318  12.969  12.293   4.593  0.1804  0.2970 -0.1799
 1255DPPI   GL119319  12.864  12.257   5.080 -0.1898 -0.0748 -0.0720
 1255DPPI   GL219320  12.570  12.381   5.129 -0.2016 -0.0986 -0.5139
 1255DPPI   C1A19321  12.745  12.074   5.536 -0.0020  0.0870 -0.0840
 1255DPPI   C2A19322  12.639  11.784   5.847  0.0325  0.1542  0.3497
 1255DPPI   C3A19323  12.394  11.713   6.157 -0.0104  0.1171 -0.1873
 1255DPPI   C4A19324  11.980  11.835   6.498  0.1432 -0.0675 -0.0162
 1255DPPI   C1B19325  12.258  12.443   5.506 -0.2961  0.1305 -0.2982
 1255DPPI   C2B19326  12.151  12.609   5.911  0.2001 -0.1408  0.0534
 1255DPPI   C3B19327  11.964  12.762   6.305 -0.0329 -0.0667 -0.0979
 1255DPPI   C4B19328  11.955  12.814   6.745 -0.1945  0.1394  0.0123
 1256DPPI    C119329   7.093  11.740   4.442  0.1248  0.0700 -0.2850
 1256DPPI    C219330   6.750  11.732   4.235  0.0116 -0.0341 -0.0966
 1256DPPI    C319331   7.087  11.858   4.060 -0.1909  0.4052 -0.1832
 1256DPPI   PO419332   7.050  11.820   4.686  0.1621  0.0874  0.0240
 1256DPPI   GL119333   7.189  11.825   5.078  0.1490  0.2228 -0.1765
 1256DPPI   GL219334   7.041  11.509   5.069  0.1039 -0.1953  0.1631
 1256DPPI   C1A19335   7.297  11.727   5.579  0.1098 -0.3833  0.2711
 1256DPPI   C2A19336   7.363  11.588   6.039 -0.1774  0.1941  0.0936
 1256DPPI   C3A19337   7.207  11.725   6.383 -0.1469 -0.0072  0.0937
 1256DPPI   C4A19338   7.109  11.674   6.780 -0.2167 -0.1235  0.2651
 1256DPPI   C1B19339   6.760  11.394   5.356 -0.4227 -0.0172  0.0662
 1256DPPI   C2B19340   6.784  11.445   5.752 -0.1627  0.0491  0.1000
 1256DPPI   C3B19341   6.808  11.562   6.184 -0.0101  0.0605  0.1057
 1256DPPI   C4B19342   6.689  11.497   6.560  0.0614 -0.1415  0.0321
 1257DPPI    C119343   9.560  18.037   4.674  0.0249 -0.1532  0.1076
 1257DPPI    C219344   9.263  18.239   4.497 -0.0101 -0.1184  0.2055
 1257DPPI    C319345   9.514  18.018   4.277  0.0382  0.0444  0.0959
 1257DPPI   PO419346   9.460  18.077   4.916  0.0738  0.1783 -0.2061
 1257DPPI   GL119347   9.513  17.872   5.332 -0.0444 -0.0347 -0.1371
 1257DPPI   GL219348   9.741  17.712   5.536  0.0992 -0.0043 -0.0786
 1257DPPI   C1A19349   9.425  18.137   5.595 -0.2580  0.2487  0.2174
 1257DPPI   C2A19350   9.418  18.065   6.057 -0.2116 -0.1048 -0.1452
 1257DPPI   C3A19351   9.387  18.164   6.516 -0.1323  0.0872  0.0509
 1257DPPI   C4A19352   9.317  18.230   6.924  0.0033 -0.1917  0.2094
 1257DPPI   C1B19353   9.720  17.647   6.058 -0.0236  0.0071 -0.0607
 1257DPPI   C2B19354   9.663  17.427   6.447  0.1128 -0.0037  0.2376
 1257DPPI   C3B19355   9.612  17.356   6.902  0.1109 -0.2488  0.3920
 1257DPPI   C4B19356   9.521  17.138   7.238  0.0015 -0.2842 -0.0896
 1258DPPI    C119357  14.910  17.751   5.281 -0.1980  0.2139  0.1792
 1258DPPI    C219358  14.860  17.895   4.911  0.0309 -0.1907 -0.0169
 1258DPPI    C319359  14.546  17.864   5.158 -0.1192  0.1046 -0.1648
 1258DPPI   PO419360  15.194  17.518   5.313 -0.1667 -0.2997 -0.1625
 1258DPPI   GL119361  15.236  17.303   5.744 -0.4233  0.3810 -0.0081
 1258DPPI   GL219362  15.249  17.711   5.765 -0.0026 -0.2264  0.3298
 1258DPPI   C1A19363  15.221  17.053   6.132  0.1128  0.1507  0.3981
 1258DPPI   C2A19364  15.290  16.978   6.612 -0.2919 -0.1372 -0.0582
 1258DPPI   C3A19365  15.336  16.725   6.989  0.2103  0.0158 -0.0148
 1258DPPI   C4A19366  15.673  16.758   7.180 -0.2461 -0.3032 -0.1300
 1258DPPI   C1B19367  15.183  17.534   6.225  0.3675  0.1564  0.0351
 1258DPPI   C2B19368  15.102  17.595   6.630 -0.2042  0.0311  0.0144
 1258DPPI   C3B19369  14.891  17.982   6.836  0.2241  0.1843  0.0523
 1258DPPI   C4B19370  14.972  18.506   6.799  0.0710 -0.1204 -0.0258
 1259DPPI    C119371   2.917   7.786   4.919 -0.1612 -0.0801 -0.0713
 1259DPPI    C219372   3.118   8.120   5.008  0.0955 -0.2228 -0.1048
 1259DPPI    C319373   2.903   8.100   4.672  0.3211 -0.1924 -0.2529
 1259DPPI   PO419374   2.889   7.703   5.152  0.1922  0.0597 -0.6358
 1259DPPI   GL119375   2.435   7.761   5.496 -0.6238  0.2041 -0.0259
 1259DPPI   GL219376   2.831   7.798   5.630 -0.0983  0.3662 -0.3950
 1259DPPI   C1A19377   2.448   7.680   5.977 -0.2068  0.0778 -0.0991
 1259DPPI   C2A19378   2.300   7.682   6.368 -0.2222 -0.1271  0.1150
 1259DPPI   C3A19379   2.410   7.831   6.795 -0.1308 -0.3466  0.1680
 1259DPPI   C4A19380   2.507   8.052   7.104 -0.1050 -0.3097  0.1553
 1259DPPI   C1B19381   3.144   7.639   5.995 -0.2300  0.0699 -0.1120
 1259DPPI   C2B19382   3.083   7.550   6.540 -0.0263 -0.0628 -0.0799
 1259DPPI   C3B19383   2.764   7.437   6.816  0.2206  0.0604  0.2604
 1259DPPI   C4B19384   2.461   7.195   6.980  0.0988  0.0691 -0.2139
 1260DPPI    C119385   6.663  15.414   4.801  0.1177  0.0865  0.1203
 1260DPPI    C219386   6.731  15.734   4.571  0.1685  0.0178  0.0389
 1260DPPI    C319387   6.706  15.371   4.406 -0.0347 -0.0032  0.1123
 1260DPPI   PO419388   6.612  15.492   5.158  0.0073  0.0499  0.0347
 1260DPPI   GL119389   6.640  15.442   5.610 -0.2926 -0.0289 -0.0286
 1260DPPI   GL219390   6.835  15.380   5.791  0.0725  0.0137 -0.1405
 1260DPPI   C1A19391   6.355  15.644   5.934  0.2998  0.0915  0.1436
 1260DPPI   C2A19392   6.250  15.735   6.298 -0.1336 -0.0841 -0.4657
 1260DPPI   C3A19393   6.295  15.832   6.693 -0.4213 -0.2599  0.2545
 1260DPPI   C4A19394   6.349  15.961   7.145  0.2961 -0.0870 -0.2615
 1260DPPI   C1B19395   6.737  15.650   6.145  0.0196 -0.0981  0.1173
 1260DPPI   C2B19396   6.714  15.981   6.417  0.0660  0.0783  0.0467
 1260DPPI   C3B19397   6.729  16.177   6.753  0.1093  0.1429 -0.0338
 1260DPPI   C4B19398   6.819  16.191   7.191  0.0746 -0.1599 -0.1898
 1261DPPI    C119399  10.747  14.618   4.684 -0.0911 -0.3181  0.1831
 1261DPPI    C219400  10.705  14.405   4.348 -0.0936  0.0415 -0.0503
 1261DPPI    C319401  10.382  14.541   4.541 -0.0857  0.0646 -0.0532
 1261DPPI   PO419402  11.113  14.488   4.706  0.2444  0.0947  0.0512
 1261DPPI   GL119403  11.246  14.190   5.076  0.1897  0.0589  0.0590
 1261DPPI   GL219404  11.549  13.982   4.981 -0.0978 -0.0967  0.1413
 1261DPPI   C1A19405  11.416  14.500   5.386  0.1562  0.1887 -0.1209
 1261DPPI   C2A19406  11.648  14.676   5.720  0.0271  0.0509  0.0056
 1261DPPI   C3A19407  11.966  14.907   6.026  0.0976  0.0763 -0.0369
 1261DPPI   C4A19408  12.249  15.147   6.219  0.0088 -0.1368  0.0207
 1261DPPI   C1B19409  11.599  14.078   5.454  0.0471 -0.3118 -0.2320
 1261DPPI   C2B19410  11.453  14.067   5.941 -0.0803 -0.3395  0.1244
 1261DPPI   C3B19411  11.466  14.095   6.441 -0.0136 -0.1439 -0.0206
 1261DPPI   C4B19412  11.349  14.357   6.772  0.0581  0.2305 -0.0391
 1262DPPI    C119413   9.294   3.439   4.528 -0.0243  0.0156 -0.1878
 1262DPPI    C219414   9.598   3.678   4.629 -0.1330  0.0827 -0.0146
 1262DPPI    C319415   9.454   3.684   4.256  0.0811  0.0457 -0.0992
 1262DPPI   PO419416   9.098   3.520   4.681 -0.2104 -0.1284 -0.2630
 1262DPPI   GL119417   9.085   3.486   5.217 -0.0440 -0.2149 -0.1879
 1262DPPI   GL219418   8.804   3.309   5.165 -0.3983  0.3662 -0.2430
 1262DPPI   C1A19419   8.899   3.239   5.628 -0.0621  0.0559  0.1418
 1262DPPI   C2A19420   8.621   3.388   5.858  0.0557  0.0569  0.0349
 1262DPPI   C3A19421   8.649   3.413   6.318 -0.0053  0.0773  0.3143
 1262DPPI   C4A19422   8.326   3.576   6.603 -0.2650 -0.0168  0.0413
 1262DPPI   C1B19423   8.411   3.224   5.382 -0.0835 -0.2405 -0.3293
 1262DPPI   C2B19424   8.123   2.893   5.753  0.3223  0.0529  0.1713
 1262DPPI   C3B19425   7.934   2.893   6.164 -0.1854  0.0500  0.2114
 1262DPPI   C4B19426   8.344   2.946   6.347  0.0785  0.6649  0.0929
 1263DPPI    C119427  16.258  12.593   4.796  0.2074 -0.0238  0.1737
 1263DPPI    C219428  15.896  12.459   4.691  0.2242  0.0776 -0.0192
 1263DPPI    C319429  15.993  12.842   4.631  0.4145  0.0173 -0.1059
 1263DPPI   PO419430  16.262  12.442   5.008 -0.2005  0.0512  0.2047
 1263DPPI   GL119431  16.052  12.416   5.393 -0.4265 -0.0584 -0.1663
 1263DPPI   GL219432  16.087  12.213   5.621  0.1228  0.0388  0.3016
 1263DPPI   C1A19433  15.762  12.577   5.700  0.1859 -0.0141  0.4882
 1263DPPI   C2A19434  15.783  12.602   6.038  0.1168  0.1689 -0.1572
 1263DPPI   C3A19435  15.667  12.741   6.399  0.2271 -0.1654 -0.3217
 1263DPPI   C4A19436  15.662  12.553   6.669  0.1036 -0.2724 -0.2724
 1263DPPI   C1B19437  15.934  12.035   6.048  0.1861  0.0509 -0.0729
 1263DPPI   C2B19438  15.623  12.160   6.355  0.0248 -0.0216  0.1742
 1263DPPI   C3B19439  15.513  12.137   6.845 -0.3681  0.3959  0.4003
 1263DPPI   C4B19440  15.601  12.172   7.282  0.0052  0.0968  0.1340
 1264DPPI    C119441  13.637  17.378   4.715  0.0623  0.1635  0.1193
 1264DPPI    C219442  13.753  17.123   4.430  0.0088  0.1723  0.0893
 1264DPPI    C319443  13.669  17.502   4.336 -0.1369  0.1413  0.0942
 1264DPPI   PO419444  13.712  17.377   4.991 -0.1472 -0.0068 -0.0658
 1264DPPI   GL119445  13.974  17.332   5.410 -0.0572  0.2541 -0.2160
 1264DPPI   GL219446  13.989  17.500   5.640  0.4647  0.5279 -0.0631
 1264DPPI   C1A19447  14.091  16.860   5.470 -0.0596 -0.2280  0.2794
 1264DPPI   C2A19448  14.294  16.671   5.686  0.2292  0.2768  0.0561
 1264DPPI   C3A19449  14.273  16.674   6.164  0.3658  0.0517 -0.1552
 1264DPPI   C4A19450  14.480  16.590   6.662 -0.0862 -0.0682 -0.2064
 1264DPPI   C1B19451  13.845  17.480   5.994  0.3412  0.0230  0.2699
 1264DPPI   C2B19452  13.644  17.189   6.244  0.0094  0.0618 -0.0712
 1264DPPI   C3B19453  13.638  17.191   6.657  0.2734 -0.0227 -0.1864
 1264DPPI   C4B19454  13.471  16.898   7.044 -0.2762  0.1794  0.0867
 1265DPPI    C119455   8.365  14.258   4.809 -0.0319 -0.0965  0.1470
 1265DPPI    C219456   8.008  14.436   4.783 -0.1222 -0.2902  0.0418
 1265DPPI    C319457   8.321  14.586   4.583 -0.1489 -0.1327  0.1166
 1265DPPI   PO419458   8.428  14.247   5.043 -0.1336  0.3177 -0.1030
 1265DPPI   GL119459   8.398  14.069   5.461  0.0701  0.0870  0.2065
 1265DPPI   GL219460   8.292  14.087   5.733  0.1492  0.0430 -0.0788
 1265DPPI   C1A19461   8.787  14.109   5.696 -0.1822 -0.0533  0.0544
 1265DPPI   C2A19462   8.919  14.103   6.178  0.0884 -0.1546 -0.3156
 1265DPPI   C3A19463   8.968  14.268   6.622  0.1468  0.0724 -0.3036
 1265DPPI   C4A19464   8.994  14.362   7.036 -0.0574 -0.1446 -0.2243
 1265DPPI   C1B19465   8.378  14.173   6.094  0.0952  0.1473  0.2353
 1265DPPI   C2B19466   8.509  14.098   6.465  0.1985  0.1097 -0.1172
 1265DPPI   C3B19467   8.513  14.015   6.912 -0.3721  0.0667 -0.1046
 1265DPPI   C4B19468   8.471  14.316   7.224 -0.3032  0.2539 -0.0572
 1266DPPI    C119469   5.041  17.138   4.966 -0.1809  0.0694  0.0178
 1266DPPI    C219470   4.887  17.309   4.638 -0.0978  0.0530 -0.0300
 1266DPPI    C319471   5.141  17.002   4.603 -0.1120  0.0318  0.0506
 1266DPPI   PO419472   4.802  17.079   5.156 -0.4258 -0.1323  0.1455
 1266DPPI   GL119473   4.709  17.315   5.624 -0.0155 -0.2126 -0.2010
 1266DPPI   GL219474   4.945  17.095   5.666  0.0892 -0.1764 -0.1880
 1266DPPI   C1A19475   4.666  17.409   6.124 -0.1442 -0.3152 -0.1085
 1266DPPI   C2A19476   4.752  17.471   6.517 -0.0178  0.0471 -0.0870
 1266DPPI   C3A19477   4.774  17.340   6.978  0.1522  0.1882  0.0262
 1266DPPI   C4A19478   5.041  17.489   7.435 -0.1140 -0.1892 -0.1727
 1266DPPI   C1B19479   5.190  17.196   6.211 -0.0934  0.1563 -0.1898
 1266DPPI   C2B19480   5.159  17.231   6.702 -0.0557 -0.0634 -0.1239
 1266DPPI   C3B19481   5.203  17.556   6.967  0.0088  0.0523 -0.0798
 1266DPPI   C4B19482   5.182  17.908   7.229  0.3072 -0.1324 -0.0765
 1267PYPI    C119483  15.114   5.540   4.974  0.2501  0.2087  0.3673
 1267PYPI    C219484  15.273   5.860   4.795  0.2699 -0.0614 -0.1142
 1267PYPI    C319485  15.483   5.661   5.071  0.3575  0.1860  0.0007
 1267PYPI   PO419486  14.805   5.661   5.103 -0.1758 -0.0371 -0.2457
 1267PYPI   GL119487  14.568   6.073   5.231 -0.2896 -0.1402 -0.2408
 1267PYPI   GL219488  14.657   6.396   5.406 -0.0378  0.0013  0.0050
 1267PYPI   C1A19489  14.395   6.071   5.708  0.0353  0.0304 -0.1686
 1267PYPI   C2A19490  14.384   6.020   6.136  0.0256 -0.0256  0.0021
 1267PYPI   D3A19491  14.375   6.307   6.385 -0.0365  0.0651  0.2855
 1267PYPI   C4A19492  14.338   6.250   6.784 -0.2698 -0.2562 -0.1423
 1267PYPI   C1B19493  14.621   6.431   5.879  0.0702  0.0428 -0.1911
 1267PYPI   C2B19494  14.717   6.617   6.351 -0.2310  0.0456  0.2426
 1267PYPI   C3B19495  14.681   6.729   6.840  0.1462  0.4824 -0.0673
 1267PYPI   C4B19496  14.379   6.663   7.176  0.1104 -0.1528  0.0852
 1268PYPI    C119497   8.807   0.088   5.018  0.0040  0.1506  0.0076
 1268PYPI    C219498   8.912   0.276   4.682 -0.0968  0.2689  0.0417
 1268PYPI    C319499   8.954  -0.120   4.710 -0.1953  0.2432 -0.1527
 1268PYPI   PO419500   8.926   0.202   5.182  0.0625 -0.1784 -0.0847
 1268PYPI   GL119501   8.909   0.380   5.519  0.2435 -0.0844 -0.1133
 1268PYPI   GL219502   8.628   0.546   5.704 -0.1860  0.2364  0.0852
 1268PYPI   C1A19503   9.161   0.454   5.780 -0.1787  0.2681  0.2482
 1268PYPI   C2A19504   9.410   0.438   6.109  0.0499 -0.0979 -0.4357
 1268PYPI   D3A19505   9.483   0.606   6.546  0.4104 -0.0640  0.0339
 1268PYPI   C4A19506   9.898   0.490   6.805 -0.0927  0.1102  0.0983
 1268PYPI   C1B19507   8.471   0.487   6.059  0.1705 -0.0097 -0.1633
 1268PYPI   C2B19508   8.557   0.472   6.571 -0.0904  0.2067  0.0677
 1268PYPI   C3B19509   8.343   0.815   6.920 -0.4588 -0.0624  0.0848
 1268PYPI   C4B19510   8.415   1.249   7.115  0.0909  0.1887  0.1718
 1269PYPI    C119511  14.463   2.694   5.112 -0.2267  0.0498  0.1242
 1269PYPI    C219512  14.296   2.714   4.749 -0.0260 -0.1203  0.0200
 1269PYPI    C319513  14.601   2.465   4.815  0.0970  0.0851  0.2437
 1269PYPI   PO419514  14.294   2.742   5.310  0.1586  0.0389 -0.1275
 1269PYPI   GL119515  14.094   3.003   5.675 -0.1670 -0.2874 -0.2498
 1269PYPI   GL219516  13.996   3.196   5.383 -0.0861  0.0811  0.5215
 1269PYPI   C1A19517  14.048   3.156   6.034  0.2645 -0.1918  0.0713
 1269PYPI   C2A19518  13.971   2.951   6.503 -0.1053  0.0607  0.1489
 1269PYPI   D3A19519  13.659   2.897   6.899 -0.4440  0.0514 -0.0163
 1269PYPI   C4A19520  13.728   2.755   7.205  0.1735 -0.1425  0.0767
 1269PYPI   C1B19521  14.018   3.506   5.656 -0.0908 -0.1178 -0.0616
 1269PYPI   C2B19522  14.194   3.686   6.084  0.0967  0.2262 -0.0662
 1269PYPI   C3B19523  14.255   3.428   6.416  0.0521 -0.0020  0.1376
 1269PYPI   C4B19524  14.363   3.439   6.702 -0.1631 -0.0182 -0.0968
 1270PYPI    C119525  16.413   6.342   4.717  0.1383  0.1578 -0.0374
 1270PYPI    C219526  16.452   6.427   4.328  0.0641  0.0649 -0.0655
 1270PYPI    C319527  16.132   6.224   4.458  0.1437 -0.0013  0.0282
 1270PYPI   PO419528  16.494   6.532   4.989 -0.1636 -0.1892 -0.0543
 1270PYPI   GL119529  16.656   6.547   5.286 -0.1400  0.0470  0.1522
 1270PYPI   GL219530  16.793   6.793   5.447 -0.1552  0.1555 -0.0661
 1270PYPI   C1A19531  16.480   6.307   5.760 -0.1213  0.0888 -0.0887
 1270PYPI   C2A19532  16.361   6.152   6.147  0.2509 -0.1827 -0.0122
 1270PYPI   D3A19533  16.246   6.188   6.588 -0.0089 -0.2480 -0.2042
 1270PYPI   C4A19534  16.314   6.188   7.037  0.0112 -0.0546 -0.0652
 1270PYPI   C1B19535  17.069   7.038   5.767 -0.1970  0.1182  0.0827
 1270PYPI   C2B19536  17.033   7.052   6.204  0.1562 -0.0849  0.2877
 1270PYPI   C3B19537  16.913   7.203   6.601  0.0080  0.2242 -0.1194
 1270PYPI   C4B19538  16.477   7.484   6.530 -0.3075  0.2932 -0.1770
 1271PYPI    C119539   7.511  16.465   5.340 -0.0292 -0.0971  0.1469
 1271PYPI    C219540   7.347  16.134   5.185 -0.1875  0.0935 -0.1015
 1271PYPI    C319541   7.156  16.337   5.471 -0.0387 -0.0877  0.1303
 1271PYPI   PO419542   7.794  16.367   5.432  0.4211 -0.3730 -0.0273
 1271PYPI   GL119543   7.985  16.252   5.887 -0.1225 -0.1687 -0.0098
 1271PYPI   GL219544   7.962  15.934   5.795  0.2062 -0.2098 -0.2077
 1271PYPI   C1A19545   7.999  16.283   6.264 -0.2070  0.1067 -0.1829
 1271PYPI   C2A19546   8.208  16.428   6.665 -0.0840  0.0977  0.2327
 1271PYPI   D3A19547   8.135  16.411   7.048 -0.1124 -0.0111  0.0221
 1271PYPI   C4A19548   8.355  16.237   7.374  0.1633  0.3180 -0.0949
 1271PYPI   C1B19549   7.717  15.899   6.170 -0.2427 -0.0035 -0.2330
 1271PYPI   C2B19550   7.911  15.929   6.626 -0.0204  0.3692  0.0941
 1271PYPI   C3B19551   7.761  16.057   7.080 -0.2660 -0.0253  0.1174
 1271PYPI   C4B19552   7.558  16.151   7.517 -0.1177 -0.0422 -0.0458
 1272PYPI    C119553   1.797  18.575   4.690  0.2954 -0.0324  0.0402
 1272PYPI    C219554   1.896  18.430   4.331  0.2692  0.0673 -0.0080
 1272PYPI    C319555   1.747  18.799   4.362  0.0683 -0.0199  0.0816
 1272PYPI   PO419556   1.948  18.564   4.838  0.2519 -0.1149  0.0674
 1272PYPI   GL119557   2.206  18.878   5.173  0.0754 -0.0959 -0.1014
 1272PYPI   GL219558   2.113  18.657   5.462 -0.0557  0.4064 -0.1099
 1272PYPI   C1A19559   2.248  19.202   5.499 -0.1490 -0.0215 -0.1228
 1272PYPI   C2A19560   2.246  19.360   5.946  0.2442  0.3591  0.4047
 1272PYPI   D3A19561   2.323  19.407   6.366  0.3200  0.0301  0.1067
 1272PYPI   C4A19562   2.130  19.242   6.710 -0.1834 -0.2851 -0.0666
 1272PYPI   C1B19563   2.158  18.853   5.865 -0.3916  0.1024 -0.1726
 1272PYPI   C2B19564   2.163  18.905   6.251  0.1352 -0.0431 -0.0602
 1272PYPI   C3B19565   2.160  18.706   6.741 -0.1560  0.1849  0.1019
 1272PYPI   C4B19566   1.950  18.555   7.125 -0.0988 -0.2180  0.1861
 1273PYPI    C119567   7.407  17.591   4.841  0.0675 -0.1422 -0.1128
 1273PYPI    C219568   7.802  17.593   4.780  0.0508 -0.0501 -0.2217
 1273PYPI    C319569   7.569  17.854   4.586  0.0014  0.2890  0.2763
 1273PYPI   PO419570   7.450  17.529   5.126 -0.3288 -0.0766 -0.0554
 1273PYPI   GL119571   7.220  17.605   5.511 -0.0875 -0.0378  0.1052
 1273PYPI   GL219572   6.850  17.535   5.522  0.2309  0.0688  0.1398
 1273PYPI   C1A19573   7.153  17.650   5.861 -0.2506 -0.1394  0.4459
 1273PYPI   C2A19574   7.146  17.386   6.226  0.0072  0.0738  0.1500
 1273PYPI   D3A19575   7.363  16.979   6.370  0.0451  0.0003 -0.0418
 1273PYPI   C4A19576   7.345  16.765   6.751  0.5035  0.1232 -0.1542
 1273PYPI   C1B19577   7.078  17.136   5.791  0.0938 -0.1716 -0.0377
 1273PYPI   C2B19578   6.946  16.882   6.101  0.0963 -0.0334  0.3156
 1273PYPI   C3B19579   6.841  16.899   6.496 -0.1660  0.2495 -0.4095
 1273PYPI   C4B19580   6.928  16.742   6.911  0.0528 -0.1782 -0.1243
 1274PYPI    C119581  18.650   3.669   4.370 -0.1926 -0.0635 -0.0211
 1274PYPI    C219582  18.623   3.287   4.256 -0.0607 -0.0620 -0.0593
 1274PYPI    C319583  18.428   3.570   4.053 -0.1013 -0.1002 -0.0737
 1274PYPI   PO419584  18.621   3.613   4.667  0.1439  0.1898  0.1953
 1274PYPI   GL119585  18.337   3.367   5.002  0.0029  0.0829 -0.0342
 1274PYPI   GL219586  18.669   3.469   5.137 -0.1221  0.0439 -0.2381
 1274PYPI   C1A19587  18.203   3.459   5.439  0.2125 -0.0696 -0.1834
 1274PYPI   C2A19588  18.150   3.725   5.765 -0.1352 -0.2687 -0.0841
 1274PYPI   D3A19589  17.923   4.018   6.007  0.1042  0.0400 -0.2423
 1274PYPI   C4A19590  17.962   4.518   5.953  0.1313 -0.2276 -0.2694
 1274PYPI   C1B19591  18.623   3.207   5.613 -0.0235 -0.1373 -0.1454
 1274PYPI   C2B19592  18.516   3.148   5.999 -0.1462 -0.1051 -0.1468
 1274PYPI   C3B19593  18.427   3.276   6.372 -0.4233  0.0331 -0.2008
 1274PYPI   C4B19594  18.195   3.329   6.702  0.0342  0.2031 -0.1111
 1275PYPI    C119595  13.338   2.863   4.956 -0.1672 -0.1345 -0.1550
 1275PYPI    C219596  13.460   3.233   5.045 -0.0137 -0.2192 -0.0060
 1275PYPI    C319597  13.508   3.090   4.675 -0.1199 -0.0733 -0.0775
 1275PYPI   PO419598  13.416   2.728   5.122 -0.2064 -0.0346  0.1148
 1275PYPI   GL119599  13.660   2.849   5.459 -0.0441 -0.2749 -0.0950
 1275PYPI   GL219600  13.354   2.837   5.544  0.3932 -0.1492 -0.2046
 1275PYPI   C1A19601  13.691   2.821   5.875 -0.1787  0.0431  0.0984
 1275PYPI   C2A19602  13.493   2.935   6.216 -0.2357 -0.2666  0.2587
 1275PYPI   D3A19603  13.224   2.700   6.536 -0.0429  0.0073 -0.2014
 1275PYPI   C4A19604  12.801   2.567   6.702  0.5136  0.0681  0.2251
 1275PYPI   C1B19605  13.223   2.673   5.874  0.0820 -0.1157 -0.1505
 1275PYPI   C2B19606  13.041   2.273   6.167 -0.1718  0.0884 -0.1183
 1275PYPI   C3B19607  13.283   2.060   6.515 -0.3169  0.2381 -0.1977
 1275PYPI   C4B19608  13.447   1.938   6.879  0.0785  0.1568 -0.0921
 1276PYPI    C119609   9.326   8.557   4.623  0.0237  0.0300  0.1774
 1276PYPI    C219610   9.135   8.886   4.747  0.1801  0.1088  0.2120
 1276PYPI    C319611   9.400   8.909   4.447  0.2097  0.0189  0.2308
 1276PYPI   PO419612   9.503   8.480   4.849 -0.1136 -0.0085 -0.1007
 1276PYPI   GL119613   9.681   8.535   5.260 -0.0567  0.0115  0.3028
 1276PYPI   GL219614   9.433   8.338   5.342 -0.0379 -0.2281  0.1822
 1276PYPI   C1A19615   9.708   8.783   5.579 -0.0973  0.1628 -0.1255
 1276PYPI   C2A19616  10.087   9.012   5.728  0.1253  0.0516  0.1709
 1276PYPI   D3A19617  10.608   9.135   5.747  0.0328  0.1222 -0.0758
 1276PYPI   C4A19618  11.018   8.931   5.620 -0.0410  0.1035 -0.0519
 1276PYPI   C1B19619   9.125   8.424   5.628 -0.1944 -0.0466  0.0989
 1276PYPI   C2B19620   8.836   8.580   5.899  0.4359 -0.0118 -0.3009
 1276PYPI   C3B19621   9.118   8.547   6.196  0.1769 -0.2185  0.2442
 1276PYPI   C4B19622   9.487   8.671   6.369  0.2035  0.2827  0.0975
 1277PYPI    C119623  13.349  10.054   4.475 -0.0573 -0.1923  0.2564
 1277PYPI    C219624  13.407   9.848   4.137 -0.4203 -0.0173  0.0810
 1277PYPI    C319625  13.660  10.140   4.239 -0.2193 -0.1766  0.0452
 1277PYPI   PO419626  13.364   9.841   4.699 -0.0605 -0.2442 -0.2968
 1277PYPI   GL119627  13.652   9.782   4.947  0.4005 -0.0965 -0.2992
 1277PYPI   GL219628  14.002   9.780   4.896 -0.1153 -0.0152  0.0853
 1277PYPI   C1A19629  13.687   9.886   5.330  0.1799 -0.0569  0.2624
 1277PYPI   C2A19630  13.744   9.738   5.724  0.1444  0.0610 -0.1753
 1277PYPI   D3A19631  13.930   9.651   6.087 -0.2143  0.2285  0.3508
 1277PYPI   C4A19632  13.920   9.836   6.478 -0.1305 -0.0463  0.4143
 1277PYPI   C1B19633  14.190   9.818   5.331  0.0467 -0.1342 -0.1129
 1277PYPI   C2B19634  14.190   9.953   5.698  0.1963  0.0496  0.0186
 1277PYPI   C3B19635  14.299   9.992   6.125  0.3575 -0.0164  0.1430
 1277PYPI   C4B19636  14.304  10.145   6.530  0.0348  0.2138 -0.2717
 1278PYPI    C119637   1.486  11.564   4.998 -0.1402  0.0736  0.1858
 1278PYPI    C219638   1.282  11.321   4.754  0.1550  0.0989 -0.0936
 1278PYPI    C319639   1.322  11.708   4.662  0.0563  0.1630  0.1270
 1278PYPI   PO419640   1.545  11.344   5.294  0.1198  0.0085 -0.3220
 1278PYPI   GL119641   1.803  11.034   5.492 -0.1094  0.0148 -0.0873
 1278PYPI   GL219642   2.042  11.171   5.485  0.0286  0.3240 -0.0594
 1278PYPI   C1A19643   1.794  10.798   5.814 -0.0249 -0.1954 -0.1337
 1278PYPI   C2A19644   1.641  10.610   6.189 -0.2418  0.1933  0.0388
 1278PYPI   D3A19645   1.723  10.359   6.555 -0.2038 -0.2115 -0.0646
 1278PYPI   C4A19646   1.423  10.188   6.755 -0.0948 -0.0817  0.0070
 1278PYPI   C1B19647   1.925  11.205   6.064 -0.0768 -0.0877 -0.1580
 1278PYPI   C2B19648   2.233  11.266   6.375  0.1551  0.3020 -0.1443
 1278PYPI   C3B19649   2.072  11.210   6.789 -0.0641  0.0529 -0.0252
 1278PYPI   C4B19650   1.777  11.038   7.119  0.1487  0.1710  0.2156
 1279PYPI    C119651  15.519   5.258   4.760  0.2028  0.0910 -0.0218
 1279PYPI    C219652  15.160   5.188   4.599  0.1213 -0.0374  0.2114
 1279PYPI    C319653  15.424   5.419   4.407 -0.0328 -0.0574 -0.0279
 1279PYPI   PO419654  15.419   5.177   5.185  0.1182 -0.1506  0.3970
 1279PYPI   GL119655  15.123   4.998   5.546  0.0338  0.1322 -0.0874
 1279PYPI   GL219656  15.385   5.253   5.645 -0.1021  0.1962 -0.2395
 1279PYPI   C1A19657  14.906   4.919   5.999 -0.0856  0.0590  0.2158
 1279PYPI   C2A19658  14.830   4.715   6.334  0.1390  0.0565 -0.2831
 1279PYPI   D3A19659  14.703   4.410   6.719 -0.3447 -0.3345  0.2708
 1279PYPI   C4A19660  14.683   4.680   7.120 -0.0294 -0.0790  0.0243
 1279PYPI   C1B19661  15.415   5.186   6.093  0.3896 -0.2255  0.2920
 1279PYPI   C2B19662  15.231   5.027   6.413  0.1237 -0.0177  0.0112
 1279PYPI   C3B19663  15.211   4.711   6.796  0.2526 -0.0611  0.0091
 1279PYPI   C4B19664  15.158   4.338   7.000  0.2628 -0.0762 -0.0363
 1280ERGO   ROH19665  18.102  13.810   5.655  0.0867  0.2245  0.2133
 1280ERGO    R119666  18.002  13.793   5.919  0.0342  0.1557  0.1894
 1280ERGO    R219667  18.030  13.566   6.074  0.0606  0.1376  0.1592
 1280ERGO    R319668  18.141  13.740   6.251 -0.0231  0.1389  0.2107
 1280ERGO    R419669  18.017  13.533   6.418  0.1290 -0.0039  0.1486
 1280ERGO    R519670  17.985  13.748   6.432 -0.0033 -0.0289  0.2364
 1280ERGO    C119671  18.114  13.676   6.784  0.0902 -0.0851  0.1908
 1280ERGO    C219672  17.894  13.678   7.066 -0.1118 -0.0578 -0.6306
 1281ERGO   ROH19673   7.273  10.268   5.259 -0.0145  0.0520 -0.2134
 1281ERGO    R119674   7.467  10.201   5.454 -0.0320  0.0075 -0.2102
 1281ERGO    R219675   7.725  10.300   5.447 -0.0376  0.0367 -0.1450
 1281ERGO    R319676   7.667  10.380   5.700 -0.0820 -0.0512 -0.1279
 1281ERGO    R419677   7.919  10.515   5.635 -0.0904 -0.0062 -0.0421
 1281ERGO    R519678   7.880  10.390   5.809 -0.1032 -0.0644 -0.0913
 1281ERGO    C119679   7.977  10.716   5.982 -0.1628 -0.1136  0.0339
 1281ERGO    C219680   8.251  10.965   6.110 -0.0036  0.0021 -0.1953
 1282ERGO   ROH19681   2.446   0.985   5.265  0.2829 -0.6298 -0.1020
 1282ERGO    R119682   2.560   0.938   5.520  0.1701 -0.4013 -0.0070
 1282ERGO    R219683   2.773   1.086   5.617  0.0674 -0.2537 -0.0056
 1282ERGO    R319684   2.606   1.127   5.827 -0.0547 -0.1567 -0.1194
 1282ERGO    R419685   2.871   1.197   5.929 -0.1236 -0.0352 -0.0203
 1282ERGO    R519686   2.731   1.056   6.018 -0.1404 -0.0097 -0.0059
 1282ERGO    C119687   2.772   1.301   6.308 -0.3494  0.1831 -0.1356
 1282ERGO    C219688   2.885   1.452   6.591 -0.0568 -0.1941  0.1930
 1283ERGO   ROH19689   8.272  13.585   5.323 -0.0188  0.1664 -0.2103
 1283ERGO    R119690   8.400  13.502   5.562  0.0206  0.0848 -0.2589
 1283ERGO    R219691   8.637  13.616   5.651 -0.0188  0.1291 -0.2039
 1283ERGO    R319692   8.494  13.657   5.878 -0.0305 -0.0507 -0.1779
 1283ERGO    R419693   8.763  13.595   5.972 -0.0076  0.0166 -0.2153
 1283ERGO    R519694   8.580  13.496   6.033  0.0384 -0.0928 -0.2622
 1283ERGO    C119695   8.702  13.621   6.372 -0.0121 -0.2177 -0.1975
 1283ERGO    C219696   8.841  13.789   6.611 -0.1013 -0.2159  0.0251
 1284ERGO   ROH19697  14.058   6.826   5.258 -0.1773  0.0997  0.1402
 1284ERGO    R119698  14.013   6.786   5.535 -0.0726  0.2712  0.1833
 1284ERGO    R219699  14.155   6.602   5.684 -0.2907  0.0751  0.1532
 1284ERGO    R319700  14.207   6.817   5.841  0.1791  0.0467  0.0510
 1284ERGO    R419701  14.143   6.601   6.029 -0.0944  0.2177  0.1620
 1284ERGO    R519702  14.050   6.798   6.021  0.2435  0.3839  0.1497
 1284ERGO    C119703  14.184   6.803   6.378  0.4608  0.2740  0.0711
 1284ERGO    C219704  14.188   6.692   6.669  0.0579  0.0986 -0.1498
 1285ERGO   ROH19705  18.493  15.567   5.696 -0.0728  0.1605 -0.0636
 1285ERGO    R119706  18.412  15.804   5.829 -0.1995  0.0857 -0.0047
 1285ERGO    R219707  18.183  15.818   5.983 -0.1046 -0.1300  0.1612
 1285ERGO    R319708  18.355  15.908   6.173 -0.0498  0.0290  0.0381
 1285ERGO    R419709  18.090  15.955   6.286 -0.0173 -0.2992  0.2658
 1285ERGO    R519710  18.249  16.102   6.263 -0.2016 -0.1098  0.1635
 1285ERGO    C119711  18.198  16.120   6.641  0.0850 -0.2482  0.2110
 1285ERGO    C219712  18.242  15.927   6.856  0.1395 -0.2316 -0.2707
 1286ERGO   ROH19713   3.624   9.503   5.736  0.0305 -0.1666 -0.0073
 1286ERGO    R119714   3.873   9.532   5.868 -0.0487  0.0403  0.1031
 1286ERGO    R219715   3.894   9.613   6.132 -0.2396 -0.0873  0.1636
 1286ERGO    R319716   4.039   9.384   6.156  0.0077  0.0573  0.0781
 1286ERGO    R419717   4.080   9.524   6.410 -0.3490 -0.1134  0.2282
 1286ERGO    R519718   4.235   9.449   6.276 -0.1595  0.1794  0.2839
 1286ERGO    C119719   4.324   9.257   6.594 -0.1807  0.0072  0.1855
 1286ERGO    C219720   4.410   9.292   6.896  0.2485 -0.2545 -0.0050
 1287ERGO   ROH19721   4.976   5.062   5.640  0.2998  0.1017 -0.1692
 1287ERGO    R119722   5.062   5.004   5.904  0.3193  0.1375 -0.1675
 1287ERGO    R219723   5.249   5.158   6.036  0.2009  0.2580 -0.1377
 1287ERGO    R319724   5.056   5.172   6.226  0.1745  0.1041 -0.1523
 1287ERGO    R419725   5.308   5.185   6.376  0.1543  0.1747 -0.1231
 1287ERGO    R519726   5.144   5.045   6.410  0.2162  0.0852 -0.1851
 1287ERGO    C119727   5.160   5.213   6.752  0.1024 -0.0184 -0.1283
 1287ERGO    C219728   5.091   5.252   7.010 -0.1441  0.1847 -0.1597
 1288ERGO   ROH19729  17.402  17.037   5.523  0.0991  0.1800 -0.1216
 1288ERGO    R119730  17.450  16.904   5.768  0.2240  0.1087 -0.1829
 1288ERGO    R219731  17.685  16.931   5.908  0.2265  0.2158 -0.1992
 1288ERGO    R319732  17.519  16.999   6.112  0.1997  0.0148 -0.1530
 1288ERGO    R419733  17.772  16.928   6.243  0.2770  0.2002 -0.2130
 1288ERGO    R519734  17.575  16.846   6.288  0.3578  0.0175 -0.2038
 1288ERGO    C119735  17.667  16.990   6.629  0.2812  0.0024 -0.1776
 1288ERGO    C219736  17.645  17.124   6.934  0.4439 -0.2977  0.0579
 1289ERGO   ROH19737   3.125  13.256   5.430  0.1979  0.1652  0.0196
 1289ERGO    R119738   3.193  13.068   5.630  0.0374  0.0474 -0.0332
 1289ERGO    R219739   3.396  13.112   5.812  0.1030 -0.1931 -0.0386
 1289ERGO    R319740   3.201  13.060   5.994  0.0660 -0.0466 -0.0369
 1289ERGO    R419741   3.450  12.987   6.130  0.0020 -0.2727 -0.0529
 1289ERGO    R519742   3.274  12.861   6.105 -0.1035 -0.1186 -0.0589
 1289ERGO    C119743   3.298  12.866   6.486 -0.0915 -0.1816 -0.0596
 1289ERGO    C219744   3.556  13.039   6.919  0.1330  0.2181 -0.1043
 1290ERGO   ROH19745  15.965  18.695   5.795 -0.0769 -0.0177 -0.0315
 1290ERGO    R119746  15.963  18.924   5.962 -0.0082  0.0155 -0.0755
 1290ERGO    R219747  15.733  19.070   6.011  0.0297  0.0780 -0.0811
 1290ERGO    R319748  15.799  19.024   6.271  0.0446  0.1129 -0.0789
 1290ERGO    R419749  15.661  19.282   6.274  0.0325  0.1063 -0.1030
 1290ERGO    R519750  15.858  19.240   6.357  0.0382  0.1259 -0.1077
 1290ERGO    C119751  15.680  19.362   6.671  0.0481  0.1552 -0.1137
 1290ERGO    C219752  15.798  19.532   6.955 -0.0620  0.0467 -0.0118
 1291ERGO   ROH19753  15.476  11.688   5.682 -0.1694 -0.0432  0.1030
 1291ERGO    R119754  15.557  11.734   5.949 -0.0246 -0.1353  0.0759
 1291ERGO    R219755  15.378  11.739   6.161  0.0666 -0.0373  0.1510
 1291ERGO    R319756  15.546  11.552   6.264 -0.0211 -0.1697  0.0564
 1291ERGO    R419757  15.350  11.600   6.476  0.1338 -0.0128  0.1682
 1291ERGO    R519758  15.566  11.610   6.495  0.1555 -0.1830  0.0460
 1291ERGO    C119759  15.490  11.343   6.756  0.0906 -0.1228  0.0894
 1291ERGO    C219760  15.633  11.186   6.998 -0.3052 -0.0274  0.3227
 1292ERGO   ROH19761  12.461  15.363   5.487 -0.0194 -0.2186  0.0013
 1292ERGO    R119762  12.301  15.336   5.719 -0.0744 -0.1223 -0.0241
 1292ERGO    R219763  12.301  15.522   5.923 -0.0120 -0.1092 -0.0314
 1292ERGO    R319764  12.033  15.523   5.879 -0.0031  0.0290 -0.0821
 1292ERGO    R419765  12.064  15.615   6.156 -0.0338 -0.4298  0.0782
 1292ERGO    R519766  11.939  15.450   6.087 -0.0614 -0.2882 -0.2164
 1292ERGO    C119767  11.673  15.670   6.250 -0.0381 -0.4868  0.0945
 1292ERGO    C219768  11.425  15.912   6.426 -0.4059 -0.4397  0.0420
 1293ERGO   ROH19769   8.029   9.376   5.195  0.0806  0.1493  0.1637
 1293ERGO    R119770   8.116   9.131   5.306 -0.0984  0.0450  0.0767
 1293ERGO    R219771   8.371   9.094   5.406 -0.0178 -0.2714 -0.2227
 1293ERGO    R319772   8.237   9.014   5.629  0.1403 -0.0820 -0.0559
 1293ERGO    R419773   8.520   8.983   5.698  0.1864 -0.3182 -0.3432
 1293ERGO    R519774   8.365   8.830   5.713  0.0615 -0.1735 -0.1359
 1293ERGO    C119775   8.481   8.844   6.076  0.4539 -0.1678 -0.2568
 1293ERGO    C219776   8.637   8.769   6.343  0.1762  0.1958 -0.0300
 1294ERGO   ROH19777   4.206  18.826   5.288 -0.0387  0.1151 -0.0389
 1294ERGO    R119778   4.123  19.002   5.493 -0.0058  0.0801  0.0041
 1294ERGO    R219779   3.857  19.048   5.551  0.0050  0.0424  0.0781
 1294ERGO    R319780   3.932  18.977   5.802  0.0766  0.0215  0.0513
 1294ERGO    R419781   3.691  19.140   5.840  0.0791  0.0126  0.1305
 1294ERGO    R519782   3.885  19.170   5.936  0.1062  0.0102  0.0810
 1294ERGO    C119783   3.665  19.126   6.244  0.1893 -0.0242  0.1359
 1294ERGO    C219784   3.521  19.243   6.430 -0.2891 -0.1576  0.2051
 1295ERGO   ROH19785   4.659   6.339   7.446 -0.2200 -0.0508  0.1098
 1295ERGO    R119786   4.767   6.511   7.248 -0.2574  0.0427  0.1696
 1295ERGO    R219787   4.914   6.417   7.034  0.0687  0.1781  0.3256
 1295ERGO    R319788   4.731   6.556   6.889  0.0168 -0.0953  0.1229
 1295ERGO    R419789   4.959   6.520   6.707  0.3039  0.3001  0.3939
 1295ERGO    R519790   4.862   6.709   6.759 -0.0676  0.1388  0.3087
 1295ERGO    C119791   4.812   6.710   6.380  0.3921  0.1144  0.2434
 1295ERGO    C219792   5.051   6.686   6.075  0.1754 -0.0680  0.2133
 1296ERGO   ROH19793  14.307  17.157   5.856  0.0085  0.0766  0.1264
 1296ERGO    R119794  14.317  17.224   6.131  0.0549 -0.0320  0.1513
 1296ERGO    R219795  14.140  17.119   6.316  0.0999 -0.1200  0.1422
 1296ERGO    R319796  14.368  17.046   6.444  0.1294 -0.1520  0.0727
 1296ERGO    R419797  14.165  17.061   6.655  0.1614 -0.2503  0.1163
 1296ERGO    R519798  14.358  17.162   6.654  0.1547 -0.2326  0.1211
 1296ERGO    C119799  14.393  16.959   6.974  0.2250 -0.3565  0.0358
 1296ERGO    C219800  14.393  16.949   7.327  0.2263 -0.1161 -0.1919
 1297ERGO   ROH19801  11.680   9.431   5.132  0.0925 -0.1399  0.0348
 1297ERGO    R119802  11.876   9.352   5.321  0.0387 -0.1506  0.0857
 1297ERGO    R219803  11.830   9.355   5.593 -0.0009 -0.0605  0.0739
 1297ERGO    R319804  11.908   9.095   5.577 -0.0784 -0.0906  0.1633
 1297ERGO    R419805  11.933   9.162   5.861  0.1893  0.0874  0.1099
 1297ERGO    R519806  12.088   9.077   5.734  0.0604 -0.0300  0.0197
 1297ERGO    C119807  12.066   8.806   6.001  0.2273  0.1452  0.2148
 1297ERGO    C219808  12.133   8.638   6.357  0.0895  0.1913  0.0599
 1298ERGO   ROH19809   9.105   1.808   5.107  0.0376  0.0357 -0.0141
 1298ERGO    R119810   9.057   1.745   5.379 -0.1568  0.0210 -0.0493
 1298ERGO    R219811   9.231   1.818   5.581 -0.1264 -0.2824  0.0424
 1298ERGO    R319812   9.008   1.930   5.688 -0.0138  0.0038 -0.0167
 1298ERGO    R419813   9.192   1.899   5.915 -0.0941 -0.1746  0.0199
 1298ERGO    R519814   8.987   1.826   5.903 -0.1786  0.0685 -0.0026
 1298ERGO    C119815   8.960   2.051   6.210  0.0304  0.1569 -0.0486
 1298ERGO    C219816   9.131   2.212   6.548  0.0739 -0.1319  0.0489
 1299ERGO   ROH19817   7.094   4.562   5.657  0.1787 -0.0761  0.1744
 1299ERGO    R119818   7.251   4.483   5.879  0.1216  0.0377  0.2576
 1299ERGO    R219819   7.354   4.665   6.060 -0.0623  0.1208  0.2874
 1299ERGO    R319820   7.228   4.507   6.241 -0.0626  0.0699  0.2440
 1299ERGO    R419821   7.449   4.628   6.390 -0.1446  0.1256  0.3112
 1299ERGO    R519822   7.405   4.416   6.374 -0.0741  0.1151  0.2864
 1299ERGO    C119823   7.385   4.459   6.753 -0.1930  0.0806  0.2844
 1299ERGO    C219824   7.296   4.474   7.186 -0.3293  0.1241  0.0705
 1300ERGO   ROH19825   7.856  16.758   5.731  0.1247 -0.0164 -0.0460
 1300ERGO    R119826   7.856  16.857   5.996  0.0974 -0.1197 -0.0080
 1300ERGO    R219827   7.818  16.694   6.215  0.2185 -0.2249 -0.0705
 1300ERGO    R319828   8.052  16.805   6.298  0.1623 -0.1200 -0.0482
 1300ERGO    R419829   7.881  16.803   6.537  0.1055 -0.1363 -0.0774
 1300ERGO    R519830   7.984  16.976   6.452  0.0606 -0.1106 -0.0957
 1300ERGO    C119831   8.137  16.971   6.802 -0.0132  0.0140 -0.0604
 1300ERGO    C219832   8.154  16.886   7.104 -0.1908 -0.4054  0.1417
 1301ERGO   ROH19833   1.385   4.213   5.353  0.1542 -0.0568  0.1100
 1301ERGO    R119834   1.512   4.127   5.591  0.1342 -0.0779  0.1125
 1301ERGO    R219835   1.640   4.301   5.763  0.1396 -0.0970  0.1254
 1301ERGO    R319836   1.475   4.189   5.948  0.1216 -0.0908  0.1138
 1301ERGO    R419837   1.676   4.333   6.105 -0.0836  0.1939  0.1256
 1301ERGO    R519838   1.620   4.123   6.126  0.0747  0.1616  0.2513
 1301ERGO    C119839   1.541   4.247   6.478 -0.2304  0.3691  0.1148
 1301ERGO    C219840   1.588   4.437   6.874  0.0039  0.2130  0.0561
 1302ERGO   ROH19841   5.765   1.733   5.451  0.0554  0.1158  0.0325
 1302ERGO    R119842   5.673   1.864   5.684 -0.0118  0.0827  0.0252
 1302ERGO    R219843   5.602   1.727   5.914  0.0782  0.0597  0.0414
 1302ERGO    R319844   5.782   1.895   6.030 -0.0134  0.1759  0.0173
 1302ERGO    R419845   5.569   1.864   6.229  0.0216  0.0617  0.0345
 1302ERGO    R519846   5.647   2.052   6.151 -0.0975  0.1034  0.0170
 1302ERGO    C119847   5.718   2.100   6.523 -0.0974  0.1720  0.0078
 1302ERGO    C219848   5.754   2.264   6.771 -0.3796  0.2492  0.1173
 1303ERGO   ROH19849  10.971   9.464   5.691  0.2860  0.1088  0.0615
 1303ERGO    R119850  10.966   9.505   5.971  0.0012  0.0736  0.0641
 1303ERGO    R219851  10.731   9.524   6.114 -0.1441 -0.2727 -0.1243
 1303ERGO    R319852  10.844   9.326   6.263  0.0157 -0.1320 -0.0527
 1303ERGO    R419853  10.638   9.442   6.437 -0.1490 -0.2892 -0.1292
 1303ERGO    R519854  10.849   9.414   6.486 -0.1278 -0.0720 -0.0689
 1303ERGO    C119855  10.689   9.208   6.764 -0.0019 -0.1669 -0.0648
 1303ERGO    C219856  10.615   9.004   7.054 -0.4100  0.0073  0.2042
 1304ERGO   ROH19857   7.618   8.436   5.267 -0.1847 -0.1316 -0.0168
 1304ERGO    R119858   7.470   8.398   5.506 -0.0758 -0.1368  0.0499
 1304ERGO    R219859   7.582   8.289   5.734  0.1313  0.2042  0.1146
 1304ERGO    R319860   7.488   8.517   5.849 -0.1540  0.1752 -0.0496
 1304ERGO    R419861   7.523   8.330   6.072  0.1541  0.3887  0.0981
 1304ERGO    R519862   7.341   8.440   6.023 -0.0141  0.1065  0.0444
 1304ERGO    C119863   7.401   8.567   6.377 -0.1004  0.4687 -0.0657
 1304ERGO    C219864   7.183   8.597   6.668  0.0164 -0.2862  0.1691
 1305ERGO   ROH19865  17.391   8.750   5.518  0.0510 -0.1084  0.1166
 1305ERGO    R119866  17.227   8.527   5.575 -0.0740  0.0077  0.2102
 1305ERGO    R219867  17.323   8.268   5.578 -0.3083 -0.0817 -0.1063
 1305ERGO    R319868  17.215   8.265   5.827  0.0542 -0.1505  0.0565
 1305ERGO    R419869  17.194   7.988   5.733 -0.5859 -0.0300 -0.2358
 1305ERGO    R519870  17.032   8.112   5.811 -0.2596  0.1935  0.1444
 1305ERGO    C119871  17.018   7.821   6.058 -0.4075 -0.0648 -0.1584
 1305ERGO    C219872  16.826   7.526   6.181 -0.2577  0.1019  0.1853
 1306ERGO   ROH19873  17.299  14.066   5.400  0.1811  0.0842  0.0105
 1306ERGO    R119874  17.309  14.185   5.657  0.0166  0.0853  0.0173
 1306ERGO    R219875  17.086  14.207   5.819 -0.0400 -0.1246 -0.0301
 1306ERGO    R319876  17.246  14.080   5.999  0.0388  0.0147 -0.0000
 1306ERGO    R419877  17.009  14.159   6.153 -0.1098 -0.2825 -0.0677
 1306ERGO    R519878  17.216  14.204   6.202 -0.1744 -0.0591  0.0170
 1306ERGO    C119879  17.113  14.013   6.516 -0.0763 -0.2436 -0.0613
 1306ERGO    C219880  17.072  13.890   6.835  0.0249 -0.1708  0.2417
 1307ERGO   ROH19881   3.455  16.551   5.726 -0.0285  0.1090 -0.1026
 1307ERGO    R119882   3.491  16.678   5.976 -0.0162  0.0607 -0.0800
 1307ERGO    R219883   3.381  16.579   6.210  0.0030  0.0103 -0.0925
 1307ERGO    R319884   3.638  16.591   6.297  0.0085  0.0022 -0.1070
 1307ERGO    R419885   3.476  16.613   6.541  0.0254 -0.1616 -0.0803
 1307ERGO    R519886   3.633  16.750   6.477 -0.0021 -0.0997 -0.0161
 1307ERGO    C119887   3.773  16.643   6.815  0.0437 -0.2693 -0.0868
 1307ERGO    C219888   3.841  16.564   7.170 -0.1833 -0.1839  0.0110
 1308ERGO   ROH19889   0.528   4.708   5.322  0.3694  0.2913 -0.1577
 1308ERGO    R119890   0.516   4.639   5.596  0.0890  0.2846 -0.1695
 1308ERGO    R219891   0.736   4.653   5.762 -0.0120  0.0066 -0.0119
 1308ERGO    R319892   0.572   4.808   5.914  0.0652  0.1949 -0.1165
 1308ERGO    R419893   0.814   4.775   6.076 -0.0646 -0.0822  0.0368
 1308ERGO    R519894   0.609   4.732   6.138 -0.1580  0.1485 -0.0900
 1308ERGO    C119895   0.705   4.992   6.401 -0.0228  0.0430 -0.0331
 1308ERGO    C219896   0.681   5.004   6.815 -0.1164  0.0804 -0.1948
 1309ERGO   ROH19897  11.154  11.785   5.303  0.0005 -0.2281 -0.0531
 1309ERGO    R119898  11.146  11.589   5.507  0.0412 -0.1878 -0.0136
 1309ERGO    R219899  11.332  11.578   5.711  0.0062 -0.0697  0.0207
 1309ERGO    R319900  11.112  11.585   5.869 -0.0247 -0.1271 -0.0178
 1309ERGO    R419901  11.305  11.422   6.018 -0.0788 -0.2606 -0.0817
 1309ERGO    R519902  11.101  11.366   5.965 -0.0830 -0.1901 -0.1585
 1309ERGO    C119903  11.082  11.337   6.345 -0.1572 -0.4256 -0.1773
 1309ERGO    C219904  11.018  11.364   6.611 -0.0317 -0.0381 -0.2089
 1310ERGO   ROH19905  18.205  10.411   5.579  0.1343  0.0727 -0.1657
 1310ERGO    R119906  18.081  10.347   5.825  0.3557 -0.0371 -0.0788
 1310ERGO    R219907  18.206  10.384   6.069  0.3727  0.3952 -0.1421
 1310ERGO    R319908  17.982  10.527   6.125  0.0751 -0.0434 -0.1655
 1310ERGO    R419909  18.092  10.455   6.387  0.1273  0.0835 -0.1554
 1310ERGO    R519910  17.889  10.419   6.318  0.2139 -0.2818 -0.2304
 1310ERGO    C119911  17.815  10.631   6.626 -0.2950 -0.5096 -0.1851
 1310ERGO    C219912  17.758  10.737   6.920 -0.0366  0.0317  0.1674
 1311ERGO   ROH19913  13.168  16.635   5.677 -0.0028 -0.1423 -0.0507
 1311ERGO    R119914  13.193  16.612   5.958  0.1224  0.0361 -0.0458
 1311ERGO    R219915  13.294  16.815   6.116 -0.0682  0.2440 -0.1895
 1311ERGO    R319916  13.060  16.783   6.250  0.0144  0.0314 -0.0907
 1311ERGO    R419917  13.242  16.901   6.447  0.0374  0.0632 -0.1239
 1311ERGO    R519918  13.126  16.719   6.471  0.1657 -0.0267 -0.1490
 1311ERGO    C119919  12.992  16.921   6.765  0.1765 -0.2417  0.0071
 1311ERGO    C219920  12.875  16.936   7.005 -0.0712 -0.0228  0.0993
 1312ERGO   ROH19921  11.692  16.497   5.650  0.0225  0.1172  0.0075
 1312ERGO    R119922  11.831  16.529   5.895  0.0002 -0.0887  0.0482
 1312ERGO    R219923  11.884  16.778   6.004  0.1971 -0.1752  0.1403
 1312ERGO    R319924  11.760  16.672   6.222  0.0609 -0.1360  0.0843
 1312ERGO    R419925  11.897  16.911   6.323  0.0499 -0.1360  0.1312
 1312ERGO    R519926  11.914  16.708   6.402 -0.0228 -0.1374  0.1639
 1312ERGO    C119927  11.788  16.889   6.713 -0.1636 -0.0759  0.0734
 1312ERGO    C219928  11.917  17.148   6.889  0.3430 -0.2954 -0.1168
 1313ERGO   ROH19929  18.529  18.187   5.892  0.1228  0.0356 -0.0734
 1313ERGO    R119930  18.370  18.092   6.106  0.1518 -0.0107 -0.0718
 1313ERGO    R219931  18.476  18.022   6.351  0.1563  0.1701 -0.0212
 1313ERGO    R319932  18.293  18.199   6.445 -0.0088  0.0591 -0.1287
 1313ERGO    R419933  18.398  18.067   6.685 -0.0230  0.1600 -0.0608
 1313ERGO    R519934  18.189  18.085   6.628 -0.0134  0.0097 -0.1599
 1313ERGO    C119935  18.181  18.260   6.968 -0.2821  0.0498 -0.1847
 1313ERGO    C219936  18.022  18.244   7.316  0.1238  0.0041  0.0596
 1314ERGO   ROH19937   5.547  13.023   5.378  0.3461  0.1682  0.0038
 1314ERGO    R119938   5.639  13.081   5.639 -0.0005  0.0754  0.1527
 1314ERGO    R219939   5.520  12.977   5.865 -0.0792 -0.3064 -0.0540
 1314ERGO    R319940   5.773  12.894   5.920 -0.0038  0.0190  0.1159
 1314ERGO    R419941   5.624  12.851   6.170 -0.1943 -0.4380 -0.0682
 1314ERGO    R519942   5.810  12.963   6.147 -0.3323 -0.1353  0.2222
 1314ERGO    C119943   5.923  12.699   6.399 -0.1905 -0.2091  0.0830
 1314ERGO    C219944   6.055  12.411   6.584 -0.0530 -0.3300  0.0337
 1315ERGO   ROH19945  14.923  18.661   5.642  0.0132  0.0794  0.0482
 1315ERGO    R119946  14.981  18.635   5.918 -0.1745  0.0428  0.0872
 1315ERGO    R219947  14.860  18.445   6.078 -0.1120 -0.1430 -0.0675
 1315ERGO    R319948  15.117  18.377   6.136 -0.0838  0.1005  0.0953
 1315ERGO    R419949  14.960  18.275   6.362 -0.0987  0.0593  0.0488
 1315ERGO    R519950  15.133  18.406   6.373 -0.2232  0.2083  0.0864
 1315ERGO    C119951  15.259  18.113   6.582 -0.0644  0.4059  0.2693
 1315ERGO    C219952  15.354  17.948   6.934 -0.2205 -0.2919 -0.1465
 1316ERGO   ROH19953   3.349   4.523   5.644 -0.0262  0.2070 -0.0370
 1316ERGO    R119954   3.452   4.569   5.904  0.0335  0.2822 -0.0731
 1316ERGO    R219955   3.364   4.776   6.065 -0.0863  0.1994 -0.0278
 1316ERGO    R319956   3.321   4.575   6.243  0.1545  0.1489 -0.0231
 1316ERGO    R419957   3.417   4.800   6.406  0.0283  0.2176 -0.0467
 1316ERGO    R519958   3.498   4.598   6.402  0.1986  0.2872 -0.0922
 1316ERGO    C119959   3.406   4.626   6.772  0.3211  0.1809 -0.0533
 1316ERGO    C219960   3.430   4.629   7.083 -0.1685 -0.3391 -0.1735
 1317ERGO   ROH19961  15.845  14.304   5.497  0.0292  0.1043 -0.1077
 1317ERGO    R119962  15.813  14.253   5.774  0.0652 -0.1545 -0.1486
 1317ERGO    R219963  15.984  14.088   5.915  0.2517 -0.0691 -0.2644
 1317ERGO    R319964  16.007  14.306   6.077 -0.0202 -0.1632 -0.0929
 1317ERGO    R419965  16.115  14.084   6.235  0.5681 -0.1067 -0.3914
 1317ERGO    R519966  15.958  14.223   6.296  0.3479 -0.4613 -0.1152
 1317ERGO    C119967  16.213  14.285   6.573  0.4969 -0.2169 -0.3043
 1317ERGO    C219968  16.483  14.359   6.926 -0.0356 -0.4904 -0.2934
 1318ERGO   ROH19969   0.320  17.661   5.634  0.0798  0.0067 -0.0807
 1318ERGO    R119970   0.271  17.506   5.865 -0.0115  0.0614 -0.0633
 1318ERGO    R219971   0.043  17.533   6.017 -0.0986  0.0560 -0.1954
 1318ERGO    R319972   0.021  17.265   5.975 -0.0192  0.0378 -0.1303
 1318ERGO    R419973  -0.032  17.301   6.262 -0.2125  0.1170 -0.1710
 1318ERGO    R519974   0.115  17.167   6.172 -0.1260  0.1162 -0.0366
 1318ERGO    C119975  -0.097  16.914   6.364 -0.2043  0.1356 -0.0955
 1318ERGO    C219976  -0.358  16.856   6.656 -0.0275 -0.1316 -0.1632
 1319ERGO   ROH19977   4.220  17.465   5.565 -0.1581 -0.1048 -0.1293
 1319ERGO    R119978   4.087  17.499   5.812 -0.1253 -0.1150 -0.1104
 1319ERGO    R219979   4.124  17.328   6.026  0.0119 -0.0406 -0.0755
 1319ERGO    R319980   4.182  17.558   6.158 -0.0860  0.0245 -0.1441
 1319ERGO    R419981   4.194  17.349   6.364 -0.0215  0.0914 -0.0761
 1319ERGO    R519982   4.076  17.532   6.371 -0.0932  0.0504 -0.1435
 1319ERGO    C119983   4.289  17.577   6.685 -0.1329  0.2295 -0.1409
 1319ERGO    C219984   4.293  17.553   6.952 -0.2265  0.1822 -0.1250
 1320ERGO   ROH19985  16.056   9.333   5.218 -0.0200  0.1340 -0.0546
 1320ERGO    R119986  16.063   9.258   5.491 -0.0858 -0.0295 -0.0961
 1320ERGO    R219987  16.027   9.440   5.696  0.1514 -0.0960  0.0098
 1320ERGO    R319988  15.834   9.264   5.774 -0.0567  0.0904 -0.0749
 1320ERGO    R419989  15.896   9.420   6.015  0.1143 -0.0869 -0.0047
 1320ERGO    R519990  15.897   9.202   5.996 -0.1369 -0.0821 -0.0998
 1320ERGO    C119991  15.639   9.243   6.274 -0.1027  0.0934 -0.0928
 1320ERGO    C219992  15.537   9.220   6.545 -0.2356 -0.3119  0.1846
 1321ERGO   ROH19993   7.379  15.053   5.727  0.1965 -0.1021  0.1915
 1321ERGO    R119994   7.208  15.096   5.948  0.1698 -0.0312  0.1569
 1321ERGO    R219995   7.303  15.131   6.205  0.1438  0.1739  0.1368
 1321ERGO    R319996   7.154  15.358   6.194  0.0473  0.1059 -0.0123
 1321ERGO    R419997   7.194  15.308   6.481  0.0252  0.2756  0.0267
 1321ERGO    R519998   7.003  15.339   6.380  0.0252  0.1390 -0.0236
 1321ERGO    C119999   6.991  15.625   6.632 -0.1346  0.2708 -0.1774
 1321ERGO    C220000   7.083  15.808   6.967  0.2522  0.0690  0.2215
 1322ERGO   ROH20001  15.167  15.134   5.195  0.1258  0.0420  0.1119
 1322ERGO    R120002  15.211  15.048   5.461 -0.0432 -0.1101  0.0950
 1322ERGO    R220003  15.241  15.224   5.672  0.2641 -0.2051  0.1534
 1322ERGO    R320004  15.039  15.077   5.780 -0.0186  0.1232  0.0843
 1322ERGO    R420005  15.189  15.181   6.010  0.2479 -0.3852  0.1267
 1322ERGO    R520006  15.139  14.972   5.971 -0.1982 -0.2459 -0.0290
 1322ERGO    C120007  14.969  15.017   6.309 -0.0269 -0.1820  0.0463
 1322ERGO    C220008  14.712  14.962   6.461  0.1418  0.1252  0.2455
 1323ERGO   ROH20009  16.680  13.138   5.672 -0.0873 -0.0818  0.1914
 1323ERGO    R120010  16.574  13.236   5.916 -0.1472 -0.2140  0.2187
 1323ERGO    R220011  16.568  13.084   6.146  0.2080 -0.1869  0.2486
 1323ERGO    R320012  16.698  13.298   6.252 -0.1016  0.0570  0.1547
 1323ERGO    R420013  16.594  13.151   6.484  0.5366 -0.2919  0.2474
 1323ERGO    R520014  16.563  13.362   6.440  0.0087 -0.3248  0.3783
 1323ERGO    C120015  16.732  13.390   6.781  0.4372 -0.1240  0.1585
 1323ERGO    C220016  16.816  13.474   7.068 -0.0983  0.1467 -0.0287
 1324ERGO   ROH20017   3.417   3.630   5.481  0.1030  0.1732 -0.0868
 1324ERGO    R120018   3.486   3.404   5.636  0.0450  0.1390 -0.1096
 1324ERGO    R220019   3.514   3.415   5.911  0.0582  0.1064 -0.1077
 1324ERGO    R320020   3.334   3.211   5.905 -0.0007  0.1587 -0.1221
 1324ERGO    R420021   3.448   3.202   6.175  0.0761  0.0343 -0.1617
 1324ERGO    R520022   3.438   3.037   6.032 -0.0131  0.0862 -0.2129
 1324ERGO    C120023   3.241   2.886   6.322  0.0311  0.0414 -0.2065
 1324ERGO    C220024   3.176   2.627   6.446 -0.1084 -0.3207 -0.0797
 1325ERGO   ROH20025  11.960   5.440   5.332  0.0845  0.0456  0.1205
 1325ERGO    R120026  11.878   5.554   5.577 -0.0108  0.0460  0.0879
 1325ERGO    R220027  11.634   5.679   5.610 -0.1041 -0.1349  0.0466
 1325ERGO    R320028  11.608   5.503   5.816  0.0203 -0.0986  0.0952
 1325ERGO    R420029  11.401   5.706   5.864 -0.1601 -0.2477  0.0094
 1325ERGO    R520030  11.555   5.641   6.005 -0.1163 -0.0799  0.0493
 1325ERGO    C120031  11.242   5.558   6.206 -0.0761 -0.2792  0.0334
 1325ERGO    C220032  11.106   5.430   6.443  0.0832 -0.3710  0.4318
 1326ERGO   ROH20033   6.713  11.997   5.038  0.1690 -0.3798 -0.0448
 1326ERGO    R120034   6.788  11.910   5.296  0.1634 -0.2206  0.0116
 1326ERGO    R220035   6.929  12.070   5.472  0.1080 -0.0907 -0.0607
 1326ERGO    R320036   6.723  12.013   5.639  0.1045 -0.0475 -0.0503
 1326ERGO    R420037   6.941  12.095   5.817  0.1280 -0.0815 -0.0621
 1326ERGO    R520038   6.826  11.910   5.829  0.0944 -0.0605 -0.0515
 1326ERGO    C120039   6.754  12.056   6.174  0.1363 -0.0356 -0.0532
 1326ERGO    C220040   6.857  12.077   6.476  0.1059 -0.2407 -0.0978
 1327ERGO   ROH20041  11.122  17.220   5.717  0.0834 -0.0818 -0.0033
 1327ERGO    R120042  10.925  17.120   5.895  0.0621 -0.0445 -0.0047
 1327ERGO    R220043  10.966  16.895   6.051 -0.0181 -0.1118 -0.0746
 1327ERGO    R320044  10.898  17.063   6.253  0.0893 -0.1363 -0.0178
 1327ERGO    R420045  10.842  16.794   6.357 -0.0282 -0.1345 -0.0867
 1327ERGO    R520046  10.703  16.962   6.351  0.0541 -0.0667 -0.0208
 1327ERGO    C120047  10.705  16.893   6.726  0.0667 -0.1708 -0.0404
 1327ERGO    C220048  10.707  16.842   7.063 -0.1105 -0.0307  0.0609
 1328ERGO   ROH20049   1.648   2.702   5.432 -0.0317 -0.1038  0.1826
 1328ERGO    R120050   1.508   2.614   5.661 -0.0930  0.0066  0.1892
 1328ERGO    R220051   1.565   2.376   5.789 -0.2704 -0.0405  0.1941
 1328ERGO    R320052   1.589   2.536   6.007 -0.1386 -0.0500  0.1857
 1328ERGO    R420053   1.654   2.269   6.105 -0.2043 -0.0633  0.1673
 1328ERGO    R520054   1.505   2.404   6.188 -0.1231 -0.0122  0.2149
 1328ERGO    C120055   1.727   2.357   6.494 -0.0419 -0.0854  0.1438
 1328ERGO    C220056   1.920   2.293   6.796  0.1984 -0.0661 -0.1222
 1329ERGO   ROH20057  10.042   3.933   5.534 -0.2314  0.0433 -0.0456
 1329ERGO    R120058  10.013   3.811   5.788  0.1497 -0.0336 -0.0336
 1329ERGO    R220059  10.229   3.736   5.942  0.3924  0.4104 -0.1465
 1329ERGO    R320060  10.108   3.889   6.131  0.1619  0.1503 -0.0764
 1329ERGO    R420061  10.242   3.677   6.283  0.4826  0.2655 -0.1739
 1329ERGO    R520062  10.031   3.732   6.295  0.3914 -0.0476 -0.1477
 1329ERGO    C120063  10.135   3.786   6.658  0.3187 -0.0631 -0.1241
 1329ERGO    C220064  10.137   3.660   7.006  0.0035  0.0125 -0.2948
 1330ERGO   ROH20065  14.841   6.025   5.654 -0.0515  0.2249 -0.0098
 1330ERGO    R120066  14.953   5.954   5.904 -0.0507  0.0169 -0.0684
 1330ERGO    R220067  14.944   6.121   6.124  0.2209 -0.0394 -0.0200
 1330ERGO    R320068  14.832   5.905   6.244  0.0069  0.0572 -0.0393
 1330ERGO    R420069  14.863   6.103   6.459  0.1757  0.0405 -0.0259
 1330ERGO    R520070  14.936   5.897   6.460 -0.0114 -0.0380 -0.0259
 1330ERGO    C120071  14.709   5.889   6.767 -0.0516  0.1777 -0.0475
 1330ERGO    C220072  14.858   5.771   7.097 -0.2822 -0.0438  0.3549
 1331ERGO   ROH20073   8.513   3.748   5.402  0.1430  0.0639  0.0553
 1331ERGO    R120074   8.559   3.903   5.635  0.2643  0.1650 -0.0355
 1331ERGO    R220075   8.416   3.867   5.869  0.1382  0.5059 -0.0558
 1331ERGO    R320076   8.664   3.840   5.978  0.0725  0.2623  0.0427
 1331ERGO    R420077   8.485   3.870   6.208  0.0008  0.3472 -0.0242
 1331ERGO    R520078   8.663   3.989   6.165  0.1213  0.2090  0.0857
 1331ERGO    C120079   8.757   3.847   6.507 -0.1410  0.0262  0.0866
 1331ERGO    C220080   8.742   3.760   6.771  0.0514 -0.0832  0.1900
 1332ERGO   ROH20081  16.944  15.607   5.345 -0.2039 -0.0525  0.1216
 1332ERGO    R120082  16.851  15.739   5.577 -0.1255 -0.0206  0.1366
 1332ERGO    R220083  16.663  15.628   5.747 -0.2041  0.0759  0.1228
 1332ERGO    R320084  16.852  15.677   5.936 -0.1715 -0.0692  0.1270
 1332ERGO    R420085  16.632  15.552   6.083 -0.1759 -0.0887  0.0880
 1332ERGO    R520086  16.728  15.742   6.130 -0.1266 -0.1409  0.1754
 1332ERGO    C120087  16.791  15.554   6.455 -0.1289 -0.3206  0.0718
 1332ERGO    C220088  16.774  15.421   6.775  0.2737 -0.2333 -0.1098
 1333ERGO   ROH20089  15.634  13.026   5.515 -0.0046  0.0837  0.1052
 1333ERGO    R120090  15.657  13.180   5.751 -0.1266  0.0939  0.1112
 1333ERGO    R220091  15.454  13.197   5.939 -0.1353 -0.0841  0.1176
 1333ERGO    R320092  15.650  13.117   6.109 -0.0628  0.0733  0.1096
 1333ERGO    R420093  15.463  13.265   6.278 -0.0430  0.1552  0.0686
 1333ERGO    R520094  15.677  13.300   6.261 -0.0525  0.1878 -0.0258
 1333ERGO    C120095  15.652  13.230   6.635  0.0787  0.4422  0.0326
 1333ERGO    C220096  15.728  13.051   6.894  0.0055  0.1896  0.3051
 1334ERGO   ROH20097   5.586  15.182   5.702 -0.0363  0.0150 -0.0858
 1334ERGO    R120098   5.724  15.147   5.947 -0.0257  0.0790 -0.0831
 1334ERGO    R220099   5.962  15.277   6.003 -0.0773  0.1693 -0.0881
 1334ERGO    R320100   5.828  15.359   6.224 -0.1061  0.1301 -0.0902
 1334ERGO    R420101   6.091  15.278   6.324 -0.1351  0.0402 -0.0636
 1334ERGO    R520102   5.898  15.208   6.396 -0.1693  0.0571 -0.1232
 1334ERGO    C120103   6.039  15.355   6.718 -0.1958 -0.0717 -0.0512
 1334ERGO    C220104   5.919  15.231   7.022  0.0886  0.0832  0.0535
 1335ERGO   ROH20105   4.207   5.981   5.500  0.0869 -0.0590 -0.1797
 1335ERGO    R120106   4.346   5.956   5.745  0.1010 -0.0631 -0.1886
 1335ERGO    R220107   4.225   5.997   5.990  0.1445  0.0445 -0.1873
 1335ERGO    R320108   4.321   5.749   6.043  0.0435  0.0154 -0.1377
 1335ERGO    R420109   4.373   5.903   6.287  0.1232  0.0528 -0.1737
 1335ERGO    R520110   4.519   5.788   6.173  0.0696 -0.0356 -0.1585
 1335ERGO    C120111   4.549   5.615   6.511  0.0162  0.0304 -0.1193
 1335ERGO    C220112   4.538   5.331   6.855 -0.0063  0.0323  0.1969
 1336ERGO   ROH20113   7.281   3.418   5.462 -0.3191 -0.3515  0.0636
 1336ERGO    R120114   7.112   3.432   5.688 -0.1410 -0.4007  0.2020
 1336ERGO    R220115   7.184   3.331   5.935  0.2106 -0.1169  0.2209
 1336ERGO    R320116   7.124   3.583   6.019 -0.0453 -0.1255  0.0768
 1336ERGO    R420117   7.118   3.419   6.263  0.2268  0.0193  0.1889
 1336ERGO    R520118   6.959   3.550   6.190  0.0488 -0.2047  0.1556
 1336ERGO    C120119   7.023   3.706   6.533 -0.0040  0.0904  0.0350
 1336ERGO    C220120   7.153   3.610   6.954  0.2221 -0.3821 -0.1354
 1337ERGO   ROH20121  17.813  17.438   5.536 -0.1232 -0.1366  0.0124
 1337ERGO    R120122  17.738  17.356   5.796  0.1654 -0.2696  0.0565
 1337ERGO    R220123  17.917  17.349   6.007  0.2736  0.1643 -0.0146
 1337ERGO    R320124  17.729  17.504   6.128 -0.0356 -0.2339  0.0371
 1337ERGO    R420125  17.873  17.374   6.349  0.4903  0.2463  0.0088
 1337ERGO    R520126  17.657  17.374   6.316  0.4457 -0.3234  0.1769
 1337ERGO    C120127  17.671  17.534   6.662  0.3263 -0.0800  0.0710
 1337ERGO    C220128  17.856  17.869   6.825  0.1350 -0.1714 -0.2227
 1338ERGO   ROH20129   5.218   3.985   5.615 -0.0118 -0.0319  0.0796
 1338ERGO    R120130   5.158   3.797   5.818 -0.0424  0.1136  0.2056
 1338ERGO    R220131   5.318   3.578   5.870 -0.3300 -0.1428  0.0228
 1338ERGO    R320132   5.316   3.678   6.123  0.1932 -0.0816  0.0138
 1338ERGO    R420133   5.397   3.398   6.154 -0.5416 -0.3323 -0.0354
 1338ERGO    R520134   5.233   3.498   6.257 -0.1831  0.1507  0.1176
 1338ERGO    C120135   5.442   3.386   6.556 -0.1738 -0.3853 -0.0779
 1338ERGO    C220136   5.762   3.291   6.710 -0.1414  0.1309 -0.3436
 1339ERGO   ROH20137   6.145   3.677   5.381  0.0641  0.1219  0.1565
 1339ERGO    R120138   6.054   3.572   5.628 -0.0234  0.1228  0.1247
 1339ERGO    R220139   6.168   3.643   5.871 -0.0086  0.0076  0.1505
 1339ERGO    R320140   5.911   3.705   5.936  0.0192  0.1421  0.1364
 1339ERGO    R420141   6.039   3.640   6.191 -0.0490  0.0020  0.1349
 1339ERGO    R520142   5.856   3.553   6.112 -0.0917  0.1294  0.0914
 1339ERGO    C120143   5.724   3.697   6.439 -0.0464  0.1250  0.1127
 1339ERGO    C220144   5.670   3.789   6.825 -0.3574  0.1173 -0.1089
 1340ERGO   ROH20145   5.868   8.690   5.254  0.0255 -0.1026  0.2054
 1340ERGO    R120146   5.734   8.777   5.488 -0.0935 -0.0341  0.1125
 1340ERGO    R220147   5.746   8.638   5.727 -0.2680  0.0007  0.1422
 1340ERGO    R320148   5.828   8.879   5.824 -0.2697 -0.0031  0.1535
 1340ERGO    R420149   5.617   8.791   6.008 -0.2955  0.0021  0.1288
 1340ERGO    R520150   5.627   8.982   5.903 -0.2760  0.0035  0.1310
 1340ERGO    C120151   5.617   9.106   6.264 -0.3132 -0.0005  0.1316
 1340ERGO    C220152   5.397   8.965   6.579 -0.2243 -0.1031  0.0748
 1341ERGO   ROH20153   9.961   7.340   5.305 -0.1082  0.2676 -0.1439
 1341ERGO    R120154   9.824   7.284   5.546 -0.0432  0.1330 -0.1381
 1341ERGO    R220155   9.811   7.465   5.755 -0.0098  0.0242 -0.0481
 1341ERGO    R320156   9.543   7.426   5.730 -0.0142  0.0112  0.0061
 1341ERGO    R420157   9.573   7.585   5.974  0.0400 -0.0012  0.0212
 1341ERGO    R520158   9.467   7.396   5.954  0.0425 -0.0117  0.0280
 1341ERGO    C120159   9.182   7.618   6.079  0.0649 -0.0282  0.1124
 1341ERGO    C220160   8.867   7.607   6.148 -0.1173 -0.0785  0.0925
 1342ERGO   ROH20161  18.387  14.648   5.695  0.4723 -0.0433 -0.0793
 1342ERGO    R120162  18.561  14.673   5.916  0.3636 -0.1294  0.0168
 1342ERGO    R220163  18.470  14.726   6.172  0.2542 -0.0059 -0.0499
 1342ERGO    R320164  18.613  14.502   6.234  0.0510 -0.1014  0.0873
 1342ERGO    R420165  18.643  14.676   6.468  0.2490  0.0483 -0.0373
 1342ERGO    R520166  18.803  14.584   6.353  0.1492 -0.1907  0.0000
 1342ERGO    C120167  18.876  14.438   6.698  0.0553 -0.0098  0.0989
 1342ERGO    C220168  19.052  14.389   6.999 -0.0428  0.1999 -0.3336
 1343ERGO   ROH20169   3.700  15.710   6.016  0.2823 -0.0610  0.1154
 1343ERGO    R120170   3.840  15.642   6.252  0.1802 -0.0290  0.1870
 1343ERGO    R220171   4.025  15.811   6.370  0.1757 -0.0367  0.2114
 1343ERGO    R320172   3.870  15.774   6.590  0.0829  0.0566  0.1618
 1343ERGO    R420173   4.144  15.759   6.690  0.0406 -0.1606  0.2422
 1343ERGO    R520174   3.988  15.611   6.720 -0.0790 -0.0452  0.1809
 1343ERGO    C120175   4.068  15.695   7.083 -0.1252 -0.1452  0.2135
 1343ERGO    C220176   3.984  15.591   7.381 -0.0830 -0.0371 -0.3306
 1344ERGO   ROH20177  16.430  15.608   5.322  0.0503 -0.0327 -0.1154
 1344ERGO    R120178  16.235  15.541   5.516  0.0595 -0.0020 -0.0967
 1344ERGO    R220179  16.283  15.355   5.716  0.0494 -0.0080 -0.1055
 1344ERGO    R320180  16.207  15.559   5.879  0.0960  0.0005 -0.0927
 1344ERGO    R420181  16.134  15.316   6.025  0.1262 -0.0009 -0.0668
 1344ERGO    R520182  16.003  15.483   5.978  0.1162  0.0046 -0.0403
 1344ERGO    C120183  15.976  15.484   6.358  0.2145  0.0111 -0.0323
 1344ERGO    C220184  15.758  15.630   6.594  0.0080  0.1667 -0.3265
 1345ERGO   ROH20185  10.221   2.868   5.270 -0.0283 -0.0488  0.0364
 1345ERGO    R120186  10.185   2.934   5.543  0.0195  0.1365  0.0005
 1345ERGO    R220187  10.174   2.743   5.742 -0.1201  0.2562  0.1157
 1345ERGO    R320188  10.373   2.891   5.852 -0.0091  0.1772  0.0222
 1345ERGO    R420189  10.267   2.732   6.075  0.0128  0.2499  0.0780
 1345ERGO    R520190  10.290   2.949   6.070  0.1080  0.2357  0.0489
 1345ERGO    C120191  10.508   2.866   6.372  0.1945  0.1721 -0.0317
 1345ERGO    C220192  10.551   2.986   6.708 -0.0734  0.1192 -0.1123
 1346ERGO   ROH20193   7.355  13.893   5.719  0.3527  0.0502  0.0443
 1346ERGO    R120194   7.452  13.915   5.984  0.2649 -0.0623  0.0879
 1346ERGO    R220195   7.397  14.132   6.146  0.3271 -0.0618  0.1161
 1346ERGO    R320196   7.308  13.941   6.317  0.1496 -0.0510  0.0368
 1346ERGO    R420197   7.371  14.170   6.488  0.3648 -0.1817  0.1318
 1346ERGO    R520198   7.446  13.967   6.512  0.1745 -0.2607  0.0473
 1346ERGO    C120199   7.273  14.013   6.849  0.2202 -0.2413  0.0664
 1346ERGO    C220200   7.093  14.243   7.175 -0.2946 -0.2653  0.1264
 1347W        W20201  17.780   2.628   2.978 -0.2014 -0.1527  0.0954
 1348W        W20202  14.774  13.696   1.284  0.0246 -0.0796 -0.0746
 1349W        W20203   5.503  11.280   0.296  0.3707  0.1087 -0.0111
 1350W        W20204   8.343  14.698   1.755  0.0162 -0.0679  0.0444
 1351W        W20205  11.647   9.435   3.439 -0.1386 -0.1033  0.1535
 1352W        W20206  18.390  16.954   0.350 -0.2055 -0.0071  0.0960
 1353W        W20207  17.246   1.051  12.744 -0.0402 -0.1637  0.1337
 1354W        W20208  10.604  11.538  12.665  0.0257 -0.1789 -0.4904
 1355W        W20209   2.585   0.276   0.866 -0.0979  0.1037 -0.0493
 1356W        W20210   2.058   1.710   0.057 -0.1612 -0.0329  0.2787
 1357W        W20211   1.882  16.520   3.513 -0.1684 -0.1175 -0.0102
 1358W        W20212  14.198  13.504  11.177  0.2323  0.0087 -0.0835
 1359W        W20213   5.993  13.262  13.902  0.1817 -0.0917 -0.1206
 1360W        W20214   0.769  12.885   1.055 -0.0723  0.2568 -0.1868
 1361W        W20215   6.278  18.943   1.156  0.0561  0.2316  0.3429
 1362W        W20216   0.432   1.223  11.012  0.2049  0.1955  0.1183
 1363W        W20217   7.088   3.299   0.803  0.3090  0.0646  0.1218
 1364W        W20218   2.014   9.402  13.700  0.2698 -0.0542 -0.0515
 1365W        W20219   8.162   4.952  13.702  0.1364  0.1911  0.4390
 1366W        W20220   1.339  14.984  12.376  0.3636  0.0355 -0.1717
 1367W        W20221   0.532   8.531   2.439  0.3392 -0.2049 -0.1221
 1368W        W20222   1.012   5.926  14.186 -0.1818 -0.0105  0.0674
 1369W        W20223   1.311  15.557  14.143  0.0738  0.0787  0.2290
 1370W        W20224  14.744   4.174  14.613  0.2388 -0.0523 -0.4250
 1371W        W20225  15.982  14.248  11.649  0.0248  0.2903  0.0231
 1372W        W20226  12.367  17.096   5.357  0.2124  0.1703  0.2580
 1373W        W20227  12.219  11.639  11.751  0.2163 -0.3837  0.2273
 1374W        W20228   7.727  13.297  13.480 -0.2201  0.3419  0.0513
 1375W        W20229  10.714  14.469  14.402  0.0829  0.0846  0.0402
 1376W        W20230   2.583  18.588   3.621  0.1113  0.1546  0.0509
 1377W        W20231   2.769  11.339   0.333 -0.0544 -0.3505 -0.1780
 1378W        W20232  12.189  11.352  10.409 -0.1759 -0.0506 -0.1213
 1379W        W20233  13.843   9.477  14.081  0.0326  0.0013 -0.1895
 1380W        W20234  10.194  18.854  11.247 -0.1511 -0.0095  0.0756
 1381W        W20235   9.227  18.012  12.337  0.2831  0.1487  0.1031
 1382W        W20236  11.152  18.540   1.824 -0.1312 -0.0593 -0.2288
 1383W        W20237  11.375  14.255   3.538 -0.0058 -0.2910  0.4116
 1384W        W20238   3.678  10.253   1.694 -0.1832  0.2158 -0.0114
 1385W        W20239   9.234   9.625  12.163  0.0641 -0.1997 -0.1027
 1386W        W20240  10.598   4.195  13.779  0.4419 -0.0827 -0.1951
 1387W        W20241  13.424   1.746   1.438  0.1355  0.0813 -0.1218
 1388W        W20242   8.406   0.817  10.682  0.1263 -0.1393 -0.1303
 1389W        W20243  11.040   0.370   2.450 -0.3031  0.0255 -0.3117
 1390W        W20244  17.953   5.700   2.574 -0.0997 -0.2554 -0.0023
 1391W        W20245   6.411  17.350   3.926  0.2714  0.1267 -0.1569
 1392W        W20246  10.100   1.479   0.699 -0.0075  0.0770 -0.0790
 1393W        W20247   6.935  16.802   5.475  0.3747 -0.0956  0.1657
 1394W        W20248  12.791  18.350   1.929 -0.0146  0.1194  0.1235
 1395W        W20249   7.574   5.225  13.146  0.1006  0.1706  0.4420
 1396W        W20250  15.730  18.902   9.939  0.0779  0.1165 -0.2120
 1397W        W20251  10.279   0.397  11.918 -0.1020  0.0465 -0.0634
 1398W        W20252   6.302   9.343   2.607 -0.0705  0.2400  0.1252
 1399W        W20253  16.901   2.226   2.375  0.0780  0.2105 -0.1742
 1400W        W20254  13.052   2.418  12.583 -0.0400 -0.2077 -0.1187
 1401W        W20255  14.713  11.154  12.157 -0.0868  0.0196 -0.0626
 1402W        W20256   0.258  17.597   1.122  0.1340  0.1072  0.2611
 1403W        W20257  11.077  17.468  13.940 -0.0380 -0.1706 -0.0497
 1404W        W20258  14.024   7.925   0.712 -0.0580 -0.1634  0.0166
 1405W        W20259  12.922   0.766   1.073  0.1311  0.0787 -0.0018
 1406W        W20260   3.800   2.841   9.633 -0.1200 -0.0947 -0.0096
 1407W        W20261   6.369   2.844   2.703  0.1887 -0.3342  0.3514
 1408W        W20262  13.118  14.908   4.206  0.3071  0.2098  0.0433
 1409W        W20263   7.143  14.093   4.408 -0.0366  0.1163 -0.2444
 1410W        W20264  18.549  18.743  11.050  0.2141 -0.1899  0.2602
 1411W        W20265   9.975  10.087   3.472  0.0269  0.0688  0.2032
 1412W        W20266   0.385   8.201   0.913 -0.0807 -0.1192 -0.2358
 1413W        W20267  12.139  15.548   3.396 -0.0148  0.0580  0.0672
 1414W        W20268   2.666   7.824   2.911  0.1909 -0.3925 -0.3478
 1415W        W20269   7.840   0.659   0.139  0.0563  0.0259 -0.0793
 1416W        W20270  12.336  18.579  14.520  0.2715  0.0159 -0.2545
 1417W        W20271  14.191   4.179  12.697  0.1485 -0.0544  0.0009
 1418W        W20272   0.536   9.612  11.455 -0.1558 -0.4060  0.3061
 1419W        W20273   1.639  18.281   0.519  0.2571  0.1313 -0.1856
 1420W        W20274   4.136  13.892  14.211 -0.2775 -0.0220  0.1783
 1421W        W20275   3.457   0.739   3.984  0.2374  0.0981 -0.2085
 1422W        W20276  13.796   6.571   0.150  0.2409 -0.1482 -0.1469
 1423W        W20277  10.441  12.162   1.620  0.4112  0.0921  0.2485
 1424W        W20278   9.970  12.050   1.777 -0.1676 -0.0372  0.3427
 1425W        W20279  12.128   6.974   0.458 -0.2932  0.0397  0.2874
 1426W        W20280   0.041  12.806   0.559  0.4101 -0.0292 -0.0226
 1427W        W20281   3.257  12.985  12.288 -0.1239  0.0460  0.2304
 1428W        W20282  15.320   2.194   1.910 -0.0076 -0.2270  0.0639
 1429W        W20283  11.667   4.008  14.201  0.0070  0.2533 -0.0787
 1430W        W20284   9.486   6.087  13.067 -0.2978  0.2734  0.2502
 1431W        W20285  12.927  12.831   0.993  0.4149  0.1984  0.1318
 1432W        W20286  16.627   5.164  12.663  0.0917 -0.3509  0.2593
 1433W        W20287   8.811   2.006  13.710  0.2497 -0.2323  0.0184
 1434W        W20288   3.999  17.932  13.197  0.0066  0.0049 -0.2130
 1435W        W20289  17.098   6.192  12.255  0.3949  0.0818  0.1259
 1436W        W20290  12.580  11.524   0.239  0.1081 -0.4132 -0.2505
 1437W        W20291   5.898  11.322  11.844  0.2084  0.0615 -0.1208
 1438W        W20292  16.060   8.099   1.881 -0.0403  0.3418  0.0519
 1439W        W20293   4.496   8.817   2.804 -0.4430 -0.0323  0.2384
 1440W        W20294   9.807   2.452   0.482  0.2339  0.0661  0.3563
 1441W        W20295   0.173  14.035  13.032 -0.1269  0.0252  0.3308
 1442W        W20296  13.644   8.278  11.947 -0.0800  0.0145  0.1894
 1443W        W20297   7.394  15.818  11.584 -0.1733 -0.2065  0.4071
 1444W        W20298   5.855   3.745   9.429  0.1053  0.0746  0.1309
 1445W        W20299  17.234   4.283  14.676 -0.2466  0.0740 -0.0772
 1446W        W20300   5.193   8.178   9.601  0.2254 -0.1977 -0.1069
 1447W        W20301  13.250   4.195   1.970  0.1941  0.0631 -0.2104
 1448W        W20302   2.308   2.015   3.323  0.3235  0.1590 -0.0550
 1449W        W20303  17.812   8.618  11.186  0.3961  0.2072 -0.1632
 1450W        W20304   6.580   5.270   2.687 -0.0687  0.2467  0.3741
 1451W        W20305  11.644   9.913  10.105 -0.1928 -0.0345 -0.2183
 1452W        W20306   1.838   5.255  11.059  0.1065  0.1654 -0.0224
 1453W        W20307   4.940  16.636   3.563 -0.3499  0.3467  0.2345
 1454W        W20308   4.075   9.923  12.917 -0.0964  0.0163 -0.1588
 1455W        W20309   1.566  13.093   4.058 -0.1294  0.2826 -0.0770
 1456W        W20310   4.015   9.180   3.480 -0.0887  0.3150  0.0169
 1457W        W20311  14.661  18.777   5.241 -0.1091  0.1540  0.3964
 1458W        W20312   0.755   4.719   2.264 -0.0277 -0.3557 -0.3512
 1459W        W20313  12.416   0.552   2.915  0.2740 -0.0886 -0.2763
 1460W        W20314  16.153  12.743   1.133 -0.3295 -0.4849  0.2460
 1461W        W20315   1.076  19.055   0.310  0.2158  0.0264 -0.0913
 1462W        W20316   9.312  16.757  11.054  0.3470  0.1201 -0.3933
 1463W        W20317  10.612   4.937  13.299 -0.1007 -0.3459 -0.2816
 1464W        W20318   4.095   6.474  12.525 -0.2520  0.3602  0.0149
 1465W        W20319   8.420  11.645  14.318 -0.2036  0.0327 -0.1632
 1466W        W20320  10.599   6.214   2.503  0.3037  0.0812  0.0778
 1467W        W20321  12.134  13.854   9.291  0.0762  0.2651  0.2452
 1468W        W20322  17.069  10.062   4.129  0.0365 -0.1854  0.1847
 1469W        W20323  16.136   5.659  11.597  0.0006 -0.2097  0.2821
 1470W        W20324  13.851  13.920   0.160 -0.0212  0.0845  0.1564
 1471W        W20325  11.183  10.275  12.623 -0.1176  0.1576 -0.1331
 1472W        W20326   1.916   8.812   1.475 -0.2470  0.1384  0.2187
 1473W        W20327  15.434   0.962  14.116  0.0001 -0.2502  0.1061
 1474W        W20328   5.063  17.411   2.187  0.0847  0.2633  0.0598
 1475W        W20329  16.666  12.589   2.988 -0.2060 -0.0743  0.1470
 1476W        W20330  11.713   5.088   0.107 -0.1269 -0.0264 -0.1516
 1477W        W20331   4.858   8.399   2.108  0.2489  0.0420 -0.0626
 1478W        W20332   4.727  14.870   0.254 -0.0936 -0.1342  0.0111
 1479W        W20333  14.455   7.945   3.132 -0.1300 -0.2252  0.2002
 1480W        W20334  15.148   5.414  14.190 -0.0331  0.2484 -0.2340
 1481W        W20335  11.578  17.222   3.524  0.0314  0.2740 -0.1778
 1482W        W20336   5.781   6.187   4.025  0.0698 -0.0933 -0.1267
 1483W        W20337   6.641   5.590   3.829  0.0593  0.0052 -0.1890
 1484W        W20338  11.302   8.827   2.880  0.1476 -0.1762 -0.0816
 1485W        W20339  12.212  14.997  12.464  0.0638 -0.1337 -0.0515
 1486W        W20340   4.133  17.319  10.831 -0.0212  0.1144  0.0906
 1487W        W20341  16.784   5.229   1.867 -0.0600 -0.3538 -0.2265
 1488W        W20342   6.672   1.623  11.034 -0.2895  0.3081  0.0505
 1489W        W20343  17.474   5.194   1.453 -0.5872  0.0898  0.0586
 1490W        W20344   3.005   6.828   3.479 -0.0629 -0.1724 -0.1421
 1491W        W20345  16.098  18.236   4.577  0.0648 -0.2484 -0.0921
 1492W        W20346  18.434  18.158  12.546 -0.2958 -0.0489 -0.2366
 1493W        W20347   1.227   4.701   2.829 -0.1120  0.1248  0.0820
 1494W        W20348  10.800   0.001  10.772  0.1655 -0.3116  0.0852
 1495W        W20349   9.872   8.553  10.968  0.0275  0.0196  0.1473
 1496W        W20350   5.375   6.256   0.745 -0.2126  0.0048 -0.0266
 1497W        W20351   7.407   1.013  14.228  0.0090  0.0459 -0.0299
 1498W        W20352   0.285  17.392  14.144 -0.1082 -0.1894  0.0730
 1499W        W20353   5.263  17.603  14.677 -0.0377  0.0751  0.0902
 1500W        W20354  13.655   0.210   4.459 -0.0325 -0.1872 -0.0970
 1501W        W20355   8.793   7.739   3.491 -0.2198 -0.1839  0.1121
 1502W        W20356  10.462   4.199   0.612  0.0434  0.0148 -0.0394
 1503W        W20357  15.392   6.796  11.397 -0.0570  0.0389 -0.1017
 1504W        W20358   2.152   4.944  14.642  0.3669  0.3178 -0.1525
 1505W        W20359  14.417  12.476   9.674 -0.1588  0.1340  0.1175
 1506W        W20360  17.402  10.727   0.645 -0.1698 -0.0121  0.0506
 1507W        W20361   7.471  10.652   1.895  0.1362 -0.1858  0.1110
 1508W        W20362   7.524   8.299  13.811  0.0597 -0.0443  0.1688
 1509W        W20363   7.844   9.950   3.628  0.2127  0.1975 -0.2228
 1510W        W20364  11.819   9.803   1.383 -0.0339 -0.2780  0.2797
 1511W        W20365  17.687   2.949  13.708  0.1132 -0.0205 -0.0270
 1512W        W20366  11.636   3.905  11.420 -0.0641  0.0908 -0.0595
 1513W        W20367  13.467  16.982   3.076  0.1200  0.1184  0.0677
 1514W        W20368  16.923   2.886   4.028  0.1775  0.0337 -0.2020
 1515W        W20369   6.908   1.055  13.265 -0.2536 -0.1341  0.1912
 1516W        W20370   0.333   0.257   4.521  0.0029 -0.0400  0.0884
 1517W        W20371  11.322   8.486  10.416  0.0844  0.1209 -0.2144
 1518W        W20372   6.349  14.233   0.025  0.2136 -0.3076  0.0102
 1519W        W20373  10.078  13.819   0.718  0.1396 -0.0266 -0.0107
 1520W        W20374   4.326   9.642  14.001  0.0121  0.0022  0.0617
 1521W        W20375  14.109   2.368  12.236 -0.0725  0.0793  0.1039
 1522W        W20376   5.736   6.051  14.666 -0.1244  0.1300 -0.1371
 1523W        W20377   9.869   4.708   0.218 -0.5629  0.1264  0.2980
 1524W        W20378  17.197   5.702   0.305  0.1084  0.0319 -0.1960
 1525W        W20379   6.114  18.476  10.564  0.1051  0.2326  0.4048
 1526W        W20380   7.587   6.703   0.887  0.5553 -0.0273 -0.0334
 1527W        W20381  12.230  17.238  10.359  0.1836  0.0418 -0.0852
 1528W        W20382   9.197  10.070  11.477 -0.0586  0.4082  0.2024
 1529W        W20383   7.781  10.936   1.528 -0.0525  0.0752 -0.0192
 1530W        W20384   8.642   5.006   1.527  0.0561  0.0543  0.0857
 1531W        W20385   6.163  17.081   4.857 -0.2544 -0.2488 -0.2736
 1532W        W20386  11.639   3.289  13.578  0.0008  0.0734 -0.2063
 1533W        W20387  12.232  11.256  12.554 -0.0026  0.1847 -0.1321
 1534W        W20388   6.806  15.697  12.200 -0.0996  0.1890  0.1130
 1535W        W20389   9.166   3.937  12.592 -0.3047  0.0883  0.0967
 1536W        W20390  11.496   2.407  13.210 -0.2489  0.1332  0.0248
 1537W        W20391  11.000  14.559   3.257  0.2755  0.2478 -0.1265
 1538W        W20392   9.792   8.003  10.166 -0.2867  0.3102  0.1325
 1539W        W20393   0.716   7.347   5.683  0.0452 -0.2405  0.2838
 1540W        W20394   4.183  15.131  13.262  0.0402  0.1561  0.2327
 1541W        W20395  12.821   1.161   3.357 -0.1947  0.1484 -0.1706
 1542W        W20396   4.029   2.567   2.965 -0.0990 -0.2723 -0.4107
 1543W        W20397   0.385  13.649   1.129  0.0653  0.1981 -0.2103
 1544W        W20398   8.187   6.677  11.522 -0.2001  0.2702 -0.2371
 1545W        W20399   3.530   7.318   2.093  0.0195 -0.0487 -0.0976
 1546W        W20400  13.062  15.676  10.778 -0.2791 -0.1113 -0.1281
 1547W        W20401  16.613  15.705   1.039 -0.0130  0.1712 -0.0284
 1548W        W20402  14.864  10.696  11.475  0.1125  0.1985 -0.0003
 1549W        W20403  18.557  13.329   9.738  0.3528 -0.3845  0.2999
 1550W        W20404   1.656  11.970   4.182 -0.4782 -0.0505 -0.0179
 1551W        W20405  15.059   0.201  13.962  0.2520  0.3456  0.0496
 1552W        W20406  17.812   6.353  11.445  0.0342  0.1992 -0.1117
 1553W        W20407   2.172   4.611   3.998  0.0554 -0.0837 -0.0120
 1554W        W20408   7.310   5.877   9.426  0.1300  0.0115  0.2113
 1555W        W20409   7.288   1.707   3.326 -0.2603 -0.4052 -0.0919
 1556W        W20410  13.039  17.235   3.784 -0.1592  0.2042 -0.1827
 1557W        W20411  11.737   6.838   3.551 -0.1111  0.1516  0.3847
 1558W        W20412  12.641  12.186  12.862 -0.0310  0.1457 -0.3180
 1559W        W20413  16.562  10.510   0.708 -0.1901  0.0520  0.0386
 1560W        W20414   2.146  10.606   2.289 -0.2569  0.1262  0.3856
 1561W        W20415  15.289   7.199  11.866 -0.0241 -0.3739  0.0556
 1562W        W20416  16.882  13.132  12.256 -0.2551 -0.2155 -0.0675
 1563W        W20417  12.793   8.758  11.529 -0.2093  0.2053  0.0546
 1564W        W20418   9.891  14.871   0.487 -0.0713  0.0605  0.1322
 1565W        W20419   2.376   3.312   2.777 -0.4896  0.0710  0.1052
 1566W        W20420  14.871  19.128  14.395 -0.0000 -0.1090  0.2143
 1567W        W20421  11.976  12.263  11.134  0.0344  0.3185  0.2931
 1568W        W20422  16.916   1.738   1.031 -0.0666 -0.0371 -0.2087
 1569W        W20423  15.684  16.629   3.286  0.2209  0.0507  0.2452
 1570W        W20424  11.339  16.561  13.993  0.4335 -0.1116 -0.3212
 1571W        W20425   8.428  12.616  12.086  0.1779 -0.0326  0.2539
 1572W        W20426   1.978  18.323   3.724 -0.2957  0.0360  0.0210
 1573W        W20427  14.575   5.097   2.594  0.4200  0.1537  0.0094
 1574W        W20428   4.994  13.281   0.282  0.0995 -0.1953 -0.1461
 1575W        W20429  15.510   7.050  12.867 -0.3639  0.0958 -0.0888
 1576W        W20430  16.937  11.742  11.798 -0.0503 -0.0504  0.0116
 1577W        W20431   8.192  14.510  11.260  0.0652 -0.1702  0.1469
 1578W        W20432  18.079   8.951   2.202  0.2048  0.0493 -0.0106
 1579W        W20433  14.254  16.427  11.355  0.1637 -0.2810  0.0003
 1580W        W20434  16.584   2.861   2.958  0.2521 -0.0498 -0.0413
 1581W        W20435  14.564  18.300  12.905  0.1754 -0.4225  0.2053
 1582W        W20436  12.663  10.250  12.659 -0.4313 -0.3090  0.2221
 1583W        W20437   4.694  11.057   2.127 -0.0278 -0.0056 -0.1048
 1584W        W20438   3.120   7.247  10.668 -0.0180 -0.1521 -0.2280
 1585W        W20439  16.420  13.146  13.851  0.2516 -0.0443  0.0762
 1586W        W20440   8.717   1.126   0.114 -0.1255  0.0586 -0.0691
 1587W        W20441   5.590  11.097  14.126  0.1321  0.2810  0.1513
 1588W        W20442   4.674   2.770   0.425  0.1199  0.1672 -0.1086
 1589W        W20443   4.068  14.629   1.344 -0.0270  0.0317  0.1072
 1590W        W20444   4.027  11.509  10.579  0.4941 -0.0925  0.0172
 1591W        W20445   9.538   9.487   4.157 -0.1311 -0.1183 -0.0247
 1592W        W20446  18.777  14.633  13.919 -0.3984 -0.2019 -0.3143
 1593W        W20447  11.430   3.989   3.043  0.1373  0.2950  0.0756
 1594W        W20448   5.907  10.299  10.309 -0.3472  0.0755 -0.1665
 1595W        W20449  15.550  17.896   1.625  0.3046 -0.0727 -0.0138
 1596W        W20450  12.588   7.315  11.443  0.1997  0.0814  0.4255
 1597W        W20451  10.500   0.279  13.360  0.0250  0.0032 -0.3017
 1598W        W20452  12.867  14.782   3.121  0.0551 -0.1463 -0.0166
 1599W        W20453   2.773   6.100  13.976 -0.1216  0.1465  0.1745
 1600W        W20454   3.720  13.177  11.971 -0.4197  0.1283  0.0664
 1601W        W20455  17.988   1.890   0.978  0.0206 -0.1793  0.4234
 1602W        W20456  16.232   9.275  13.171 -0.1480  0.1946 -0.0236
 1603W        W20457  17.544  17.676   9.719 -0.2140 -0.3257 -0.0478
 1604W        W20458  10.812   4.515   3.240 -0.0672  0.0209  0.0991
 1605W        W20459   6.160  18.495  12.621 -0.1776  0.0065  0.0589
 1606W        W20460  16.267   8.677   0.850  0.3535  0.3940 -0.1080
 1607W        W20461   0.743   8.173   4.182  0.5091 -0.2031  0.1079
 1608W        W20462   4.467  13.845   3.566  0.0068  0.1134 -0.1438
 1609W        W20463  10.996   1.516   2.349  0.1955 -0.0342  0.3468
 1610W        W20464   6.067  17.864  13.351  0.0364  0.2252  0.0708
 1611W        W20465   7.778   1.852  11.728  0.2438  0.1509 -0.0830
 1612W        W20466   6.123  14.533  13.430  0.2882 -0.2132 -0.0755
 1613W        W20467   4.321   8.302   2.849  0.1136  0.1098  0.0292
 1614W        W20468   4.186  17.106  13.672  0.3953 -0.0080  0.2077
 1615W        W20469   4.658   6.890   4.389  0.1459 -0.0582 -0.3336
 1616W        W20470   4.542   6.704   3.487 -0.0734  0.1384  0.2689
 1617W        W20471  11.386   5.763  12.885 -0.1316 -0.1016 -0.1710
 1618W        W20472  18.207   9.040  13.029 -0.3811 -0.0626 -0.1841
 1619W        W20473   5.645   8.112  13.296 -0.2629  0.4732 -0.0158
 1620W        W20474   2.301   6.035   2.740 -0.4579 -0.0917  0.0718
 1621W        W20475  15.877  16.411   1.315  0.0698  0.1552 -0.1677
 1622W        W20476   4.780   0.231   1.870 -0.0485 -0.1322  0.0243
 1623W        W20477   4.179  15.402  13.669 -0.0685 -0.1303 -0.0781
 1624W        W20478  16.935   3.737  13.488 -0.0628  0.1995  0.0932
 1625W        W20479   2.559  18.672   4.095  0.1477  0.3503 -0.3304
 1626W        W20480  17.394  12.803   2.335  0.0374  0.0388  0.0325
 1627W        W20481  10.071  13.898  10.162 -0.4794 -0.4493 -0.3138
 1628W        W20482   6.371  13.955  11.714 -0.2348  0.4242 -0.0748
 1629W        W20483   8.719  12.372   4.052  0.0924 -0.2696 -0.2395
 1630W        W20484  16.598   8.498  13.243  0.3341 -0.3545  0.2264
 1631W        W20485   1.697   0.215  11.740  0.0737  0.3945  0.0529
 1632W        W20486   3.094  17.767   2.999 -0.0239  0.1804  0.1837
 1633W        W20487  17.288   1.405   3.214  0.2666  0.0965  0.1026
 1634W        W20488  18.152   6.392  13.886 -0.3470  0.2807 -0.0526
 1635W        W20489   6.377  12.585   1.067  0.1817 -0.2437 -0.0758
 1636W        W20490   7.165   8.707  14.449 -0.1831 -0.2944  0.1496
 1637W        W20491  13.629  11.177  10.663  0.0888 -0.1802  0.2870
 1638W        W20492   6.861   6.492   0.123 -0.0266 -0.4373 -0.2846
 1639W        W20493  14.016   1.004  11.912 -0.2281 -0.1844 -0.0048
 1640W        W20494  15.238  10.529  13.968 -0.2816  0.2254 -0.1160
 1641W        W20495  13.435  10.038  13.668  0.6237 -0.0555  0.1115
 1642W        W20496   4.769   6.034   1.117 -0.3609  0.0508  0.1120
 1643W        W20497   7.802  10.204   0.808  0.3373 -0.2301  0.1632
 1644W        W20498  16.030   9.370  12.135 -0.5086  0.0151  0.2959
 1645W        W20499   7.660  15.211   0.912 -0.1899 -0.3977 -0.0033
 1646W        W20500  13.914  11.265   0.788 -0.0248  0.0588 -0.0207
 1647W        W20501  13.092  11.858  13.420 -0.2303  0.0840  0.1389
 1648W        W20502  16.673   4.654   1.300  0.0740  0.2232  0.2148
 1649W        W20503   3.874   8.899   3.865  0.3048  0.2088 -0.0205
 1650W        W20504  18.936  13.788  14.373  0.1902  0.2155 -0.0351
 1651W        W20505  13.694   4.781   3.382  0.2438  0.2253 -0.0302
 1652W        W20506  14.264  11.425   3.396 -0.1405 -0.0327  0.0084
 1653W        W20507   5.582   7.249  13.143  0.1818 -0.2237  0.4184
 1654W        W20508   5.934   1.628  10.273 -0.1564 -0.1062 -0.0602
 1655W        W20509   0.499   8.920   3.041  0.0922  0.1369  0.0957
 1656W        W20510  13.427   5.738   3.251 -0.0769  0.2058  0.0176
 1657W        W20511  10.431  11.089   3.661  0.0020  0.0772  0.0025
 1658W        W20512   6.238   1.794   1.119 -0.0968  0.1050 -0.1270
 1659W        W20513   7.764   7.300  12.858 -0.0161  0.0369 -0.0281
 1660W        W20514   8.310   0.353  12.271  0.0892 -0.1634 -0.1298
 1661W        W20515   6.273  12.417   4.276 -0.4313  0.1133 -0.1110
 1662W        W20516   8.193  18.877   4.533  0.2135 -0.0271  0.3045
 1663W        W20517  16.792   4.098  10.889  0.5202  0.1778  0.0876
 1664W        W20518   1.274  13.179  11.590  0.1498 -0.2522 -0.0511
 1665W        W20519   3.990   9.063  13.195 -0.1208 -0.2989  0.0122
 1666W        W20520   4.615  14.246   5.477 -0.1497  0.0824  0.0241
 1667W        W20521  14.444  16.000  13.210 -0.3473 -0.0335 -0.0758
 1668W        W20522   9.042   7.404  11.106  0.1233 -0.1705 -0.0926
 1669W        W20523   2.501   6.070   3.825 -0.0868 -0.3223 -0.0041
 1670W        W20524   2.536   1.023   1.536 -0.1282 -0.0444  0.2360
 1671W        W20525  18.224   9.051  12.162  0.0611 -0.0260 -0.0334
 1672W        W20526  15.278   6.998   2.908  0.0079 -0.0177 -0.3103
 1673W        W20527   9.930   3.037  13.609 -0.2418  0.3165 -0.2410
 1674W        W20528   4.161  12.907  10.062  0.0193  0.4449 -0.1976
 1675W        W20529  10.669  13.765   3.274  0.0746 -0.2387  0.2475
 1676W        W20530   9.970   8.729   0.146 -0.3098  0.1305  0.0662
 1677W        W20531   7.232   8.067   1.064 -0.1919  0.1054  0.1815
 1678W        W20532   6.013   5.309  13.426 -0.1964 -0.1692 -0.1067
 1679W        W20533   0.365  10.272   2.108  0.3100 -0.1299 -0.2603
 1680W        W20534   3.277   4.632   0.625  0.2208 -0.1691 -0.3871
 1681W        W20535   5.033   3.803  11.985 -0.1286 -0.1766 -0.2278
 1682W        W20536   2.984  13.358  11.499 -0.0318 -0.1071  0.0548
 1683W        W20537   9.374   9.450   0.565  0.1530  0.0115 -0.1249
 1684W        W20538  16.223   0.684   4.402  0.1569 -0.1973 -0.1802
 1685W        W20539   9.824   5.686  13.334 -0.1024  0.1311 -0.2299
 1686W        W20540  14.047   3.965   2.317  0.1664  0.3704  0.1529
 1687W        W20541  12.906   2.799  14.179 -0.1350 -0.2567  0.0208
 1688W        W20542  12.181   5.689  10.767  0.2555 -0.2110 -0.0390
 1689W        W20543   4.296  17.166  14.185  0.2045  0.2607 -0.0548
 1690W        W20544   3.540   8.208  10.194  0.0401  0.0643  0.1569
 1691W        W20545  13.958   2.539   1.703  0.1698 -0.0075  0.0256
 1692W        W20546   1.843   6.802   1.539  0.2188 -0.5067  0.0869
 1693W        W20547  12.997   6.492   2.363  0.0190  0.1456  0.1195
 1694W        W20548  18.371   4.512   0.929 -0.0732  0.0326 -0.1891
 1695W        W20549  18.420  15.141  13.206 -0.3740  0.0474  0.1731
 1696W        W20550  13.921  12.110   0.787  0.2274  0.0973  0.1260
 1697W        W20551  18.485  18.624   2.593 -0.0710  0.1061 -0.1250
 1698W        W20552   2.562  18.274  13.709  0.0109 -0.1017  0.0663
 1699W        W20553  16.950  12.817  14.066  0.3543  0.0863  0.1744
 1700W        W20554   2.731  11.980   2.137 -0.1949  0.1101  0.0215
 1701W        W20555  12.695  12.571   0.607  0.1048 -0.2494  0.1927
 1702W        W20556   3.434   1.889  12.126  0.1125 -0.2878 -0.0764
 1703W        W20557   9.887  18.650   2.447 -0.2519 -0.0257 -0.1911
 1704W        W20558  17.710  18.830   2.312 -0.0811  0.0719  0.3795
 1705W        W20559   3.257  11.990   3.656  0.2969  0.0654 -0.0883
 1706W        W20560  12.512   3.155  11.865  0.0022 -0.0852 -0.1092
 1707W        W20561   7.630   5.966   0.708  0.1674 -0.1047  0.1660
 1708W        W20562   1.077  14.469   4.272  0.0893  0.1168  0.0490
 1709W        W20563  16.546  16.530   2.445 -0.0387 -0.0116 -0.0830
 1710W        W20564   8.091   5.924   3.571  0.2342  0.4179  0.0689
 1711W        W20565   3.841  12.005  11.020  0.3547 -0.1451 -0.3147
 1712W        W20566   1.668   0.265  14.477 -0.0545 -0.1903 -0.1324
 1713W        W20567  14.851  18.046  14.165 -0.0384 -0.1729  0.1601
 1714W        W20568  13.870   1.789   1.860  0.0360 -0.1896 -0.0344
 1715W        W20569   2.260   7.814  10.639  0.1458  0.0474 -0.0666
 1716W        W20570  14.572  16.186   0.484 -0.2928  0.1239  0.1618
 1717W        W20571   7.734   8.094  14.379 -0.0073  0.1290  0.3981
 1718W        W20572   4.146  15.673  14.157 -0.1402  0.4760 -0.0978
 1719W        W20573  12.809  17.311   1.505 -0.2576  0.1290 -0.1756
 1720W        W20574  18.785  19.010   0.863  0.1704  0.0562  0.0682
 1721W        W20575   4.991   4.322   2.985  0.1186 -0.3285  0.1027
 1722W        W20576   6.290   9.926  11.526 -0.1110  0.1613  0.2853
 1723W        W20577   6.964   6.450  10.866 -0.1749  0.0713  0.0486
 1724W        W20578   7.501  12.141  11.476  0.1525  0.0736 -0.2277
 1725W        W20579   8.260  12.345   1.700 -0.2811  0.3467 -0.0814
 1726W        W20580  17.046  10.307  10.920 -0.1318 -0.0235  0.0928
 1727W        W20581  13.316   1.213   3.534  0.0409 -0.0703  0.0894
 1728W        W20582   8.602   4.913   3.385  0.0413  0.0370  0.2105
 1729W        W20583  16.623  10.670   1.922  0.0819  0.2030 -0.0782
 1730W        W20584   2.161   3.031   1.864 -0.1399 -0.0666  0.0388
 1731W        W20585   5.252  11.515  10.692 -0.1076  0.1938  0.0145
 1732W        W20586  12.021   0.344  10.990  0.2088  0.0125  0.2821
 1733W        W20587   1.898  14.139   0.058  0.0197 -0.0198 -0.4225
 1734W        W20588   3.235  10.509   1.734  0.2543  0.2104 -0.0027
 1735W        W20589   0.609   5.327   2.814  0.1134  0.0382  0.0512
 1736W        W20590   4.702   2.538  13.448  0.0510 -0.0650  0.0799
 1737W        W20591  15.205   5.933  12.844  0.1961 -0.2300 -0.0428
 1738W        W20592  17.883  12.473  11.110  0.2015  0.0064  0.2688
 1739W        W20593   6.420   9.097   1.862  0.0725  0.2244  0.2902
 1740W        W20594   1.297  17.006  14.053 -0.0122 -0.0476  0.3705
 1741W        W20595   5.722  14.937  10.367 -0.0329  0.0163  0.0565
 1742W        W20596  13.455   3.093  10.661 -0.3678  0.0485  0.1733
 1743W        W20597   1.046  18.241   3.073  0.1358 -0.3104 -0.0788
 1744W        W20598   3.250  18.941   0.951  0.0039  0.1034 -0.2231
 1745W        W20599  18.780  16.645   0.674  0.0332 -0.2595  0.3460
 1746W        W20600  12.234   6.406   1.653  0.1139  0.2504  0.0759
 1747W        W20601   1.622   6.930  12.008 -0.0230  0.0601  0.0288
 1748W        W20602   7.363   0.498  12.835 -0.2716 -0.1449  0.1621
 1749W        W20603   8.163  12.212   4.933 -0.0632 -0.2980 -0.1329
 1750W        W20604   2.810   5.171   0.295 -0.0351  0.2097 -0.2082
 1751W        W20605  18.880  14.045  12.781 -0.1587 -0.2124 -0.0965
 1752W        W20606   4.940  13.820  14.659 -0.0179  0.3422  0.1701
 1753W        W20607  15.471  13.903  13.508 -0.1404 -0.3646  0.2252
 1754W        W20608  17.698   7.776   2.852  0.0070  0.4652  0.3324
 1755W        W20609   6.692   3.656   0.064 -0.3252 -0.2640  0.1651
 1756W        W20610   8.887  10.450  12.799  0.1342 -0.1225 -0.2402
 1757W        W20611   1.607   1.147  11.797 -0.1218  0.1029  0.3267
 1758W        W20612  17.908   5.850   0.918 -0.3138  0.2485 -0.2007
 1759W        W20613  11.697   6.087   4.582  0.0594  0.1900  0.1787
 1760W        W20614  10.269   8.471  11.538  0.2793 -0.2296 -0.1002
 1761W        W20615   1.767   6.061  10.728 -0.0783 -0.0890 -0.3300
 1762W        W20616  11.591  12.456   9.993  0.1089 -0.2015 -0.0527
 1763W        W20617  14.328  15.616   3.377 -0.1474  0.0099  0.0785
 1764W        W20618  17.079   1.597   1.501  0.0968  0.1991 -0.1066
 1765W        W20619   8.750   2.888  11.982 -0.2467 -0.0931 -0.3165
 1766W        W20620  17.844  13.438   1.768 -0.3076 -0.2304 -0.2384
 1767W        W20621  14.518  16.401   4.072  0.1827 -0.0598  0.1087
 1768W        W20622  11.899   0.388  13.103 -0.0253  0.0042 -0.1346
 1769W        W20623   9.529  16.827  12.810 -0.0437 -0.1514 -0.0269
 1770W        W20624   9.557  10.442   2.574 -0.0855  0.4071  0.0343
 1771W        W20625   3.521  12.171   9.740 -0.2503  0.0180  0.0681
 1772W        W20626  18.580  16.893  10.900  0.0134  0.1513  0.1903
 1773W        W20627  11.668   0.316   0.469 -0.1047 -0.1217 -0.2723
 1774W        W20628  11.163   4.706  13.726 -0.3380  0.1775 -0.0429
 1775W        W20629  12.653   8.369  14.579 -0.0999 -0.1741 -0.4066
 1776W        W20630  12.659   3.761   2.431  0.3757  0.0893  0.0669
 1777W        W20631  12.531   2.158  11.522  0.0988  0.0414 -0.1876
 1778W        W20632   4.969   9.559   0.965 -0.0776 -0.2876 -0.3092
 1779W        W20633   5.831   1.004  11.272 -0.1005  0.0754  0.1833
 1780W        W20634  18.372  15.868   2.347  0.4131  0.0334  0.1387
 1781W        W20635   2.932  13.803  11.912  0.2161  0.1097  0.2686
 1782W        W20636   7.353  19.126   2.686 -0.0699  0.2119  0.1235
 1783W        W20637  12.675   0.112   3.102 -0.3353  0.3309  0.1766
 1784W        W20638   9.290   8.120  10.117  0.0784  0.2281 -0.2085
 1785W        W20639   9.714  14.895   9.993  0.0925 -0.2552  0.2558
 1786W        W20640   2.255   6.936  11.794  0.1108 -0.0239 -0.2846
 1787W        W20641   7.945  10.854  14.437  0.0280 -0.1093 -0.2476
 1788W        W20642   9.317   1.030   1.648 -0.0280  0.1055  0.0070
 1789W        W20643   7.509   6.558   5.133 -0.1649  0.0832  0.0116
 1790W        W20644  12.912   0.602   2.829  0.0067 -0.0543 -0.1347
 1791W        W20645  14.161  17.390   4.569 -0.1026 -0.2395 -0.0613
 1792W        W20646   7.677   0.430  10.824 -0.3035  0.0507 -0.0045
 1793W        W20647   2.859   0.460  11.971 -0.0103  0.1649 -0.1552
 1794W        W20648   5.825   4.087  12.955  0.0268  0.1870 -0.1739
 1795W        W20649   1.105   9.427  12.232  0.1008 -0.0376 -0.0437
 1796W        W20650   0.570  14.185   2.781 -0.1265 -0.1796 -0.1689
 1797W        W20651  17.191  15.579   4.947 -0.1101 -0.2097 -0.3251
 1798W        W20652  14.795   7.215   9.918 -0.1645 -0.0619  0.0935
 1799W        W20653   5.555   5.726   2.857  0.1894  0.1961  0.4813
 1800W        W20654   1.993   7.099   3.267  0.0049  0.1820 -0.2403
 1801W        W20655  13.204   2.085  13.587 -0.2436  0.0811  0.2144
 1802W        W20656  15.726   4.668  13.952  0.0541  0.2386 -0.1641
 1803W        W20657   9.464   9.397  14.293  0.0806 -0.0105 -0.4369
 1804W        W20658  18.497  18.177  13.534 -0.0740 -0.2131 -0.0781
 1805W        W20659   4.282  15.085   0.295 -0.1208  0.3654 -0.2406
 1806W        W20660   2.009   7.987   0.366  0.0282  0.1177  0.0008
 1807W        W20661  13.955  17.186   2.565 -0.0625 -0.2569 -0.0109
 1808W        W20662   8.323  17.927   3.731 -0.2334  0.1806  0.1348
 1809W        W20663   5.852   6.598   2.371 -0.0223  0.0888 -0.4032
 1810W        W20664   8.580  12.108  13.966  0.0372 -0.0988 -0.0599
 1811W        W20665  15.226   7.957  11.119 -0.0444  0.0975 -0.1194
 1812W        W20666   4.599   7.309   3.386  0.5192 -0.3203  0.1062
 1813W        W20667   3.540   8.366  13.448 -0.0383  0.1493 -0.2555
 1814W        W20668   7.045   1.416  10.685  0.3008  0.0651  0.0280
 1815W        W20669  13.059   7.742  12.516  0.0278 -0.1182  0.0506
 1816W        W20670   4.765   7.521   0.128  0.0160 -0.1252 -0.0416
 1817W        W20671   1.445  14.023   0.247  0.0017 -0.1454 -0.2555
 1818W        W20672   0.296   2.272  11.737 -0.4357  0.0703  0.0902
 1819W        W20673   2.428   6.131   1.863  0.2544 -0.2556  0.3712
 1820W        W20674  15.974   0.983   0.042 -0.2098 -0.0073 -0.2051
 1821W        W20675  15.856  14.536   1.556  0.2647  0.3811  0.0791
 1822W        W20676  14.767   7.507  12.042 -0.0112 -0.0647  0.0925
 1823W        W20677  10.487  14.465  12.869 -0.1328  0.1360 -0.2060
 1824W        W20678  14.434  10.211   2.366 -0.2469 -0.0555 -0.2041
 1825W        W20679   8.815  12.857   4.769 -0.0583  0.3794  0.0371
 1826W        W20680   5.870  16.881   3.775  0.0814 -0.0427  0.3127
 1827W        W20681   1.970   2.229   0.071  0.0224 -0.0586 -0.1047
 1828W        W20682   7.193  12.576  12.654 -0.0180 -0.1239 -0.3059
 1829W        W20683  14.237   1.579   0.980  0.0314 -0.3488  0.0601
 1830W        W20684  12.480  11.598  14.289 -0.1510 -0.1368 -0.3899
 1831W        W20685   5.259   7.455  14.682  0.1095  0.0467  0.1492
 1832W        W20686  17.283   7.819   4.087  0.0144  0.1049 -0.0497
 1833W        W20687  16.175   0.086   2.247  0.3037  0.2222 -0.3930
 1834W        W20688  15.563  13.169   1.883 -0.2304  0.1215 -0.2107
 1835W        W20689  17.209   0.863   0.292 -0.2117  0.1847 -0.1273
 1836W        W20690   1.755   2.006  11.895  0.0547  0.0204 -0.4205
 1837W        W20691  12.244  10.421   1.788  0.0398 -0.0418 -0.0352
 1838W        W20692   1.081   3.161  13.276  0.0655 -0.3944 -0.0675
 1839W        W20693  12.340  18.881   1.392  0.0856  0.0116  0.2550
 1840W        W20694  16.995   8.007  10.262  0.0647 -0.0007  0.1779
 1841W        W20695   0.528  16.345  11.775  0.1644 -0.3258 -0.0090
 1842W        W20696   3.166  15.848   0.505 -0.0756  0.1077 -0.1037
 1843W        W20697   0.619  13.152  13.913  0.1234  0.2971 -0.1500
 1844W        W20698   8.682   7.125   2.983 -0.3942 -0.0489 -0.1763
 1845W        W20699  10.686  10.942   3.240  0.0299  0.0443 -0.2460
 1846W        W20700  12.814   0.981   5.086  0.1585  0.1250 -0.2189
 1847W        W20701  14.838  18.649   2.790  0.1863 -0.1872 -0.2530
 1848W        W20702  17.028   0.412  10.613  0.2207  0.0564  0.2425
 1849W        W20703  17.538  12.570   1.416  0.0687  0.0603  0.0328
 1850W        W20704   8.990  15.326   3.712 -0.0239  0.0599 -0.2476
 1851W        W20705  11.254  16.735  11.208 -0.1278 -0.0033 -0.1257
 1852W        W20706   7.494  13.806  14.256 -0.0955  0.0770  0.1530
 1853W        W20707   3.533   2.472   3.114  0.1002  0.3103  0.1150
 1854W        W20708  15.500   7.516  11.075  0.3092  0.1257  0.1002
 1855W        W20709   5.094  15.848   4.118  0.1856 -0.0753  0.3152
 1856W        W20710  13.596   8.456   2.810 -0.0235  0.0688  0.0249
 1857W        W20711   6.582  17.075   4.409  0.0190 -0.0805  0.0168
 1858W        W20712  14.532   1.748   2.470 -0.2063 -0.0224  0.0328
 1859W        W20713  10.846  10.275  12.219  0.2428  0.1118  0.0225
 1860W        W20714   8.810  12.007  12.752  0.4874  0.3330  0.0943
 1861W        W20715  14.040  18.768   3.169 -0.1531 -0.1832 -0.2265
 1862W        W20716  11.863   8.217   3.458  0.1239 -0.0208 -0.1012
 1863W        W20717  12.918   4.047   3.244 -0.0378 -0.0652 -0.2008
 1864W        W20718  14.556  11.171   1.225  0.0698 -0.0805  0.0583
 1865W        W20719  12.429   7.352   1.484  0.1850  0.2155  0.1986
 1866W        W20720  15.159   4.024   4.808  0.2933  0.3328  0.2353
 1867W        W20721   3.232   5.767   1.368  0.1888 -0.2542  0.0304
 1868W        W20722   8.270  10.811   1.605 -0.0239  0.3288 -0.2860
 1869W        W20723   5.969   4.142  11.983 -0.0602  0.2214  0.6363
 1870W        W20724   6.417   3.508   1.117  0.0228  0.0250 -0.0610
 1871W        W20725   7.767  14.465   2.466 -0.0622  0.0197 -0.1449
 1872W        W20726  13.788   1.143  13.605  0.0188  0.3602  0.3301
 1873W        W20727  17.324  14.003  10.677  0.2429 -0.0803 -0.1920
 1874W        W20728  17.535  11.120   9.978 -0.2219 -0.2635 -0.3146
 1875W        W20729   9.189  10.709   2.267  0.2368 -0.0832 -0.0357
 1876W        W20730  17.159   0.299   2.279  0.1021  0.1495  0.1424
 1877W        W20731   4.726  18.811   0.464 -0.1473  0.0181 -0.3108
 1878W        W20732   0.568  18.381  14.519 -0.0970 -0.0419  0.0273
 1879W        W20733   5.632  18.127   3.746  0.3867  0.0980  0.0626
 1880W        W20734   0.528   0.496   4.138  0.1007  0.0031  0.0551
 1881W        W20735   6.794  11.020   3.500  0.0225 -0.1925 -0.2281
 1882W        W20736  13.012   8.226  12.673  0.1439  0.0757 -0.1138
 1883W        W20737   3.509   1.146  13.895  0.3564 -0.2352 -0.2217
 1884W        W20738   3.955   4.847   1.274  0.1394 -0.2210  0.1190
 1885W        W20739   0.627  18.637   0.542 -0.1548  0.1730  0.0807
 1886W        W20740   2.325   8.871  12.496 -0.1390  0.2164 -0.0870
 1887W        W20741   5.321   7.435   5.129 -0.2469 -0.2749 -0.1557
 1888W        W20742   5.945  16.445   0.402 -0.0762  0.0492 -0.0428
 1889W        W20743  17.847   8.686   2.587  0.0991  0.1423  0.0942
 1890W        W20744  14.212  14.006  11.151  0.2748 -0.0352  0.3891
 1891W        W20745  14.746  14.631  13.480  0.0350  0.1069 -0.1175
 1892W        W20746  17.950   8.847   0.813  0.0976 -0.3383  0.0268
 1893W        W20747   9.087   5.340   0.875  0.1926  0.0187 -0.2702
 1894W        W20748   0.821  10.490   1.859  0.3003 -0.1169 -0.1940
 1895W        W20749   8.577  12.734   0.293 -0.0065  0.1516  0.1435
 1896W        W20750   8.432  17.690  14.610  0.1288 -0.0746  0.0844
 1897W        W20751   7.843   4.557   2.241  0.0516 -0.1618 -0.0739
 1898W        W20752  14.227  14.649  12.200 -0.2137  0.2212  0.0812
 1899W        W20753  12.317  13.848  13.872  0.1230  0.1477 -0.1103
 1900W        W20754   7.033   5.520   1.483 -0.2681  0.0548  0.3478
 1901W        W20755   4.992   6.546   2.879 -0.0224  0.0327 -0.0855
 1902W        W20756  17.174  10.974   2.127 -0.0719  0.0165 -0.0093
 1903W        W20757   3.350  18.358   0.579 -0.1328 -0.5741 -0.2519
 1904W        W20758   9.305  12.884  13.881  0.2863 -0.4516  0.2689
 1905W        W20759   8.157  11.307   2.315 -0.1854  0.1016 -0.1545
 1906W        W20760  17.591  12.854   0.491 -0.1474 -0.0965 -0.1765
 1907W        W20761  18.954  11.953  10.992 -0.3107 -0.1956 -0.0818
 1908W        W20762  14.025   7.784  13.560 -0.0742  0.0382  0.2984
 1909W        W20763   2.084  19.194  14.491  0.0243  0.0961  0.3486
 1910W        W20764  18.030   0.597  11.739  0.0034  0.2471 -0.0646
 1911W        W20765   4.128  19.145  13.712  0.0539  0.1035  0.0575
 1912W        W20766   1.319  12.804   0.011  0.0238 -0.1523 -0.1994
 1913W        W20767   8.790  14.548   4.229  0.1357 -0.1825  0.2718
 1914W        W20768  16.060  13.275   2.905 -0.0163 -0.2780  0.0355
 1915W        W20769   2.957  17.608  14.381  0.0794 -0.0686 -0.0790
 1916W        W20770  16.757  13.539  14.061 -0.1561  0.1120  0.0079
 1917W        W20771  13.591  12.124   3.125 -0.1923 -0.1065 -0.1699
 1918W        W20772   2.355  13.606   1.868  0.2285  0.1380 -0.0527
 1919W        W20773  13.888  15.284  10.445 -0.2938  0.3908  0.0083
 1920W        W20774   4.942   6.919   3.233 -0.0280 -0.2758  0.0547
 1921W        W20775   7.259   6.419  11.930 -0.0979  0.1787  0.1324
 1922W        W20776   6.709   2.272  12.741 -0.1523 -0.0779 -0.1661
 1923W        W20777  17.027   7.105  13.079 -0.1195  0.0494 -0.0209
 1924W        W20778   0.675  11.837   2.355  0.0362  0.0104 -0.3134
 1925W        W20779   6.313  13.166   0.403 -0.0345  0.2435 -0.1414
 1926W        W20780   7.198   6.257  14.458  0.0022 -0.0951 -0.0900
 1927W        W20781   6.757  15.560   0.808 -0.1117 -0.0233 -0.3757
 1928W        W20782   2.606  11.649   1.629  0.1022 -0.3152 -0.0916
 1929W        W20783  11.990  15.311  13.612  0.0582  0.0269 -0.0490
 1930W        W20784  10.285   7.001   2.892 -0.0924  0.3118  0.3133
 1931W        W20785  18.422   0.011   3.618  0.1321 -0.0479  0.2500
 1932W        W20786  16.884  18.801   1.819 -0.0996  0.0735 -0.0708
 1933W        W20787  15.404  16.013  12.971 -0.2265  0.1560  0.1526
 1934W        W20788  13.212  12.693   0.659 -0.1643  0.2109 -0.2843
 1935W        W20789  12.597  17.973   4.207  0.0431 -0.0824 -0.0257
 1936W        W20790   5.041  17.295   2.660  0.2267 -0.4030  0.2204
 1937W        W20791  13.317  14.027   0.381 -0.2072  0.0454 -0.1384
 1938W        W20792   6.983  15.711   4.099  0.0568  0.1366 -0.1934
 1939W        W20793  18.609   9.267  14.071  0.0373 -0.0922 -0.1199
 1940W        W20794   5.787   6.107   3.527  0.3217  0.1334  0.2292
 1941W        W20795   8.537   3.218   3.019 -0.4191  0.1464  0.1286
 1942W        W20796  17.059   3.313  12.423 -0.1552 -0.1688 -0.0411
 1943W        W20797  10.060  14.022  11.790  0.1393 -0.0735 -0.1488
 1944W        W20798  17.561   6.923   1.801  0.2604  0.4632 -0.0642
 1945W        W20799  12.655  10.953   2.230 -0.0524 -0.1971 -0.1722
 1946W        W20800  11.708   5.125  12.219  0.0951 -0.0464 -0.1370
 1947W        W20801  13.676   7.763  14.417  0.0525 -0.2683 -0.0181
 1948W        W20802  11.877   2.237   4.211  0.0578 -0.4932  0.3739
 1949W        W20803   5.709   1.071  13.506 -0.1862  0.0531  0.2090
 1950W        W20804   0.639  14.116  11.317  0.0451 -0.2540 -0.1216
 1951W        W20805   3.361  16.780   1.726  0.1494 -0.2513  0.0541
 1952W        W20806   2.786  17.777  11.849 -0.0336  0.1217  0.3170
 1953W        W20807   9.746  17.624   2.551 -0.1481  0.0900 -0.2268
 1954W        W20808   3.542  13.757  12.928 -0.1765 -0.3277 -0.1170
 1955W        W20809   3.598  15.689   3.664 -0.2374 -0.2655 -0.2278
 1956W        W20810   4.661  15.599  14.000 -0.1691  0.0069 -0.1209
 1957W        W20811   2.291   8.066  13.769  0.0663  0.0198 -0.1498
 1958W        W20812  11.659   7.405  13.545 -0.1961 -0.1550 -0.0623
 1959W        W20813   8.717   9.993   2.687  0.1883  0.0080  0.0332
 1960W        W20814   7.291  13.347  14.433  0.2676  0.0837 -0.3395
 1961W        W20815  13.391  14.890   1.194 -0.0256 -0.1300  0.1486
 1962W        W20816   7.784  10.283   1.775  0.1798  0.0969  0.0014
 1963W        W20817  17.532  11.183  11.682  0.0075 -0.0083 -0.2186
 1964W        W20818   3.035  18.868   0.107  0.1955  0.0864  0.1250
 1965W        W20819   9.037  15.033   0.020  0.0011  0.2210 -0.1168
 1966W        W20820  18.133   4.026   3.995  0.2873  0.2158 -0.4699
 1967W        W20821   6.890   1.299  12.716  0.2007  0.1462 -0.1050
 1968W        W20822  18.893  11.597   0.055  0.0813  0.3439 -0.0641
 1969W        W20823   8.658  11.410   2.957  0.0831  0.0175  0.2137
 1970W        W20824   9.595   8.687  13.670 -0.1141  0.4096  0.1251
 1971W        W20825  16.086   8.552  13.888 -0.0582  0.1845 -0.2502
 1972W        W20826   3.514   7.189  11.809 -0.0292  0.0001  0.2989
 1973W        W20827   7.415   5.878   1.544  0.3462  0.4018  0.1910
 1974W        W20828   5.499   6.663  14.432  0.1920  0.0659 -0.1723
 1975W        W20829   6.628  12.960  11.868  0.2672 -0.4270 -0.0329
 1976W        W20830   6.286   9.503  12.888 -0.0928 -0.2694 -0.0380
 1977W        W20831  14.111   1.491  12.814  0.3462  0.0343  0.4733
 1978W        W20832   7.681  12.608  11.445  0.0852 -0.1276 -0.0889
 1979W        W20833   4.981  11.768   1.730  0.2198  0.1188  0.2557
 1980W        W20834   8.905   1.582   0.378  0.3959 -0.0868 -0.0050
 1981W        W20835  13.520   0.437  10.719 -0.2105  0.0256 -0.2183
 1982W        W20836   2.217  17.709  11.747  0.0758 -0.2479  0.4116
 1983W        W20837   4.100   0.461   3.341 -0.1720 -0.0228 -0.0306
 1984W        W20838   9.697  18.090   2.246  0.2977  0.0418  0.0555
 1985W        W20839   2.408  11.528   3.795  0.0179  0.2050  0.2361
 1986W        W20840  17.395  13.841   4.828 -0.0756  0.0693  0.0786
 1987W        W20841   0.440   4.300   9.545  0.2133 -0.2971 -0.0208
 1988W        W20842   5.753  16.093   0.057 -0.0001 -0.0686 -0.3492
 1989W        W20843   8.553   7.874   3.043  0.1840  0.0967 -0.1191
 1990W        W20844   0.116  10.177  13.258 -0.1373  0.0231 -0.5188
 1991W        W20845   3.627  18.577   1.300  0.1784 -0.0160  0.1724
 1992W        W20846   5.796   7.724  11.585 -0.1420  0.5020 -0.2940
 1993W        W20847   9.387  14.857  14.413 -0.1988  0.0436  0.2715
 1994W        W20848  10.565  14.252  12.070 -0.3551  0.2639  0.0397
 1995W        W20849  15.101   0.650  12.418 -0.5062  0.0449 -0.2760
 1996W        W20850   3.323   9.575  11.579  0.1948 -0.0036 -0.1108
 1997W        W20851  17.471  13.537   4.171 -0.0803 -0.0453 -0.0767
 1998W        W20852  11.852   0.558   3.009 -0.1255  0.0732 -0.4172
 1999W        W20853  11.999  16.180  14.108  0.2468 -0.0364 -0.0174
 2000W        W20854  17.742  13.007   4.221  0.0409 -0.2555  0.0388
 2001W        W20855   2.675   1.287  13.294  0.1695 -0.3418 -0.2226
 2002W        W20856   8.993   1.462  13.089  0.1293  0.2138  0.0894
 2003W        W20857   7.903  14.394  11.603 -0.0547  0.2415  0.0768
 2004W        W20858  16.134   5.820   0.968 -0.0843 -0.4509 -0.1411
 2005W        W20859  15.364  15.427   3.650  0.2140  0.1883 -0.2633
 2006W        W20860  10.517  14.444  13.956  0.4863 -0.1262  0.0130
 2007W        W20861   8.511   5.517  11.364 -0.0678 -0.0014 -0.2829
 2008W        W20862  19.058  16.426   3.359 -0.0222 -0.1935 -0.1703
 2009W        W20863   2.630   7.907  14.182 -0.2014  0.0963  0.1894
 2010W        W20864   6.581   5.234  12.798 -0.0339  0.3237 -0.1656
 2011W        W20865   0.044   2.261   1.295 -0.3475 -0.2163 -0.1615
 2012W        W20866   8.418  12.881  14.050 -0.2546  0.0050 -0.0297
 2013W        W20867   7.105  18.814   0.225 -0.2259  0.1267 -0.1361
 2014W        W20868  16.045   6.664  11.942  0.0764  0.1508 -0.1734
 2015W        W20869  18.835  11.623  11.872  0.2605  0.0481 -0.0341
 2016W        W20870  12.956  17.142  11.470 -0.0843 -0.0939  0.0746
 2017W        W20871  17.247  15.764   0.238  0.2151 -0.1600  0.0949
 2018W        W20872   3.257  14.733  10.638  0.2140 -0.2047  0.1285
 2019W        W20873   7.083   1.812   2.307 -0.3053 -0.1359  0.2186
 2020W        W20874   7.924  13.082  11.469 -0.1851  0.0217 -0.0197
 2021W        W20875  11.117  10.915  13.004 -0.1089 -0.2186  0.1963
 2022W        W20876   0.551   3.551   0.458  0.0960  0.1069 -0.2036
 2023W        W20877  18.190   8.882  13.540 -0.3000  0.2286 -0.0530
 2024W        W20878   3.776   5.061  13.963  0.1936  0.2310  0.1530
 2025W        W20879  17.335  16.107  12.001 -0.1108 -0.2064  0.2498
 2026W        W20880  13.739  10.850  14.052  0.0638  0.0452 -0.0510
 2027W        W20881  17.753   2.456  13.939  0.0235  0.0073  0.1639
 2028W        W20882   4.020  13.621   1.009 -0.1544 -0.3133 -0.2002
 2029W        W20883  13.474   2.052   3.984 -0.0650  0.1173 -0.1281
 2030W        W20884   8.096  16.021   2.029 -0.3099  0.0874 -0.1632
 2031W        W20885   8.686  17.548   3.608 -0.0977 -0.0466  0.2604
 2032W        W20886   1.029  17.299  11.007  0.1257  0.1599  0.4458
 2033W        W20887   9.089  14.909   3.207 -0.0111  0.1683  0.2663
 2034W        W20888  10.698   1.590  14.105 -0.0890 -0.0208 -0.0644
 2035W        W20889  14.268   6.017   1.810 -0.0176 -0.0610 -0.3822
 2036W        W20890  15.029   6.616   2.169  0.0888 -0.0115 -0.1092
 2037W        W20891   2.012   9.361   1.495  0.2137  0.0565  0.0481
 2038W        W20892  18.397  10.013   5.249  0.1034  0.0787 -0.1929
 2039W        W20893  13.955  16.972   0.892  0.1089 -0.2123  0.0289
 2040W        W20894  15.243  12.777  14.273  0.0597  0.2854 -0.0278
 2041W        W20895   7.815   8.556   2.178  0.2854 -0.3594  0.0179
 2042W        W20896  13.143   6.388  10.587  0.4191 -0.3409  0.1566
 2043W        W20897  10.941  13.511   3.824 -0.1683 -0.2381  0.0316
 2044W        W20898   8.653  12.563  14.475 -0.0652  0.1593 -0.2672
 2045W        W20899   8.843   1.864   1.768 -0.0606 -0.1791 -0.2084
 2046W        W20900   5.728  11.134  13.658 -0.0012  0.1280 -0.0553
 2047W        W20901   7.901  13.572  12.591  0.0378  0.0086 -0.0325
 2048W        W20902  11.540   2.658   4.326 -0.0391  0.0403  0.1308
 2049W        W20903   6.224   3.867  12.783 -0.1626  0.1429 -0.2521
 2050W        W20904   6.595   2.733  12.328  0.0190 -0.0800 -0.0680
 2051W        W20905   0.323  12.549   0.112  0.0940  0.0570 -0.4400
 2052W        W20906  14.614   7.564  13.840 -0.1878  0.1345  0.1789
 2053W        W20907   5.089  14.819   4.304 -0.0133 -0.0033 -0.1586
 2054W        W20908  10.429  18.344   1.148  0.1344 -0.3129 -0.0041
 2055W        W20909   0.688  14.211  12.313 -0.3348  0.0042 -0.0675
 2056W        W20910   2.357  13.554   2.826  0.0901  0.0745  0.1697
 2057W        W20911   9.330  16.912   2.961 -0.2919  0.0241 -0.0448
 2058W        W20912  11.518   0.438   2.107  0.2280 -0.1370  0.1932
 2059W        W20913   8.894  18.873  10.173 -0.2908  0.0006 -0.5503
 2060W        W20914  13.970   8.217  11.071  0.1885  0.0643  0.1985
 2061W        W20915   7.362   1.691   3.817 -0.2466 -0.2352  0.1320
 2062W        W20916   9.050  13.541   1.827 -0.1900 -0.1446  0.2404
 2063W        W20917   4.710   7.183  12.322 -0.1132  0.1407  0.3459
 2064W        W20918   1.376   1.138   1.457 -0.0078 -0.1437  0.1355
 2065W        W20919   3.267   4.760   1.586  0.1431  0.0601  0.1439
 2066W        W20920   7.578   3.650  14.452 -0.1796 -0.1336 -0.1112
 2067W        W20921   2.857   1.423   1.709 -0.0075 -0.0859 -0.0142
 2068W        W20922  10.211  13.044   3.445  0.1713  0.0581  0.1408
 2069W        W20923   1.830   1.227   1.904  0.1062 -0.0872 -0.0340
 2070W        W20924   6.412  17.508  11.894  0.2847  0.3017 -0.2011
 2071W        W20925  13.507   3.965   1.576  0.1665 -0.0050 -0.1346
 2072W        W20926   1.041   4.444  11.289 -0.1486  0.0049 -0.0880
 2073W        W20927   4.720   7.262  11.301 -0.1313  0.3077 -0.3026
 2074W        W20928   0.393  16.436   4.430  0.2195 -0.2488 -0.0182
 2075W        W20929   3.802  10.186   3.104  0.0623  0.1910 -0.1263
 2076W        W20930   0.940   5.167  12.945  0.1947 -0.4029 -0.1824
 2077W        W20931   8.274  13.333  13.734  0.1998  0.0968  0.0022
 2078W        W20932   2.015   0.822  12.743 -0.1737  0.0892  0.1819
 2079W        W20933  18.113   3.994   3.094  0.2738  0.0950 -0.1558
 2080W        W20934  11.421  11.374   2.982 -0.0804  0.1009 -0.1195
 2081W        W20935   8.182   0.698   5.278 -0.0068 -0.0412 -0.0754
 2082W        W20936   0.890   0.497   2.497 -0.2443 -0.0611  0.0319
 2083W        W20937  11.129   4.855  14.228 -0.1673 -0.3121  0.1913
 2084W        W20938   1.907  10.215  11.563 -0.0138  0.2313  0.0494
 2085W        W20939   1.755   6.527   3.845  0.3791  0.1105 -0.0108
 2086W        W20940  14.326   8.374   2.863 -0.2616  0.2939  0.1723
 2087W        W20941  18.653  16.114  11.854 -0.0671  0.3171  0.1900
 2088W        W20942   5.362   0.899   3.470 -0.3488  0.1538  0.1215
 2089W        W20943   9.972   2.571  12.218  0.0395 -0.1107 -0.1313
 2090W        W20944   8.671   9.778  12.984  0.1014 -0.2883  0.0068
 2091W        W20945   0.043  16.385   4.036  0.2093  0.1325 -0.0538
 2092W        W20946  15.692  15.297  13.436  0.1073 -0.2081 -0.1252
 2093W        W20947  13.446   2.925  11.972 -0.1349  0.3294 -0.3335
 2094W        W20948   9.625   8.104  11.008 -0.0194 -0.1448  0.0270
 2095W        W20949   3.236  10.924  12.764  0.0269 -0.1802  0.2170
 2096W        W20950   5.271   4.051   2.112  0.0095 -0.1473 -0.0812
 2097W        W20951   6.497   5.123  14.175 -0.1250  0.1130  0.0909
 2098W        W20952  13.284  17.788   0.097 -0.2025 -0.2297 -0.1646
 2099W        W20953  18.927   8.900  10.923 -0.1076  0.2160 -0.0225
 2100W        W20954  11.843   7.241  10.193  0.1203 -0.1227 -0.0019
 2101W        W20955   6.308   4.244  14.103 -0.0984  0.0472  0.1120
 2102W        W20956  18.365  16.815  12.569  0.2299  0.1110 -0.1985
 2103W        W20957   4.503   5.286  10.840 -0.1431 -0.1814  0.0658
 2104W        W20958   0.942   9.397  11.224  0.1790  0.0193  0.1322
 2105W        W20959   4.137   0.048   3.074 -0.0432 -0.0490  0.2638
 2106W        W20960  15.810   9.432   0.851  0.0449 -0.0999  0.3880
 2107W        W20961   8.114  14.706  14.603  0.0104  0.3270 -0.0614
 2108W        W20962   1.257  10.907  14.512  0.2098  0.2063  0.2022
 2109W        W20963  13.442   5.387  11.654 -0.2211  0.0351  0.1844
 2110W        W20964  15.947  14.910   2.836  0.1262  0.3203  0.1575
 2111W        W20965  13.203   2.426   2.639 -0.1362 -0.1767  0.2845
 2112W        W20966   2.415  16.313  12.821 -0.0322 -0.0950 -0.1362
 2113W        W20967  11.280   9.082   3.329  0.0307 -0.0950  0.1079
 2114W        W20968  18.273  15.041  11.162 -0.0043 -0.1087  0.1828
 2115W        W20969   0.723   2.629  13.261 -0.2701  0.0340 -0.0200
 2116W        W20970  11.250  16.464   1.014  0.2928 -0.0704  0.1737
 2117W        W20971   4.480   4.076   4.257  0.0657  0.2358 -0.1530
 2118W        W20972   3.123  18.676  13.025  0.0687  0.0368  0.0024
 2119W        W20973  10.348   4.855   2.638  0.0773  0.0014 -0.2619
 2120W        W20974  13.819   7.927   1.758 -0.0724 -0.2355  0.1846
 2121W        W20975  19.022   0.359   1.606 -0.0676  0.1036 -0.1718
 2122W        W20976  10.520   0.536  11.378  0.1337  0.1075  0.0360
 2123W        W20977  11.754   7.091   1.280 -0.1844 -0.3820 -0.2452
 2124W        W20978  13.966   4.958   0.094 -0.1540  0.0218 -0.2005
 2125W        W20979   3.946   8.725   2.545 -0.0138  0.2365  0.2901
 2126W        W20980   8.317   3.872   1.601  0.2809  0.1046 -0.0866
 2127W        W20981  17.362   6.652  11.107 -0.0767 -0.1076  0.2596
 2128W        W20982  12.753  15.498  14.269  0.1246 -0.2504  0.1359
 2129W        W20983   1.629   2.675  11.059 -0.3130  0.1582 -0.3372
 2130W        W20984  14.767   7.135  14.692 -0.0568  0.0958  0.0441
 2131W        W20985  13.357   1.402  10.762  0.1446  0.4078 -0.0711
 2132W        W20986  16.586  13.467  13.028  0.0806 -0.0475 -0.0198
 2133W        W20987  12.080   2.774   2.617 -0.3226  0.1823 -0.0094
 2134W        W20988  10.095   5.520   2.552 -0.2646 -0.2730  0.2146
 2135W        W20989   1.650  13.299   0.700 -0.3279 -0.1535  0.0690
 2136W        W20990   3.420  14.282  13.859  0.0748  0.0439  0.3729
 2137W        W20991  14.140   2.232   2.797  0.4681 -0.3040  0.4178
 2138W        W20992  18.261   1.992  13.518 -0.0009 -0.1410  0.0908
 2139W        W20993   5.494  15.765  13.462 -0.0086  0.0088  0.1097
 2140W        W20994  13.916   1.999   0.964 -0.0880 -0.0315 -0.1763
 2141W        W20995   3.114  15.490   3.553  0.0451  0.1588  0.0790
 2142W        W20996  18.693   3.218   0.583 -0.0509 -0.1077  0.1418
 2143W        W20997  12.172   8.382  14.356  0.0595  0.3559  0.3039
 2144W        W20998   4.083   5.556   4.162 -0.2538  0.1099 -0.0956
 2145W        W20999  16.841   3.804  12.739  0.0652  0.2058 -0.1382
 2146W        W21000   3.775  16.933   2.455 -0.2402  0.0748  0.1516
 2147W        W21001   1.411   9.488   3.922  0.3180  0.3120  0.1663
 2148W        W21002  14.383  15.587  11.617  0.2086 -0.0897  0.1230
 2149W        W21003  16.132  14.638  11.973  0.0053  0.0337  0.0058
 2150W        W21004  16.882  13.105   1.642 -0.0749 -0.1040 -0.2363
 2151W        W21005  15.442   3.987   4.451 -0.0785  0.0509  0.2664
 2152W        W21006   0.030   2.644  12.838 -0.2282 -0.1005  0.0034
 2153W        W21007   9.374  14.105   3.060 -0.1140  0.1416 -0.2802
 2154W        W21008   7.959   6.320  13.010  0.1811  0.2767  0.0762
 2155W        W21009   6.771  13.064   1.663  0.0544  0.2361 -0.3372
 2156W        W21010   2.255  17.789   2.666  0.3579 -0.1744 -0.1712
 2157W        W21011  11.271   9.997  11.067 -0.1255 -0.1809 -0.0358
 2158W        W21012   5.677  17.111   9.615  0.0246  0.2441 -0.3423
 2159W        W21013   5.967   4.148   3.729  0.1378  0.2512  0.1218
 2160W        W21014  11.207  18.856  13.523  0.2036 -0.1204  0.1203
 2161W        W21015   6.879   4.639  12.912  0.2946  0.2574  0.4072
 2162W        W21016  10.368  14.191  11.073 -0.0635  0.0075  0.2169
 2163W        W21017   2.387   0.568   1.343 -0.1819 -0.2225 -0.2688
 2164W        W21018   9.607   4.273  12.768  0.2042 -0.0148 -0.1054
 2165W        W21019  12.099   9.717  11.000  0.0373  0.6103 -0.2560
 2166W        W21020   0.142  10.604   5.030 -0.3302  0.2284 -0.0478
 2167W        W21021   3.615   5.424  14.618 -0.1427  0.5483 -0.2470
 2168W        W21022  12.858   3.854   0.524  0.3784 -0.2179  0.2758
 2169W        W21023   7.034  16.821   3.115 -0.2800 -0.1261 -0.0181
 2170W        W21024  10.570   3.316   3.675 -0.4000  0.0738 -0.1254
 2171W        W21025   2.838   6.866  11.955  0.1211 -0.1357  0.1933
 2172W        W21026  11.269   8.418   1.830 -0.3409 -0.4901  0.1781
 2173W        W21027   3.709  12.657   0.208  0.1023 -0.2673  0.0964
 2174W        W21028   4.361   9.530  12.172  0.3237  0.3047  0.0907
 2175W        W21029   8.402  18.970  10.977 -0.1622  0.0690  0.1886
 2176W        W21030  18.995  15.015   2.115 -0.3305  0.3087  0.0110
 2177W        W21031  11.485  18.208  11.823 -0.1637  0.0735 -0.3035
 2178W        W21032  17.796  12.226  14.463  0.1325 -0.0982  0.0489
 2179W        W21033   1.473  15.426   0.267 -0.2916 -0.0381 -0.0362
 2180W        W21034   1.110   0.420  12.159  0.1273 -0.0972 -0.0489
 2181W        W21035   7.522  15.452   0.418 -0.0751 -0.2177 -0.0044
 2182W        W21036  16.382  10.047  14.580  0.0066 -0.0574 -0.1791
 2183W        W21037   8.403   1.583   2.394 -0.2712 -0.3250 -0.1297
 2184W        W21038  17.124   7.489   2.878 -0.2280  0.3676 -0.0218
 2185W        W21039  14.614  10.721  12.892  0.2367 -0.1133  0.2418
 2186W        W21040  18.163  14.775   3.657  0.0098 -0.0684 -0.3835
 2187W        W21041  18.028  15.312  12.446  0.0039 -0.2585  0.1440
 2188W        W21042  15.426   3.228   4.599 -0.2096  0.0825 -0.1310
 2189W        W21043  14.436  18.253   0.236 -0.2165 -0.2509  0.0138
 2190W        W21044  11.031  11.801   0.429  0.2195  0.0022  0.0832
 2191W        W21045  17.280   3.894  11.065  0.1229 -0.0556  0.1935
 2192W        W21046   5.962   1.264   9.866 -0.4159  0.1961  0.1731
 2193W        W21047   1.805  10.800   0.868 -0.1711 -0.4811 -0.0177
 2194W        W21048   8.910  19.102   1.896 -0.1458  0.0051 -0.0516
 2195W        W21049  15.756   0.939  12.806 -0.1095  0.1539  0.2989
 2196W        W21050  12.738  16.870   0.806  0.0386  0.1085  0.2934
 2197W        W21051   8.107   5.404  13.828 -0.0746 -0.3413 -0.3595
 2198W        W21052   4.189   7.237   3.659 -0.1412  0.0384 -0.0038
 2199W        W21053  14.988  15.056   4.393  0.0497 -0.2404  0.1060
 2200W        W21054  15.866  17.296   2.418 -0.1072 -0.1029 -0.0966
 2201W        W21055  10.745  17.081   3.124  0.1212 -0.1696  0.1567
 2202W        W21056  12.348   9.733   2.825  0.1522  0.2472 -0.0888
 2203W        W21057  11.092   0.237   3.053 -0.1960 -0.0095  0.0954
 2204W        W21058  11.749   9.680  11.612  0.1223 -0.0502  0.0959
 2205W        W21059   8.104   2.892  14.714  0.0050 -0.0230 -0.1980
 2206W        W21060  13.096   3.917  11.178  0.0131 -0.3836 -0.1076
 2207W        W21061   0.593  16.272  14.318 -0.1213  0.0684  0.0632
 2208W        W21062   4.547   0.322   0.380 -0.2468  0.2509 -0.1684
 2209W        W21063  14.517  10.111  14.670 -0.0703  0.0675 -0.3925
 2210W        W21064  18.758   3.455  12.848 -0.3200  0.1079 -0.2323
 2211W        W21065  15.315   0.361   3.401  0.0261  0.0450 -0.0719
 2212W        W21066   9.168  11.599  12.861  0.0076  0.0318  0.2422
 2213W        W21067   5.198   3.925   2.590 -0.1133 -0.1065  0.2119
 2214W        W21068   0.957   2.828   2.269  0.0013  0.0740 -0.2021
 2215W        W21069   7.656   6.122  10.715 -0.1725  0.2027  0.1490
 2216W        W21070  11.425  14.319   0.922  0.4758 -0.1776  0.3946
 2217W        W21071  19.200   6.551  10.845 -0.1696  0.0359  0.3305
 2218W        W21072  11.574  13.829   1.175 -0.2466 -0.0700 -0.0594
 2219W        W21073  11.583   2.222   2.157 -0.0489  0.3314  0.2746
 2220W        W21074   5.829  12.579   3.575  0.1741  0.3987  0.0466
 2221W        W21075   0.815  13.395   0.972 -0.2721  0.0181 -0.0740
 2222W        W21076  13.021   6.845  11.934 -0.3185 -0.3124 -0.1758
 2223W        W21077  18.367  10.148   2.305 -0.0364 -0.0940  0.1849
 2224W        W21078  13.841  14.276   2.954  0.1381  0.1403 -0.1102
 2225W        W21079   6.060   5.055  11.777  0.3108  0.0689  0.1300
 2226W        W21080   4.480  13.504   2.703  0.3119 -0.1426  0.1881
 2227W        W21081   8.981  15.545   2.450 -0.1111  0.0299  0.3062
 2228W        W21082   0.474  15.382  12.980 -0.1266  0.0889 -0.1412
 2229W        W21083   6.756  10.664  13.123 -0.2800  0.1762  0.3037
 2230W        W21084   4.239  17.619  13.926 -0.0543 -0.1550 -0.1893
 2231W        W21085  17.428   8.596  11.723  0.3644  0.1210 -0.1818
 2232W        W21086   8.007  18.053   3.268 -0.1673  0.0062 -0.1790
 2233W        W21087   6.849  17.660  14.687 -0.1557  0.0140 -0.1163
 2234W        W21088  14.289   0.262  11.069 -0.1427 -0.0922 -0.3063
 2235W        W21089  10.525   0.914   4.036 -0.3540 -0.1470 -0.2559
 2236W        W21090   4.972  16.402   0.875  0.1525 -0.0496  0.0086
 2237W        W21091  19.010  11.099  14.438  0.0046  0.0843  0.1243
 2238W        W21092  17.572   1.615  10.649 -0.2090  0.1358 -0.0479
 2239W        W21093   8.144  14.402  13.144 -0.0958  0.0901 -0.0856
 2240W        W21094   7.235  10.647   3.517 -0.2346 -0.1148 -0.0051
 2241W        W21095  17.930  16.251   1.021  0.0804  0.1213 -0.0734
 2242W        W21096  16.076  12.728  14.382  0.0931  0.1185 -0.1069
 2243W        W21097   0.082  15.645   2.048  0.0948 -0.2508  0.0877
 2244W        W21098  15.778  18.687   0.109 -0.2594  0.3120 -0.0549
 2245W        W21099   4.292   1.875   2.103  0.0210  0.1607  0.0723
 2246W        W21100  18.634  17.008   3.281 -0.0791  0.1519 -0.4446
 2247W        W21101   8.480  11.548   1.266  0.3288 -0.0794  0.1998
 2248W        W21102   9.740  18.881   0.874 -0.2296  0.1025 -0.0439
 2249W        W21103  10.438  10.826  14.497 -0.0766 -0.0561  0.2016
 2250W        W21104  14.564   6.336  14.712  0.0443 -0.1648  0.6669
 2251W        W21105   5.694  14.294  14.211 -0.2313 -0.0913 -0.1100
 2252W        W21106   0.852  18.420   3.510  0.0299  0.0721  0.0695
 2253W        W21107   3.704  13.101  14.629 -0.1604 -0.0783 -0.0699
 2254W        W21108   2.190   3.433   2.326  0.2759 -0.1016  0.3716
 2255W        W21109   1.948   6.594  12.093  0.2112 -0.1760 -0.3653
 2256W        W21110   7.830   4.039  11.058  0.0945 -0.3304 -0.0105
 2257W        W21111  10.954  18.980   5.340  0.0791  0.3022 -0.1296
 2258W        W21112  18.710   7.849   1.866  0.2211  0.1013  0.2607
 2259W        W21113   2.785   4.512   3.494 -0.0608 -0.1159 -0.0536
 2260W        W21114  15.194   9.061  12.064 -0.0179  0.0665  0.0242
 2261W        W21115   7.150   3.029   2.068 -0.0116  0.0013 -0.0374
 2262W        W21116  13.321  18.418   2.635  0.1053  0.0199  0.1127
 2263W        W21117   9.566   9.738  11.351 -0.1123 -0.2094 -0.1610
 2264W        W21118  15.806   6.208  11.973  0.3208  0.0889 -0.2643
 2265W        W21119  15.261   3.382  14.508 -0.0283 -0.2431  0.0544
 2266W        W21120   2.189   9.916   2.254 -0.1391  0.2088  0.0912
 2267W        W21121  17.325   6.304  13.548 -0.0845 -0.1885 -0.0501
 2268W        W21122  14.679  17.145  11.888 -0.1709 -0.1002  0.0770
 2269W        W21123  17.586  18.601   3.931 -0.0839 -0.0576 -0.1984
 2270W        W21124   0.006   6.751   3.593  0.0294  0.0701  0.2458
 2271W        W21125  16.382   2.664   1.939  0.0911 -0.0821  0.0844
 2272W        W21126  11.212  16.805   0.302  0.4584 -0.2092  0.2657
 2273W        W21127  10.489   7.915  10.562  0.1122 -0.1212  0.3337
 2274W        W21128  19.051   4.294  14.371 -0.0889 -0.2287  0.0299
 2275W        W21129   0.896   4.605  12.987 -0.1192  0.1345 -0.1248
 2276W        W21130  13.404  11.048   1.760 -0.1766 -0.1890 -0.1193
 2277W        W21131  10.782   1.261  13.519 -0.2961  0.0142 -0.1542
 2278W        W21132   8.624   0.674   1.251  0.2755 -0.0059 -0.2622
 2279W        W21133   8.687  10.654   0.823 -0.2981  0.2948  0.1742
 2280W        W21134  16.470  11.279   5.098 -0.3294  0.0742  0.1262
 2281W        W21135   0.601   3.610   2.161  0.1083 -0.0510  0.2109
 2282W        W21136   1.366  12.094   0.910  0.1789  0.0233 -0.2337
 2283W        W21137   7.051   3.085  11.312  0.1016  0.0904 -0.0650
 2284W        W21138  11.408  15.539   0.455 -0.0428 -0.3701 -0.4047
 2285W        W21139  14.375   5.460  13.862  0.1764  0.2022 -0.2108
 2286W        W21140  11.791  13.761  14.037  0.2736 -0.2145 -0.0807
 2287W        W21141  13.523  17.048  13.047 -0.0914 -0.3690  0.0063
 2288W        W21142   6.005  12.917  13.445  0.2933 -0.2428  0.0775
 2289W        W21143   5.148  14.845  10.821  0.1833 -0.2056 -0.1479
 2290W        W21144   5.113   3.436  13.812  0.4223  0.0862  0.2183
 2291W        W21145   6.328  13.238  14.583  0.2006  0.1524  0.3115
 2292W        W21146  15.092   1.900  13.277  0.1965 -0.0878 -0.0871
 2293W        W21147  15.213   9.644  14.374 -0.0282  0.0669  0.1212
 2294W        W21148  16.947  11.625  14.061  0.0711  0.0503 -0.0536
 2295W        W21149   6.327  16.428   1.165 -0.1300  0.1667 -0.1258
 2296W        W21150  17.045  10.557   2.337  0.2896 -0.1543 -0.2075
 2297W        W21151   2.955  16.473  12.741  0.1520 -0.3009  0.2473
 2298W        W21152  10.637   2.164  11.765  0.0658  0.1316 -0.0473
 2299W        W21153   4.618   6.986   1.526  0.0731 -0.0286  0.2953
 2300W        W21154   3.864   3.451   0.753  0.3614  0.4213  0.0789
 2301W        W21155  13.425  12.973   2.197  0.0417  0.1495  0.0514
 2302W        W21156  19.202   7.637   0.169  0.4082  0.0028 -0.1183
 2303W        W21157   5.457  16.706   2.681  0.1745  0.1049 -0.1646
 2304W        W21158   3.741   0.386  12.883 -0.3756 -0.1775  0.0973
 2305W        W21159   3.271  12.456   2.012 -0.2037 -0.1544 -0.0622
 2306W        W21160   0.070  12.923  12.097 -0.1244  0.1804 -0.2943
 2307W        W21161  13.807   6.096   1.998 -0.0404  0.0705 -0.2636
 2308W        W21162   3.926   0.925  11.241  0.0765 -0.1523  0.1587
 2309W        W21163   6.815   0.401   2.031  0.0297  0.0211 -0.2274
 2310W        W21164   9.727  17.667  13.002 -0.4923  0.3630 -0.0496
 2311W        W21165  16.526  18.917   5.729 -0.0608  0.0086  0.1000
 2312W        W21166   2.699   7.229   2.794  0.0077  0.5018 -0.0986
 2313W        W21167  16.055  17.829  11.286  0.1196 -0.1671  0.0841
 2314W        W21168  12.497   1.390   2.662 -0.1666  0.0753  0.0028
 2315W        W21169  14.992  18.688   3.314  0.2965 -0.0769 -0.1750
 2316W        W21170  13.917   0.340  12.424  0.6069 -0.1468  0.1165
 2317W        W21171  12.969  12.315  10.530 -0.0826 -0.2990  0.0302
 2318W        W21172  14.943  15.270   1.345  0.1154  0.0199  0.0774
 2319W        W21173   0.399  10.947   2.500 -0.1078 -0.2042  0.2694
 2320W        W21174  12.196   5.493   4.019  0.0854  0.0695  0.2799
 2321W        W21175  19.102  14.584   2.873 -0.2804  0.2601 -0.0889
 2322W        W21176   9.833   1.675   1.745  0.3525  0.4586 -0.0247
 2323W        W21177  17.135   3.739   4.036 -0.0115 -0.2552 -0.2813
 2324W        W21178   3.220   2.868   2.916  0.1960 -0.1629 -0.0387
 2325W        W21179  14.172   0.449   4.457  0.1230  0.3186  0.2064
 2326W        W21180  16.237   8.937   3.388 -0.2955  0.1215 -0.0631
 2327W        W21181   2.507  15.726  11.316  0.2574  0.4090  0.0361
 2328W        W21182  13.185   9.811  14.120 -0.1019 -0.2836  0.1466
 2329W        W21183   8.730  11.191  12.230 -0.1414  0.0619  0.2615
 2330W        W21184   5.983   4.385  11.178 -0.0946  0.1024 -0.1202
 2331W        W21185  11.324   8.772   2.271 -0.2467 -0.1700 -0.2595
 2332W        W21186  10.633  12.323  10.996 -0.0247  0.1920 -0.0291
 2333W        W21187  15.081  14.777  14.451  0.1109 -0.4272  0.2299
 2334W        W21188  14.432  18.321   2.903 -0.0241 -0.1668 -0.3586
 2335W        W21189  13.396  18.848  11.659  0.0624 -0.0128 -0.2794
 2336W        W21190  18.324  19.033   4.932  0.1879 -0.2482  0.0707
 2337W        W21191  15.125   7.361   1.826 -0.0917  0.2372 -0.1410
 2338W        W21192   1.693  11.644   2.767  0.0427 -0.2843  0.5056
 2339W        W21193   1.561   9.808   5.700 -0.1568  0.0495 -0.0378
 2340W        W21194   7.347   4.437  12.719 -0.0599 -0.3327 -0.0089
 2341W        W21195  17.430   6.746   3.739  0.0391  0.4808 -0.1543
 2342W        W21196   6.623   1.402   4.439  0.2013  0.0606  0.1414
 2343W        W21197  10.393  14.796  10.232  0.2066  0.1492  0.0686
 2344W        W21198   8.227   1.030  12.747  0.0017  0.1186  0.1902
 2345W        W21199  10.401   4.793  11.810 -0.1901 -0.1956 -0.0150
 2346W        W21200   6.220  15.073   1.287  0.0952  0.0615  0.1681
 2347W        W21201   4.961  15.410   1.027  0.1488 -0.0050 -0.0823
 2348W        W21202   9.247  13.617   0.046  0.1783  0.1667  0.1224
 2349W        W21203  11.303   4.469   3.127 -0.0944  0.1086  0.2292
 2350W        W21204   7.080   8.122   1.559  0.1481  0.1856  0.2031
 2351W        W21205   7.276   6.158  11.267  0.1353 -0.0600  0.2398
 2352W        W21206   2.721   3.287  13.739 -0.2137  0.2992 -0.1629
 2353W        W21207  11.076  13.986   1.063 -0.0057  0.0195 -0.3383
 2354W        W21208  16.078   5.237  14.347  0.0628 -0.0782 -0.1319
 2355W        W21209   0.380   5.629  13.028  0.1498 -0.1161  0.1007
 2356W        W21210   8.634   5.204   1.098  0.0535 -0.3625  0.0942
 2357W        W21211   9.572   3.993   2.233 -0.0433 -0.0928  0.0068
 2358W        W21212   2.921  18.812   4.387  0.0342 -0.1044 -0.1373
 2359W        W21213   0.488   1.399   3.313 -0.1372 -0.2155 -0.1086
 2360W        W21214  12.295  11.063   3.170 -0.0663  0.1016  0.3590
 2361W        W21215   2.067  13.248  12.672 -0.1549  0.1675  0.1000
 2362W        W21216  17.238   7.151   3.926  0.0156 -0.0006 -0.1261
 2363W        W21217   1.480   2.268  14.573 -0.0786 -0.0921  0.2037
 2364W        W21218   8.702   0.721   5.153  0.1849  0.1042 -0.3405
 2365W        W21219   8.328  16.510   1.917  0.1155 -0.0079  0.2346
 2366W        W21220   6.409   9.719  14.164 -0.0104 -0.3176 -0.2655
 2367W        W21221  16.311   5.393   1.121 -0.1560 -0.0443  0.0137
 2368W        W21222   7.891   6.335  11.166 -0.2280 -0.1152 -0.0274
 2369W        W21223   3.034  17.319  13.367  0.2474 -0.4206  0.1710
 2370W        W21224  10.382   9.054  13.729  0.0817 -0.1051 -0.0641
 2371W        W21225   8.143   3.580   5.120 -0.1549 -0.0491  0.0674
 2372W        W21226  17.574   2.370   4.503  0.0488  0.1021 -0.0318
 2373W        W21227  16.861   9.161   4.073 -0.2582  0.0131  0.1363
 2374W        W21228  11.481   2.156   2.839 -0.0099 -0.0586  0.1703
 2375W        W21229  10.566  14.021  12.599  0.0665  0.1874 -0.2603
 2376W        W21230   0.342   7.580   9.558  0.2618 -0.0559  0.1886
 2377W        W21231  14.680   6.956  11.961  0.0674  0.1189 -0.0954
 2378W        W21232   4.537  15.815   3.397  0.1167  0.0939  0.1381
 2379W        W21233  18.331  14.984  13.744 -0.0507 -0.0345  0.1582
 2380W        W21234  14.577  11.947   9.806 -0.3789  0.1313  0.2417
 2381W        W21235  10.577  14.612  10.935 -0.5021  0.3133  0.0802
 2382W        W21236   5.199  11.605   0.944  0.0316 -0.0278 -0.0349
 2383W        W21237   4.761  16.302   4.246  0.0084  0.0414  0.0389
 2384W        W21238  17.282  12.168  10.463  0.0002  0.0118  0.5016
 2385W        W21239  10.764   0.964  10.527 -0.2835 -0.2493 -0.4716
 2386W        W21240   9.342   5.674   0.606 -0.0714  0.0563  0.0372
 2387W        W21241  10.746   7.504   2.189 -0.1303  0.0210 -0.2404
 2388W        W21242   0.753  17.675  12.716  0.1419  0.0463 -0.2986
 2389W        W21243   3.167   6.451  12.705  0.0450 -0.0648  0.0978
 2390W        W21244  16.611  15.146   1.134  0.1047 -0.0740  0.3104
 2391W        W21245  14.818  15.645  13.081  0.4188  0.1066 -0.2747
 2392W        W21246  12.257   7.130   1.103 -0.1540  0.1384  0.3593
 2393W        W21247   2.142   9.009  11.420 -0.3099  0.1176  0.0524
 2394W        W21248  13.657  17.234  13.497  0.2343  0.2329  0.2805
 2395W        W21249   7.353   6.168  13.631  0.2301 -0.2139 -0.0365
 2396W        W21250  10.399   8.771   1.563  0.0872 -0.1567 -0.1855
 2397W        W21251  15.074  13.685   2.806  0.1016 -0.0822  0.0432
 2398W        W21252   4.432  11.559  11.812 -0.2383  0.4377  0.1602
 2399W        W21253  13.778   9.657  10.714 -0.1993  0.2280  0.0648
 2400W        W21254  10.054   5.793  11.469  0.0690 -0.3155 -0.5460
 2401W        W21255  13.200  18.675   1.075  0.2373 -0.2654  0.2325
 2402W        W21256   6.685   3.359  13.390  0.2711 -0.3553 -0.1716
 2403W        W21257   2.249   3.936  14.542 -0.4096 -0.1104  0.2220
 2404W        W21258  16.627   0.215   2.548  0.1156 -0.4592  0.0666
 2405W        W21259  15.978   4.345  12.254 -0.2617 -0.0256  0.0002
 2406W        W21260  14.366  12.059   0.608 -0.1391  0.0061 -0.1516
 2407W        W21261  13.472  13.256  10.424 -0.0484  0.0522  0.1133
 2408W        W21262   2.579   9.442   1.490 -0.3499 -0.0951 -0.2024
 2409W        W21263   6.396   8.995   0.435  0.1055  0.3189  0.0635
 2410W        W21264   5.294   0.655  14.488 -0.2828 -0.1262  0.2748
 2411W        W21265  13.593   6.419  14.418 -0.1343 -0.0052  0.2781
 2412W        W21266  15.015   0.926  13.871 -0.1356  0.1526  0.0679
 2413W        W21267  12.572  14.321  12.842 -0.2586  0.1608 -0.0403
 2414W        W21268  10.225  17.153  12.364  0.2664  0.2215 -0.3030
 2415W        W21269   4.785   5.179   2.730 -0.3135  0.2664  0.2693
 2416W        W21270   0.103   9.213   2.892  0.0967  0.2232 -0.0890
 2417W        W21271  10.914  12.183   0.810 -0.0371 -0.0800 -0.2942
 2418W        W21272  16.102   0.302   3.978  0.2590  0.0286 -0.0890
 2419W        W21273   2.963   6.717   2.317  0.2187  0.0456 -0.0342
 2420W        W21274  15.104   9.841  10.593 -0.0265  0.1265  0.0333
 2421W        W21275  15.062   3.137   3.334  0.1762  0.0294 -0.1056
 2422W        W21276  10.005   8.688   3.633 -0.0068 -0.0278  0.0741
 2423W        W21277  14.170   3.885  14.069  0.2090 -0.1292 -0.0193
 2424W        W21278  13.587   0.206   9.884 -0.2415 -0.0335  0.1679
 2425W        W21279   9.413   8.975   0.818 -0.2229  0.2379  0.0730
 2426W        W21280   6.894   2.124   0.548  0.0496 -0.2970  0.1465
 2427W        W21281   2.766  13.745   0.263  0.1208  0.1425  0.0697
 2428W        W21282  18.872   5.358   4.501 -0.4088  0.0694  0.0927
 2429W        W21283  19.083  17.076  12.808 -0.2736 -0.1205  0.3765
 2430W        W21284  11.559  17.060  14.661  0.2336 -0.3521  0.1535
 2431W        W21285  18.564   1.901   3.116  0.0921  0.2180  0.1532
 2432W        W21286   3.688   9.332   3.057  0.1469  0.3503  0.0070
 2433W        W21287   9.500  17.645   2.047 -0.2246 -0.2527  0.0456
 2434W        W21288   7.618  17.565  10.863 -0.2413 -0.2972  0.2448
 2435W        W21289  16.252  19.179   3.591 -0.0565 -0.0763 -0.0068
 2436W        W21290  14.660  10.262  11.437  0.0861 -0.0192  0.0136
 2437W        W21291  18.698   9.766  13.899  0.1483  0.0750 -0.0638
 2438W        W21292   7.795   7.054  13.459  0.2153  0.0645  0.1472
 2439W        W21293   5.035  12.445  10.877 -0.0508  0.0646  0.0324
 2440W        W21294  18.747   8.509   2.681  0.1200  0.0385 -0.3408
 2441W        W21295  13.431   8.721   0.846 -0.0718 -0.0467 -0.0911
 2442W        W21296   3.564  16.417  10.775 -0.3949  0.3549 -0.3162
 2443W        W21297  16.593  16.474   4.575  0.0204 -0.1593 -0.0610
 2444W        W21298   3.061  15.190   0.885 -0.0364  0.0862  0.1461
 2445W        W21299  15.204   7.628   3.936 -0.0262  0.0072 -0.1060
 2446W        W21300   4.372  18.207   1.744 -0.3018  0.0454  0.1687
 2447W        W21301  16.241   2.528   2.799 -0.2417  0.0409 -0.2410
 2448W        W21302  11.410   5.236  11.706  0.2803 -0.1886 -0.0979
 2449W        W21303   7.255  17.268   2.034 -0.1257  0.0399 -0.3061
 2450W        W21304   3.559  14.874   4.334 -0.2890  0.1277 -0.2249
 2451W        W21305  12.431  12.359   3.659 -0.4119 -0.1037  0.1141
 2452W        W21306   8.924   5.715  11.284  0.0892  0.1115  0.2939
 2453W        W21307  10.882  15.154  11.706 -0.0614 -0.2305 -0.2861
 2454W        W21308  11.438  17.841  13.524 -0.0092 -0.0437  0.1903
 2455W        W21309  10.969   2.995   3.099  0.0439 -0.1174  0.2170
 2456W        W21310  11.324  15.954  12.499  0.3332 -0.1106 -0.1165
 2457W        W21311  14.262   4.204   0.020  0.0225 -0.0091  0.0903
 2458W        W21312  13.401  10.090  10.885  0.1313 -0.0350 -0.1099
 2459W        W21313  15.731   8.830   0.520  0.1103 -0.0006  0.1557
 2460W        W21314   4.521   4.100   9.849  0.0685 -0.0641  0.1906
 2461W        W21315   0.219  18.061   1.450  0.2267 -0.4660  0.2392
 2462W        W21316   5.165   1.459  11.886  0.2011  0.0447 -0.3778
 2463W        W21317   7.388  17.183  13.914 -0.2062 -0.3450 -0.3161
 2464W        W21318  14.680   3.000   2.682 -0.1799  0.0114 -0.2538
 2465W        W21319  10.778  12.992  10.522  0.3219 -0.1663  0.0958
 2466W        W21320  17.004  17.790   3.767  0.0152  0.1859 -0.2040
 2467W        W21321  10.446   9.219   2.556  0.3528  0.1009 -0.0417
 2468W        W21322  12.121  13.031   1.421 -0.0871  0.0080  0.0609
 2469W        W21323   6.784   2.362  11.090 -0.3740 -0.2413  0.1031
 2470W        W21324  16.405  18.862  10.894  0.3115  0.3642  0.1278
 2471W        W21325  10.041  18.543  13.355 -0.0656  0.0895  0.3290
 2472W        W21326   9.249  15.914  10.951  0.1763 -0.0220  0.0235
 2473W        W21327  15.145  13.723  11.472 -0.0907  0.1183 -0.1372
 2474W        W21328  13.842  16.526  11.618  0.1131 -0.0658 -0.1521
 2475W        W21329  16.279  11.778  10.992  0.0278 -0.0457  0.3331
 2476W        W21330   7.320  16.219  14.032 -0.0037  0.1523  0.0495
 2477W        W21331  16.315   7.160  11.898  0.3339 -0.4491  0.0765
 2478W        W21332   3.470  17.210  11.442 -0.1044 -0.0656 -0.1258
 2479W        W21333  17.193   9.316  11.418  0.0557 -0.2053 -0.2934
 2480W        W21334  12.393  10.666  14.338  0.1236 -0.4178 -0.1414
 2481W        W21335   0.802   4.018   1.592  0.1942 -0.0636  0.2418
 2482W        W21336   5.890   0.761  13.864 -0.0244  0.0116  0.3466
 2483W        W21337   6.389   5.210   1.433  0.0800 -0.1552 -0.0647
 2484W        W21338   1.604   2.992   0.953 -0.0334 -0.1494  0.0568
 2485W        W21339   6.795   5.370   0.515 -0.2035 -0.2050 -0.0193
 2486W        W21340   8.354  11.681  10.485 -0.1545 -0.1147 -0.1471
 2487W        W21341   8.371   4.724  11.103 -0.0289  0.0642  0.2097
 2488W        W21342  16.966  14.827   2.745  0.0733  0.1708  0.2259
 2489W        W21343  15.670   8.017   4.069  0.2166  0.4665 -0.2348
 2490W        W21344   0.660   6.135  12.627  0.2634  0.1673 -0.0345
 2491W        W21345  16.717  14.851   3.283  0.2561  0.1532 -0.0792
 2492W        W21346   3.975   4.397  11.795  0.0773 -0.0339 -0.3434
 2493W        W21347   0.584  11.369   2.608 -0.0032  0.2739  0.0991
 2494W        W21348  11.192  19.156  12.978 -0.1707 -0.0912 -0.1293
 2495W        W21349  15.466   0.145  12.490  0.3065 -0.0374 -0.3830
 2496W        W21350   1.116  13.531  13.362  0.1652  0.2254  0.1390
 2497W        W21351  14.180  19.191   3.953  0.1363 -0.1003  0.2056
 2498W        W21352   9.738  14.431  10.886 -0.1978  0.0923  0.0658
 2499W        W21353   2.340   3.560   4.375 -0.0583 -0.1572 -0.0041
 2500W        W21354   8.319  13.696   1.274 -0.0325  0.1043 -0.0081
 2501W        W21355  16.205   0.700  12.856  0.2811  0.0156 -0.1672
 2502W        W21356   3.338  17.130   2.354 -0.1077  0.1129  0.3504
 2503W        W21357  10.802   9.279  12.929  0.0746  0.3104 -0.1929
 2504W        W21358  12.880   1.475  12.938  0.0412  0.1042  0.1687
 2505W        W21359  15.945   6.593   0.880  0.0630  0.1677 -0.0731
 2506W        W21360   4.563  14.272  12.192  0.1037 -0.1177  0.0942
 2507W        W21361  15.551   6.376   0.387 -0.2244 -0.0503 -0.2625
 2508W        W21362  10.385   6.538   3.421  0.0923 -0.1870 -0.0800
 2509W        W21363   6.286   6.720  13.215  0.0543 -0.1992 -0.2442
 2510W        W21364   1.449   3.209  14.142 -0.3050  0.0115 -0.0812
 2511W        W21365   1.426   2.765  12.391  0.0190 -0.1838 -0.2678
 2512W        W21366   0.441  15.740   1.059  0.0810 -0.0560  0.1967
 2513W        W21367  16.750  15.668  13.970  0.2348  0.0573  0.0624
 2514W        W21368   5.151   0.671  10.554  0.0918 -0.1751 -0.2912
 2515W        W21369   3.962  14.390   0.920  0.2967  0.0189 -0.3351
 2516W        W21370   5.953  13.270  11.075  0.1512  0.2276  0.0216
 2517W        W21371   5.558  15.243   0.361  0.1029 -0.0568 -0.1634
 2518W        W21372   1.704  17.855   2.401  0.4251 -0.3118  0.0332
 2519W        W21373  13.810   1.759  11.514  0.1335  0.1214  0.0186
 2520W        W21374   7.116   1.673   0.670 -0.0239 -0.2844 -0.1763
 2521W        W21375  17.921  18.267  11.806 -0.5356 -0.1765  0.4230
 2522W        W21376  15.305  18.135  13.948 -0.0057  0.0774  0.1678
 2523W        W21377   0.438  14.653  13.655 -0.0942 -0.0218  0.2061
 2524W        W21378   3.013  14.153  12.347  0.3621  0.2712 -0.1952
 2525W        W21379   0.726  13.903   0.783 -0.0248  0.2606 -0.1327
 2526W        W21380   1.740   1.587   0.392 -0.0006  0.1558  0.0348
 2527W        W21381   0.278   6.949  12.498  0.0743 -0.0981  0.0301
 2528W        W21382  17.662   9.377  12.860 -0.0481 -0.0176 -0.2909
 2529W        W21383  15.522  17.661  14.620 -0.3384 -0.3516 -0.0070
 2530W        W21384   9.529   9.590   2.399 -0.2479  0.0501  0.0674
 2531W        W21385  14.241  11.285  12.180  0.0006  0.0653 -0.2199
 2532W        W21386   6.680  15.973   1.137  0.1196 -0.2102 -0.3720
 2533W        W21387   7.186   7.948   3.052  0.0603  0.1400 -0.1561
 2534W        W21388  14.513   6.427   1.557  0.1921 -0.1259  0.0507
 2535W        W21389  16.426   7.704   1.282  0.1461  0.0743  0.1173
 2536W        W21390   9.692  11.509   3.203 -0.0064  0.1578  0.2727
 2537W        W21391  15.584  13.488   0.749  0.0047 -0.1640  0.1171
 2538W        W21392  15.894  18.785   2.479 -0.0908 -0.3052 -0.1303
 2539W        W21393   4.656  13.498   3.189  0.1294 -0.0611 -0.0166
 2540W        W21394  14.962  14.858   0.202  0.1727  0.0693 -0.1484
 2541W        W21395   8.846   8.253   2.408  0.0153  0.0585 -0.3870
 2542W        W21396   3.528  12.030   0.996 -0.2134  0.2560  0.1702
 2543W        W21397  17.514   0.479   0.485  0.1780 -0.0053 -0.1317
 2544W        W21398   5.758  14.819   1.241 -0.1409  0.0278  0.1810
 2545W        W21399   8.243  14.631   0.402  0.0265  0.0955  0.5166
 2546W        W21400  18.772   6.190   4.333  0.2917 -0.0124 -0.0851
 2547W        W21401   3.409  17.328  12.988  0.0111  0.0322  0.0499
 2548W        W21402   2.904   0.852  14.555  0.1819 -0.0918 -0.0300
 2549W        W21403   7.213   6.585   0.549 -0.0460 -0.2247 -0.2928
 2550W        W21404   1.812  13.166   3.669  0.2289 -0.0025  0.3785
 2551W        W21405  15.695   6.299  14.209 -0.0835 -0.0033  0.1062
 2552W        W21406   6.122  13.595   0.627  0.1230 -0.1001  0.1740
 2553W        W21407  17.486   8.819   3.018 -0.0784 -0.0142  0.1806
 2554W        W21408  11.568  17.217   1.960 -0.1215  0.2133 -0.2313
 2555W        W21409   1.504   2.779  14.373 -0.0206 -0.0161  0.1515
 2556W        W21410  15.069   1.620   3.887 -0.0842 -0.2023 -0.0379
 2557W        W21411  12.152  12.425   4.073 -0.0929  0.0159  0.0741
 2558W        W21412   6.774  12.397   0.788 -0.2065  0.1027 -0.1677
 2559W        W21413  10.770  15.158  12.265 -0.0339 -0.1580 -0.0615
 2560W        W21414   4.643  13.383  13.707 -0.0411 -0.0275 -0.2672
 2561W        W21415   2.746   6.997  14.706  0.2269 -0.1498 -0.1167
 2562W        W21416   7.658   6.890   0.315  0.2713  0.2902  0.3492
 2563W        W21417   6.703  14.055  13.986  0.1324 -0.0499  0.2645
 2564W        W21418  10.780   2.117   1.006 -0.2740 -0.1240  0.1500
 2565W        W21419   3.302  10.819   3.206 -0.1415  0.0821  0.0492
 2566W        W21420   4.780  10.913  12.802 -0.1350  0.3908  0.3853
 2567W        W21421   5.564   8.887  12.139  0.2301 -0.0349  0.0245
 2568W        W21422  15.560   2.896  11.360  0.2312  0.1189  0.1132
 2569W        W21423   8.639  12.380  13.507 -0.1334  0.4170 -0.0358
 2570W        W21424   7.222   8.209  10.728 -0.1186  0.0751  0.1826
 2571W        W21425  15.580  16.684   0.963  0.2010 -0.2831 -0.0413
 2572W        W21426  16.877  16.303   4.152  0.1402 -0.2000  0.0672
 2573W        W21427  13.328  17.211   0.095  0.0485 -0.1484  0.2915
 2574W        W21428   4.284   3.700   9.972  0.3350  0.0554  0.2863
 2575W        W21429  17.658  15.177   1.486  0.2330  0.0119 -0.2976
 2576W        W21430  13.091  16.531   0.888 -0.1860  0.2623  0.3482
 2577W        W21431   8.565  14.724   5.278  0.0772 -0.1753  0.0115
 2578W        W21432  11.635  12.461  12.605  0.1026  0.0442 -0.0361
 2579W        W21433   3.925   3.105  14.468  0.1862  0.4281  0.1128
 2580W        W21434  18.039   4.234   0.024  0.1215  0.1792 -0.0067
 2581W        W21435  16.278  14.214   0.388 -0.3226 -0.2698 -0.0966
 2582W        W21436  10.581   4.860   3.668  0.1376 -0.2604 -0.1918
 2583W        W21437   3.960  13.396  13.559  0.3620  0.0177  0.1814
 2584W        W21438  14.599   2.547  14.023  0.0713 -0.0177  0.2171
 2585W        W21439   6.342   9.558  11.905 -0.2661 -0.1267 -0.0071
 2586W        W21440   2.565   7.413  14.625  0.2982  0.0169 -0.0473
 2587W        W21441  15.013   0.970   1.894 -0.1251  0.1806  0.1594
 2588W        W21442   4.531  12.755  10.407 -0.2801  0.0782 -0.2162
 2589W        W21443  12.531  16.865   0.323  0.2055  0.0213 -0.1694
 2590W        W21444   3.267   8.453   4.006 -0.0284 -0.0996  0.1341
 2591W        W21445  13.623  11.656   1.310 -0.3342  0.0253 -0.0442
 2592W        W21446  16.349   5.216  11.270  0.0713 -0.0734  0.0813
 2593W        W21447  17.354   0.798  10.879 -0.0136  0.0135 -0.3914
 2594W        W21448  16.864   4.780  12.920 -0.1432 -0.0072  0.0326
 2595W        W21449   1.295   0.854   3.691 -0.2282  0.3284  0.3484
 2596W        W21450   3.511   2.530   0.502  0.0028  0.2209 -0.1071
 2597W        W21451  18.034   9.757  12.826  0.3370 -0.0510  0.1124
 2598W        W21452   8.136  16.411   4.067 -0.1245 -0.1782 -0.0649
 2599W        W21453   2.906  16.824   3.586 -0.2358 -0.3882 -0.0361
 2600W        W21454   3.689  18.480  11.381 -0.0069 -0.2575 -0.0039
 2601W        W21455   3.281  13.457  12.094 -0.2663 -0.0527 -0.0903
 2602W        W21456  18.880   5.448  12.722 -0.0162  0.1025  0.3616
 2603W        W21457  11.352  11.295  11.607 -0.3788  0.1443  0.1954
 2604W        W21458   6.431  14.140   3.056 -0.1559  0.0724  0.1310
 2605W        W21459   2.688  10.560  13.472 -0.0128 -0.1549  0.0089
 2606W        W21460  11.356   4.211   2.526 -0.1709  0.0960 -0.0721
 2607W        W21461  11.571  14.151   0.162 -0.1801  0.2685 -0.0233
 2608W        W21462  13.477   5.135  11.190  0.1559  0.1020  0.2977
 2609W        W21463  12.760   9.328   1.355 -0.0371 -0.0314 -0.1531
 2610W        W21464   7.034   2.889   3.038 -0.1146  0.0039  0.2288
 2611W        W21465   9.999   0.814  11.679  0.1301  0.1631  0.2055
 2612W        W21466   6.340  14.116   2.540  0.1670  0.0725 -0.1060
 2613W        W21467   7.274   5.318   0.704  0.0362 -0.1083 -0.1769
 2614W        W21468   1.511  12.434  11.105  0.0648  0.3548 -0.0568
 2615W        W21469   6.472  18.634   4.249 -0.1993 -0.1438  0.1459
 2616W        W21470   0.699   3.058   2.694 -0.0868 -0.0637  0.3487
 2617W        W21471  18.884  10.975  13.581  0.0091  0.0049  0.0659
 2618W        W21472  18.067  14.515  10.598 -0.0609  0.1831 -0.1120
 2619W        W21473   7.728  19.161  13.981  0.0028  0.1374 -0.0577
 2620W        W21474  16.340  17.254   2.304 -0.0441  0.0055 -0.1342
 2621W        W21475   8.677  15.950   2.482 -0.1807  0.1780  0.1742
 2622W        W21476  11.537   8.322  10.925  0.3927 -0.3007  0.0565
 2623W        W21477   6.632   6.118  10.620 -0.1053  0.0049  0.4300
 2624W        W21478   4.469   0.064  14.673 -0.2052  0.2257 -0.3198
 2625W        W21479   9.915  13.298  12.915  0.1018  0.3252  0.4119
 2626W        W21480  17.214  16.180   4.505  0.3315 -0.1911 -0.0080
 2627W        W21481  17.002   5.513  12.551 -0.5495  0.0555  0.0928
 2628W        W21482   3.772   7.191   3.909 -0.0398 -0.3833  0.2294
 2629W        W21483   6.258  16.820   1.493 -0.3009  0.0204 -0.0525
 2630W        W21484  15.611  15.121  10.889 -0.4216 -0.2418  0.2025
 2631W        W21485  13.722   7.140   3.949 -0.0722 -0.1267  0.0501
 2632W        W21486   2.527  15.599  12.811 -0.1213 -0.2227 -0.0246
 2633W        W21487   6.780  12.513   2.402  0.4923 -0.0330 -0.0810
 2634W        W21488  12.284   4.938   3.509 -0.1164  0.1899  0.1057
 2635W        W21489  16.859   5.288   2.397  0.0876 -0.0806  0.1183
 2636W        W21490  16.365  16.518   1.150  0.2374  0.0884 -0.1390
 2637W        W21491   1.267  15.733   2.807  0.0593  0.2085 -0.0101
 2638W        W21492  12.246  10.969  10.739 -0.0139  0.0848 -0.0578
 2639W        W21493  14.071   0.950  12.595 -0.0446 -0.0703 -0.0568
 2640W        W21494  11.492  16.600   4.375  0.1654 -0.1032 -0.1249
 2641W        W21495  18.552  14.100  14.570 -0.0333  0.1531 -0.1049
 2642W        W21496  10.352  10.946  11.639  0.3376  0.0230  0.0385
 2643W        W21497  14.004  10.994  11.431  0.0964 -0.0290 -0.1040
 2644W        W21498   5.276  11.521   2.679  0.2108  0.2426  0.2538
 2645W        W21499   3.118   1.280  12.143 -0.1629  0.1229 -0.0864
 2646W        W21500   6.619  17.117  13.598  0.1566 -0.1811  0.2113
 2647W        W21501   7.509  16.812   1.990  0.1191  0.0103 -0.1816
 2648W        W21502  18.241   7.734   3.097  0.0121  0.2023 -0.1057
 2649W        W21503  17.796   1.893   3.864  0.1696 -0.0749  0.0261
 2650W        W21504  13.427  16.042  11.026  0.1179  0.0014 -0.3241
 2651W        W21505   3.657   8.776   3.367 -0.0644 -0.0867 -0.0122
 2652W        W21506   5.874   4.278   0.647  0.2670 -0.0484 -0.0999
 2653W        W21507  13.346   0.378   3.886  0.0401  0.4104 -0.2083
 2654W        W21508  17.407  10.677   3.541  0.0737 -0.0546 -0.0740
 2655W        W21509  14.706  15.535  10.829 -0.2333  0.0741  0.0977
 2656W        W21510   7.972  16.537   3.316 -0.2689  0.5411  0.0211
 2657W        W21511   5.821   0.409  12.086 -0.1074  0.3480 -0.0368
 2658W        W21512   9.433  12.715   1.384  0.0473 -0.1725 -0.0707
 2659W        W21513   4.624   5.329  11.397  0.1578 -0.0945  0.3016
 2660W        W21514   8.169   5.904  13.922 -0.1413  0.0083 -0.3015
 2661W        W21515   2.383  16.024  10.854 -0.0463  0.0781  0.0867
 2662W        W21516  13.988   5.753   3.582 -0.1232 -0.0157  0.1979
 2663W        W21517   4.768   8.906  14.110 -0.1423  0.1016 -0.2771
 2664W        W21518  16.898  18.885  12.891 -0.0424  0.0115  0.1078
 2665W        W21519   3.173  14.726   1.083 -0.2127  0.2984 -0.0511
 2666W        W21520   4.569  13.335   1.529 -0.0315  0.1124  0.1861
 2667W        W21521  19.056   9.011   1.985  0.3238 -0.0670 -0.5097
 2668W        W21522  18.121  12.917   0.595 -0.1011 -0.1036  0.1341
 2669W        W21523   1.676   1.210   0.070  0.2808 -0.0151  0.0223
 2670W        W21524  11.934   8.295  13.928  0.2293 -0.3540 -0.1983
 2671W        W21525   8.768   6.041  12.220 -0.2406  0.0228 -0.2465
 2672W        W21526  16.488  14.567   4.432  0.4388 -0.1748 -0.0768
 2673W        W21527  16.895  12.158  14.658 -0.3008  0.0961  0.2461
 2674W        W21528  13.793  11.397   3.632  0.0909 -0.0318  0.2647
 2675W        W21529   8.919  18.424  13.516  0.3312  0.0568  0.4158
 2676W        W21530  16.212   6.425  12.762  0.2284 -0.0647  0.0897
 2677W        W21531  16.630   8.434  14.297 -0.2083 -0.1554  0.0196
 2678W        W21532   1.107   7.389   0.019  0.0605 -0.2436 -0.2313
 2679W        W21533   7.320   2.665  12.953 -0.0120  0.0325  0.0325
 2680W        W21534   2.390   8.125   0.886 -0.3056  0.0942  0.0228
 2681W        W21535  13.157   9.034  12.405  0.1594 -0.2530 -0.0045
 2682W        W21536  14.438  11.756   2.183 -0.0580  0.3256 -0.1115
 2683W        W21537  17.363  11.798  12.632 -0.0680 -0.1598  0.3230
 2684W        W21538   6.160   4.569  13.573 -0.2504  0.1262 -0.0293
 2685W        W21539  16.826   1.921   4.079  0.1724 -0.3606  0.2771
 2686W        W21540   4.699   9.705  11.213  0.0697 -0.0602  0.1669
 2687W        W21541   6.430  18.834   5.235 -0.1411  0.0801 -0.0535
 2688W        W21542  13.811  10.181  12.404 -0.0355  0.2679 -0.0026
 2689W        W21543   3.993  16.178   1.494  0.2115 -0.1437  0.2342
 2690W        W21544   5.102   5.849   0.797  0.2818 -0.2372  0.0469
 2691W        W21545   7.164   3.981   0.007  0.1824 -0.1232 -0.0009
 2692W        W21546   9.496   0.257  14.616 -0.1803  0.0505 -0.3048
 2693W        W21547   2.495   3.841  13.692  0.0071 -0.0991  0.2753
 2694W        W21548  13.358  16.086   1.107  0.3199 -0.2465 -0.0370
 2695W        W21549   0.821  11.973  13.104 -0.0197 -0.0465 -0.1080
 2696W        W21550   0.407  15.437  13.839 -0.2066 -0.1215 -0.2085
 2697W        W21551  16.700   7.032   3.223 -0.2268 -0.0767 -0.0375
 2698W        W21552   0.740   4.843  12.561  0.0404  0.0425 -0.1123
 2699W        W21553   5.355  18.363  14.133 -0.1934 -0.2313 -0.1695
 2700W        W21554   0.975  16.424   2.589  0.3491 -0.1560  0.0022
 2701W        W21555  11.871  10.226  12.346  0.3956 -0.1697 -0.0853
 2702W        W21556  18.932  16.703   3.909 -0.0630  0.0850 -0.2299
 2703W        W21557  10.141   3.601  12.603 -0.2410 -0.2093  0.0409
 2704W        W21558  17.290  11.432  12.958  0.3390 -0.1143  0.0644
 2705W        W21559   3.035  15.154   1.811 -0.1586 -0.1810  0.0698
 2706W        W21560   2.724   2.788  10.834 -0.1480 -0.0756  0.0649
 2707W        W21561  11.850  15.252   1.740 -0.0139  0.0138  0.0441
 2708W        W21562  14.138  12.429   0.415  0.0624 -0.1248  0.1785
 2709W        W21563   5.196   8.856   9.465 -0.2116 -0.4268  0.1346
 2710W        W21564   6.308   2.919  10.669 -0.2307 -0.1265  0.0473
 2711W        W21565   6.609   9.660   3.802  0.2582  0.0140 -0.1110
 2712W        W21566  14.836  10.799  12.466 -0.2002 -0.0098 -0.2625
 2713W        W21567   9.671   2.509  11.818  0.0408 -0.2033 -0.0507
 2714W        W21568  18.771   2.522  14.589 -0.2108  0.2676 -0.2303
 2715W        W21569   4.458   8.201  13.510  0.1004  0.3105  0.0482
 2716W        W21570   0.236   5.785  10.572  0.2472  0.1639  0.0381
 2717W        W21571  13.027   7.106  11.267 -0.0746 -0.0973 -0.0133
 2718W        W21572  16.190  18.437   2.943  0.4532 -0.0135  0.0761
 2719W        W21573  12.029   4.728  11.260  0.1326  0.0537 -0.0967
 2720W        W21574   4.192  18.218   2.249 -0.0815 -0.3210  0.0978
 2721W        W21575   5.786  13.423   2.703 -0.1866 -0.0575  0.2614
 2722W        W21576   7.499   2.054  10.469  0.1904 -0.0651 -0.2016
 2723W        W21577  13.032  17.705   1.270 -0.3383  0.0055  0.1734
 2724W        W21578   3.403  12.938  11.203  0.0665 -0.2315 -0.1560
 2725W        W21579  18.754   7.635   2.384  0.0165  0.2876  0.1637
 2726W        W21580   0.904   9.508  14.246  0.1577 -0.1834 -0.0849
 2727W        W21581  15.493   5.325   0.324 -0.1904 -0.0879 -0.0252
 2728W        W21582  17.143   1.000   1.444  0.1290  0.2372 -0.2790
 2729W        W21583   7.922   9.471   3.469  0.1243  0.1006 -0.2258
 2730W        W21584   6.613   5.380   9.815  0.1487 -0.1258 -0.0859
 2731W        W21585   2.093  12.199  12.767  0.0292  0.0939  0.3490
 2732W        W21586  16.110  13.758  12.996 -0.0096  0.0910  0.2097
 2733W        W21587   9.635  17.483  10.797 -0.0646  0.0365  0.1122
 2734W        W21588   8.229  13.876  13.939  0.1694 -0.0024 -0.1736
 2735W        W21589   2.622  14.618   4.039 -0.2588 -0.1229 -0.2486
 2736W        W21590  16.756  11.611   1.597 -0.0731 -0.1086 -0.1122
 2737W        W21591   7.070  12.896  13.066  0.0433 -0.1140  0.3345
 2738W        W21592   8.105  17.104  14.543  0.4507 -0.0779 -0.1336
 2739W        W21593   0.985  14.048  13.218 -0.1052 -0.1721  0.1299
 2740W        W21594   7.768  14.165  14.016 -0.1333  0.3789  0.0604
 2741W        W21595   0.517   8.483   1.555 -0.0550 -0.0103  0.1013
 2742W        W21596   6.000  17.535  14.285 -0.1517  0.0397 -0.1133
 2743W        W21597   4.872   3.156   1.731  0.0024 -0.2388  0.0586
 2744W        W21598   6.633  16.441  11.138  0.0894  0.3036 -0.1322
 2745W        W21599   2.695  13.207   4.104  0.2505  0.1169  0.2257
 2746W        W21600   5.347   9.773   3.442 -0.4134 -0.3030  0.3348
 2747W        W21601  10.789   9.643   3.789  0.0973 -0.2502 -0.3212
 2748W        W21602   1.519   7.650   2.080 -0.1522 -0.2064 -0.1994
 2749W        W21603  14.531   4.597   2.616 -0.0357  0.3469  0.1854
 2750W        W21604   8.064   3.766   3.233 -0.2732 -0.0684  0.3434
 2751W        W21605   5.562  10.651  13.823  0.0016 -0.0517  0.0734
 2752W        W21606  14.812  15.210  14.551  0.1364 -0.0425 -0.0118
 2753W        W21607   4.669   8.024   2.340  0.0729 -0.2061 -0.0953
 2754W        W21608  11.512   1.503  13.529  0.1014  0.0892 -0.0088
 2755W        W21609   4.048   4.873   3.770  0.0397 -0.0841  0.1554
 2756W        W21610  14.918   6.387  14.364  0.0553  0.1395 -0.0790
 2757W        W21611   4.062   7.094   5.122 -0.1451  0.0425  0.3477
 2758W        W21612   9.292   8.050  14.386  0.2431  0.0066 -0.0994
 2759W        W21613  17.694   1.457  11.128  0.0498 -0.2737  0.1037
 2760W        W21614   5.587   7.316   3.415  0.0470  0.0079  0.0343
 2761W        W21615   1.678   1.544   3.175  0.0163  0.3109 -0.2157
 2762W        W21616   2.112  11.795  11.072 -0.2681  0.0195  0.3702
 2763W        W21617   2.203  14.177   2.929  0.3908 -0.4523  0.0270
 2764W        W21618  13.473   7.333  11.474  0.3866  0.4023  0.2004
 2765W        W21619  18.744  12.750   1.216  0.0608  0.2110 -0.1054
 2766W        W21620   9.307  15.430  14.486  0.0117 -0.0090 -0.1638
 2767W        W21621  14.485   1.025   3.889  0.0619  0.0705 -0.0204
 2768W        W21622   2.753   9.786  13.290  0.0432 -0.2966  0.0555
 2769W        W21623   1.838   9.550  14.594 -0.1538  0.0723  0.1971
 2770W        W21624  12.613  14.392   0.286  0.0303  0.0027  0.1753
 2771W        W21625  12.994   9.079   4.880  0.3897  0.1653  0.1654
 2772W        W21626  17.406  11.030   5.364 -0.1764  0.1157  0.2538
 2773W        W21627  14.751  14.360  12.049 -0.0895  0.0145 -0.0503
 2774W        W21628  13.287   3.326   2.184  0.0233  0.2829  0.2271
 2775W        W21629   8.631   5.614  13.730 -0.1359  0.0982  0.1152
 2776W        W21630  12.434  12.362  11.909  0.2522 -0.1319  0.1640
 2777W        W21631  10.857  12.705   2.857  0.0781  0.0203 -0.0154
 2778W        W21632   9.855  17.091  14.730 -0.0954 -0.1882  0.1793
 2779W        W21633  18.970  18.511   4.482 -0.0722  0.0992  0.2872
 2780W        W21634  18.250  11.705  13.205  0.2064  0.1475 -0.1266
 2781W        W21635   7.180  10.166   2.112  0.1200 -0.0293  0.1197
 2782W        W21636  18.218  10.792   3.218 -0.0193  0.0553  0.0533
 2783W        W21637  11.557  15.206  10.075 -0.0153  0.0297  0.0046
 2784W        W21638   1.573   8.200  12.456  0.4181  0.0511 -0.0493
 2785W        W21639  18.586  18.185   2.265  0.1880 -0.1702  0.2262
 2786W        W21640   1.071  16.261  14.681  0.0075 -0.0131  0.0624
 2787W        W21641   8.065   0.864   0.584  0.0095  0.0833  0.1640
 2788W        W21642  13.700  12.047   0.329  0.2117  0.0674 -0.1121
 2789W        W21643   1.124   7.222  12.226 -0.0665  0.0713  0.3456
 2790W        W21644   1.223  19.039  12.495 -0.0229  0.1119  0.2526
 2791W        W21645  17.146   5.245   0.579 -0.2245 -0.0640  0.4741
 2792W        W21646   5.754  11.546   2.786 -0.3073  0.2296  0.2699
 2793W        W21647   4.606  10.305   0.996  0.1445 -0.2958 -0.0007
 2794W        W21648   3.732   3.925  11.754  0.0551 -0.1658  0.2420
 2795W        W21649  13.028  13.511  12.337  0.1486 -0.2498 -0.1752
 2796W        W21650  16.411  16.643   1.621  0.3794  0.2630  0.0638
 2797W        W21651  13.163   7.292   2.034  0.0577 -0.1070 -0.1483
 2798W        W21652  17.994  13.467  12.990 -0.0109 -0.2553 -0.1349
 2799W        W21653   6.143   9.610  12.397  0.0583  0.1053 -0.2572
 2800W        W21654   3.790   2.150  13.504 -0.1427  0.0292 -0.0789
 2801W        W21655  15.522  16.119   4.187 -0.1069  0.1011 -0.0130
 2802W        W21656  13.354  16.516   1.370 -0.1948  0.1959  0.0184
 2803W        W21657  13.578   8.318  10.308  0.1654 -0.1060 -0.1327
 2804W        W21658   7.464  11.005  13.900  0.0022 -0.4051  0.3995
 2805W        W21659   3.787  15.150   3.756  0.3097 -0.0411 -0.1595
 2806W        W21660   2.521   5.163   2.439 -0.6194 -0.0141 -0.3771
 2807W        W21661   2.536   6.741   2.649  0.0275  0.2504  0.0517
 2808W        W21662  12.426   3.023   3.865  0.1676  0.2016  0.1781
 2809W        W21663   9.720   7.467   3.171  0.0765  0.0718  0.1919
 2810W        W21664   3.470  10.579   4.553  0.0049  0.0847  0.0380
 2811W        W21665   8.131  15.110   1.000 -0.1158  0.0896 -0.0978
 2812W        W21666   7.969  18.487   3.610 -0.0985  0.4689  0.2107
 2813W        W21667   7.099  12.114   1.439 -0.0234 -0.2832  0.3134
 2814W        W21668  17.123   1.460  14.544 -0.0849  0.0812 -0.1630
 2815W        W21669   5.503   4.867   0.605  0.2963 -0.0104 -0.4440
 2816W        W21670   5.094  13.058   2.109  0.0750  0.2920  0.0477
 2817W        W21671  11.221   3.079  11.985  0.1143 -0.0630 -0.2089
 2818W        W21672  12.859  18.705   3.506  0.1169 -0.0094  0.3145
 2819W        W21673  15.472  17.404   1.570  0.0808  0.0344  0.1809
 2820W        W21674   9.625  17.216  13.937 -0.0658 -0.0437 -0.1665
 2821W        W21675  10.199  13.793   4.040 -0.1604  0.3310 -0.1074
 2822W        W21676   2.269  16.967   1.452  0.1523  0.1729 -0.1499
 2823W        W21677   8.259  14.191   1.324  0.1643  0.0757 -0.0023
 2824W        W21678  10.604   6.364   3.861  0.1239 -0.0915 -0.1520
 2825W        W21679  15.467   4.650  14.352 -0.0248 -0.2096 -0.2842
 2826W        W21680   1.683   3.843   3.087  0.0440 -0.3531  0.0150
 2827W        W21681   2.250   6.233  14.006  0.1591 -0.3147 -0.2233
 2828W        W21682   0.721   3.299   0.060 -0.3156 -0.1130  0.4925
 2829W        W21683   5.998   8.063  14.194  0.1706 -0.2695  0.1132
 2830W        W21684  14.939   1.478  13.622  0.1213  0.1470 -0.1393
 2831W        W21685   0.343   1.891   3.273 -0.1406  0.0759  0.1301
 2832W        W21686  10.088   8.662  12.600 -0.0758 -0.1157  0.4099
 2833W        W21687   1.981  19.197  11.402  0.3315 -0.0821 -0.0597
 2834W        W21688  14.281   2.719   3.753 -0.2140  0.2927 -0.3510
 2835W        W21689  14.149   4.808   4.367 -0.1382 -0.0464  0.0125
 2836W        W21690   3.450   8.023   2.544 -0.0373 -0.0781 -0.2534
 2837W        W21691   4.298  11.766   2.589  0.0225  0.0840  0.1969
 2838W        W21692  12.467   0.516   0.922 -0.1391  0.0615  0.0041
 2839W        W21693  10.398   0.843   3.581  0.1103  0.0658  0.1196
 2840W        W21694   2.810  16.984   0.627 -0.0737  0.3609 -0.2654
 2841W        W21695   5.512  10.505  12.493 -0.0129  0.1660  0.0176
 2842W        W21696   1.663  10.679  11.861  0.2373 -0.1810  0.0509
 2843W        W21697  14.602   1.262  12.736  0.0903  0.1103 -0.2105
 2844W        W21698  11.423  18.258   1.215 -0.0573  0.0303  0.1760
 2845W        W21699   3.033   8.396  14.520  0.0073 -0.1804  0.1458
 2846W        W21700  16.691   1.582   3.206  0.0526  0.2789 -0.2101
 2847W        W21701   4.764  15.438   3.074  0.0855 -0.2174 -0.1429
 2848W        W21702  14.309   5.389   0.071 -0.0206  0.0686 -0.0635
 2849W        W21703   3.671  17.840  11.675 -0.1176  0.0520  0.1594
 2850W        W21704  15.991  15.099  12.207 -0.3356  0.2983 -0.2650
 2851W        W21705  16.503  16.950  11.011 -0.0114  0.1046  0.0066
 2852W        W21706  18.255   9.758  12.394  0.1244 -0.0539  0.0223
 2853W        W21707   4.380  14.627   0.534  0.1988  0.3459 -0.0026
 2854W        W21708   9.398  15.336   3.442  0.1972 -0.0812  0.2507
 2855W        W21709   7.876  14.248  11.039  0.1925  0.4686 -0.0031
 2856W        W21710   9.050   9.355   4.332 -0.0757 -0.1860 -0.0735
 2857W        W21711  11.155  15.965  13.313  0.0861 -0.0645  0.0237
 2858W        W21712   9.886  13.570  12.519 -0.0548 -0.0479 -0.3031
 2859W        W21713   2.875   2.774  13.590  0.2800  0.2543  0.1243
 2860W        W21714   1.588  15.267   9.569 -0.2465 -0.3879 -0.2530
 2861W        W21715  14.372  12.038  13.151 -0.0491  0.1929 -0.0018
 2862W        W21716   3.506   6.143  11.860  0.1881  0.0730  0.2989
 2863W        W21717  15.680  17.835   2.663 -0.4132 -0.3686 -0.0751
 2864W        W21718   0.517   9.100  11.328 -0.0021  0.1611 -0.1454
 2865W        W21719   7.284  10.527   2.436  0.2298 -0.1999  0.0146
 2866W        W21720  17.201   8.359   9.900  0.2718  0.0666  0.1565
 2867W        W21721  12.416  10.367   0.788 -0.0915 -0.0556 -0.2667
 2868W        W21722   4.970   3.808   4.254  0.4854 -0.0271  0.2883
 2869W        W21723   0.940  18.030  13.012  0.0884  0.0240  0.3134
 2870W        W21724   4.611  12.579  11.637 -0.0153  0.0695 -0.0202
 2871W        W21725  17.168  15.260  13.336  0.2155  0.1120 -0.1894
 2872W        W21726  18.834   7.966   0.158  0.3549  0.0952 -0.1192
 2873W        W21727  10.142  15.224  11.183 -0.3175  0.1297 -0.2576
 2874W        W21728   5.470  10.354  11.986  0.1865  0.2581  0.2229
 2875W        W21729   0.768  15.144   0.059 -0.0395 -0.0026 -0.1140
 2876W        W21730   6.209   0.816  10.906  0.1175 -0.5772  0.2683
 2877W        W21731  10.942   2.263  12.336 -0.0436 -0.2915  0.0997
 2878W        W21732   2.817  19.140   1.159  0.1249 -0.2050 -0.2095
 2879W        W21733  17.661  16.943  12.174 -0.2963  0.0882  0.1013
 2880W        W21734  14.991   4.070   1.222  0.1522  0.3483  0.2761
 2881W        W21735   9.360   2.314   0.446  0.1447 -0.0298  0.1449
 2882W        W21736  13.041   0.795   3.726  0.0274 -0.3750  0.1464
 2883W        W21737   3.891   0.228  12.412 -0.0305 -0.2208 -0.0743
 2884W        W21738  16.613   6.588   1.746  0.1673 -0.0473  0.3474
 2885W        W21739   2.641  17.842  14.642 -0.1022 -0.0208  0.3205
 2886W        W21740  11.530  18.102  11.319  0.0797  0.0487  0.1389
 2887W        W21741   5.205   7.393  13.807 -0.3446 -0.1087 -0.0321
 2888W        W21742   5.593  12.895   3.307  0.0405  0.0916  0.0932
 2889W        W21743   6.289  17.903   3.020  0.0618  0.1562 -0.0093
 2890W        W21744  13.632   9.220  12.028  0.0619 -0.1161  0.2006
 2891W        W21745   6.580  10.936   9.749 -0.3280  0.2678 -0.0434
 2892W        W21746  18.359  13.866  12.627 -0.1969  0.0953  0.0700
 2893W        W21747   9.229   8.893   2.661  0.1799  0.0459  0.0362
 2894W        W21748   9.567   6.900   2.377  0.0219  0.1432 -0.4592
 2895W        W21749  19.061  11.555   5.087 -0.0584 -0.1000  0.1206
 2896W        W21750  16.820   2.080  12.768 -0.0794  0.0339 -0.0114
 2897W        W21751   4.759  19.035  12.129  0.0170 -0.2252 -0.0909
 2898W        W21752   7.342  19.069  13.507  0.0134 -0.2327 -0.0429
 2899W        W21753  12.301   4.723  10.103  0.2548  0.1199 -0.1891
 2900W        W21754  11.412   2.594  11.221  0.2006  0.0749  0.0290
 2901W        W21755  10.266   7.646  12.514  0.2453  0.0491 -0.1844
 2902W        W21756   4.715  10.928  12.257 -0.0510 -0.0920  0.0710
 2903W        W21757  18.461   6.546   2.026  0.0361  0.1123  0.0634
 2904W        W21758   7.669   9.938  14.624 -0.0198  0.1875  0.2545
 2905W        W21759   6.367   6.480   3.189  0.3198  0.0447  0.1783
 2906W        W21760  11.556  14.699  13.825  0.0598  0.1474 -0.4364
 2907W        W21761   0.191  17.186   3.108 -0.1544 -0.2663 -0.1504
 2908W        W21762   6.368   6.109   2.767  0.0148 -0.3941 -0.0887
 2909W        W21763  16.445  12.196  12.741 -0.0932 -0.0386 -0.2146
 2910W        W21764   2.640  16.920   1.128 -0.1672  0.1386 -0.0568
 2911W        W21765   7.233  13.946  12.987  0.1470 -0.2541 -0.0065
 2912W        W21766   8.067  15.320  12.076 -0.0647 -0.0558 -0.0024
 2913W        W21767   9.381   0.167   4.851  0.3997 -0.1990  0.4006
 2914W        W21768   4.714   5.478  13.851  0.3117 -0.4268 -0.0278
 2915W        W21769   4.452  17.283   3.994  0.2009 -0.1459 -0.1266
 2916W        W21770  10.816  19.145   0.308  0.1151 -0.1285 -0.1899
 2917W        W21771   2.670   4.705  11.414 -0.3762 -0.4699  0.3459
 2918W        W21772   9.415  14.051  11.167 -0.1580 -0.2091 -0.0666
 2919W        W21773  17.260   5.827  10.238 -0.0154  0.2497 -0.1777
 2920W        W21774  17.632   2.203   3.512 -0.2929 -0.2688 -0.0436
 2921W        W21775   6.662   2.630   2.093  0.1700  0.3802  0.3032
 2922W        W21776  10.099   3.346   3.502 -0.1192 -0.1457 -0.1696
 2923W        W21777   1.834   4.836  14.295 -0.1509  0.0384 -0.0298
 2924W        W21778  13.068  16.851   2.828  0.0397 -0.3156 -0.4412
 2925W        W21779   2.299  12.423   0.011 -0.0833  0.0297 -0.1732
 2926W        W21780   4.629   5.736   9.481  0.2647 -0.2709  0.1258
 2927W        W21781   8.881  18.186  12.677  0.0799  0.3258 -0.0956
 2928W        W21782   1.988   1.447  12.514 -0.2104  0.0603 -0.0730
 2929W        W21783  15.424   2.204  11.537 -0.1886 -0.1742 -0.0632
 2930W        W21784   2.988   8.712  11.971  0.0554  0.0530 -0.2576
 2931W        W21785   8.960  13.389  12.284 -0.0538 -0.1031 -0.1555
 2932W        W21786   8.001  16.291  14.437 -0.2676 -0.2234  0.0896
 2933W        W21787  12.712  13.589   3.070 -0.1508  0.0819 -0.4141
 2934W        W21788  10.348  16.379   0.990  0.0542 -0.0880 -0.2315
 2935W        W21789  16.884  13.211  11.730 -0.1624  0.2663 -0.0963
 2936W        W21790  13.894   5.984  12.587 -0.1825  0.0907  0.0894
 2937W        W21791  14.134   7.806  10.310  0.0477  0.5210  0.0164
 2938W        W21792  11.449   4.602   3.595 -0.0168  0.1755 -0.1490
 2939W        W21793  17.081   2.691  12.157 -0.4100  0.0993  0.1093
 2940W        W21794  16.759  14.350  13.474  0.0285  0.0496  0.2519
 2941W        W21795  11.691   2.505   3.768 -0.0254  0.0212  0.0701
 2942W        W21796   3.676   5.563   2.237  0.1147  0.0353  0.2729
 2943W        W21797   7.102   9.483   3.453  0.0733  0.0063  0.1012
 2944W        W21798   1.093   6.437  14.422  0.0552 -0.2733 -0.0109
 2945W        W21799  10.286  11.419  10.175 -0.0270 -0.2820  0.0436
 2946W        W21800   3.770  18.359  11.842 -0.2733  0.0364 -0.0292
 2947W        W21801   8.821   5.383  14.503 -0.2327  0.4507  0.0613
 2948W        W21802   5.719   6.795  13.264  0.0784  0.1168 -0.4518
 2949W        W21803   6.880  15.680   3.598 -0.1336 -0.1898 -0.0969
 2950W        W21804   3.345   6.352  11.350 -0.2454  0.3702 -0.1522
 2951W        W21805  13.218   8.256   0.860 -0.0423 -0.0319  0.0962
 2952W        W21806   4.624   9.691   3.980 -0.2758 -0.3746  0.1260
 2953W        W21807   0.045  18.045  13.965  0.0760  0.0347 -0.0425
 2954W        W21808   1.473   5.230  13.584 -0.3957 -0.1045 -0.1869
 2955W        W21809  11.763   9.578   0.284  0.0423 -0.2299  0.1361
 2956W        W21810  17.172   2.993   3.533 -0.2446 -0.0279 -0.1247
 2957W        W21811  10.771  10.894   2.067 -0.1301  0.1639 -0.0873
 2958W        W21812  18.976   8.234  11.991 -0.0290 -0.0935 -0.1591
 2959W        W21813   9.485  18.190  13.833  0.2269 -0.2805  0.0810
 2960W        W21814  10.649  10.600   3.645 -0.0176  0.0894 -0.0582
 2961W        W21815   1.664  17.801   0.270 -0.2969  0.1247  0.2163
 2962W        W21816  18.099   2.527  13.539 -0.0595 -0.1564  0.2125
 2963W        W21817   2.434  10.960  13.397 -0.1202 -0.1021 -0.1033
 2964W        W21818   5.109  13.183  13.497  0.0326  0.1079 -0.0508
 2965W        W21819  11.882   9.329  10.152  0.3275 -0.0105  0.0448
 2966W        W21820   1.215  18.747  13.473 -0.2285  0.0824 -0.0383
 2967W        W21821  16.339   0.267  11.848  0.0032 -0.4473  0.0443
 2968W        W21822   3.734   0.449  13.387 -0.0543  0.0181  0.0005
 2969W        W21823   2.365  18.129  11.481 -0.0760 -0.0010 -0.2762
 2970W        W21824   8.907   5.234  11.544  0.0479  0.1005  0.0776
 2971W        W21825   4.750   1.164   4.319 -0.2625  0.1808 -0.0908
 2972W        W21826   0.057   5.624   1.407  0.2357  0.2823 -0.1330
 2973W        W21827  17.594   8.686   3.498 -0.0768  0.0018 -0.3913
 2974W        W21828   7.916  14.593   4.205  0.1148  0.1102  0.2943
 2975W        W21829   7.498  15.665  12.961 -0.1694 -0.2273  0.2488
 2976W        W21830  19.047   3.759   2.367  0.2311 -0.0353  0.1763
 2977W        W21831  17.154  10.529   1.832  0.1348  0.0697  0.3631
 2978W        W21832  19.055   5.603  11.812 -0.3608  0.2998 -0.1266
 2979W        W21833   8.186   1.596   1.945 -0.1663 -0.1589 -0.0711
 2980W        W21834   5.944  12.681   4.083 -0.1412 -0.1689  0.2395
 2981W        W21835  17.266  18.185  11.002 -0.0532  0.0148  0.0867
 2982W        W21836   9.816  18.817  11.567  0.2844  0.2650  0.1033
 2983W        W21837  13.540  15.314  12.282  0.0378  0.0341 -0.1121
 2984W        W21838  13.425   2.010  14.594  0.3129  0.1939 -0.0055
 2985W        W21839  13.695   0.041  10.382 -0.3181  0.1426  0.3305
 2986W        W21840  16.671   1.511  11.984  0.1843  0.7638 -0.2869
 2987W        W21841   9.196  16.205   0.335 -0.0812 -0.2530  0.1184
 2988W        W21842  10.982  11.549   2.152 -0.1944 -0.2066  0.0060
 2989W        W21843  17.595   4.622   3.541  0.1365  0.0526  0.1012
 2990W        W21844   5.019  13.980  11.280 -0.3083 -0.0325 -0.0053
 2991W        W21845  17.665   3.345   0.038 -0.2774  0.0450 -0.2696
 2992W        W21846  19.185   6.623   2.630 -0.0502  0.2973 -0.1075
 2993W        W21847  17.199   1.540  11.353  0.2766  0.0413  0.1188
 2994W        W21848  15.712   6.122   3.523  0.0853  0.2041  0.0512
 2995W        W21849  10.301   8.428   4.477  0.0463  0.0161  0.0533
 2996W        W21850  17.493  14.268  12.614  0.0870 -0.0910  0.3908
 2997W        W21851   4.290   4.269  12.293  0.1982  0.4009  0.1210
 2998W        W21852  10.465  15.322   1.223  0.2144  0.1697  0.2811
 2999W        W21853  10.662   5.458  13.242 -0.0882 -0.2074  0.2417
 3000W        W21854  17.951  10.658  12.577  0.1053  0.0099 -0.3483
 3001W        W21855  17.318   3.099   2.274  0.3129 -0.2309  0.2544
 3002W        W21856  15.568  10.579   3.336  0.0199 -0.2317 -0.0457
 3003W        W21857   2.913   5.402   1.324 -0.3688 -0.1192  0.0639
 3004W        W21858   8.448   4.456  10.615  0.0330  0.0843 -0.1434
 3005W        W21859   7.133   7.075  12.424 -0.0912 -0.1275  0.3851
 3006W        W21860  11.972  10.781  11.809  0.0241  0.3852  0.0411
 3007W        W21861  18.387   7.222   1.331 -0.4009 -0.0978  0.3595
 3008W        W21862  14.149  10.014  10.541 -0.1211  0.1930  0.1174
 3009W        W21863   2.082  12.606   0.513 -0.3440  0.0978 -0.1041
 3010W        W21864  12.977  10.873  11.838  0.1576 -0.2364  0.1557
 3011W        W21865   1.343   0.815  14.014  0.0442  0.0275 -0.0171
 3012W        W21866   9.716   6.343   1.261 -0.2678 -0.1730 -0.0590
 3013W        W21867  11.773  13.682   2.300  0.0435 -0.0860  0.2604
 3014W        W21868  12.473   2.615  13.298 -0.3308 -0.1372 -0.2035
 3015W        W21869   5.965  15.918   4.320  0.0899 -0.1219  0.3799
 3016W        W21870   9.074   8.796  12.295  0.2370  0.1529 -0.4056
 3017W        W21871  11.559   4.413  13.791 -0.1994  0.2156  0.3294
 3018W        W21872  17.257  11.109   0.368  0.0808  0.2491 -0.0223
 3019W        W21873   3.670   5.211  13.054  0.1729  0.0137 -0.3483
 3020W        W21874  16.585   1.248  11.552  0.1763 -0.1639  0.2041
 3021W        W21875   6.514   8.984   2.900 -0.0033  0.2955 -0.1453
 3022W        W21876   0.945   7.910   0.790  0.0753  0.1332 -0.0194
 3023W        W21877   0.332   6.380   3.795  0.2282 -0.0620 -0.0718
 3024W        W21878  12.940  10.134   0.636 -0.0614  0.0440 -0.1465
 3025W        W21879  16.398   5.505  12.303  0.0626  0.3559 -0.2357
 3026W        W21880   1.106   2.984   3.975  0.0024 -0.0658 -0.2852
 3027W        W21881  17.021   8.829  11.499 -0.0113  0.1487 -0.0611
 3028W        W21882   6.922   1.931   3.651 -0.2607 -0.2286 -0.0142
 3029W        W21883  10.520   7.323  14.334 -0.0860 -0.1967 -0.0418
 3030W        W21884   6.507  13.485   4.238  0.0311 -0.1737 -0.2092
 3031W        W21885   5.640   1.235  13.937 -0.5298 -0.2098  0.1073
 3032W        W21886  18.878   6.398  12.144  0.1692 -0.1532 -0.0852
 3033W        W21887   0.011  15.656  12.936  0.2343 -0.2323 -0.2074
 3034W        W21888  14.840  10.434  13.337  0.0925 -0.4174 -0.2710
 3035W        W21889  17.316  15.105   0.356 -0.1166 -0.0239 -0.2662
 3036W        W21890   5.051  10.516  12.288  0.0405  0.1302  0.0162
 3037W        W21891  15.000   2.964  14.696  0.0606  0.0293 -0.4519
 3038W        W21892  18.680   9.816  11.944 -0.0687  0.2265  0.1036
 3039W        W21893  17.466   0.674   4.585  0.0723 -0.1312  0.3721
 3040W        W21894  15.638   9.545  11.826  0.0115 -0.2488 -0.3344
 3041W        W21895   4.383  10.113  12.228 -0.1534  0.0696  0.0509
 3042W        W21896   6.621  14.486  11.924 -0.0891  0.0369 -0.0272
 3043W        W21897   2.818  15.705   0.167 -0.2036 -0.1243 -0.1782
 3044W        W21898   5.201  10.961   3.795  0.0854 -0.1452 -0.0858
 3045W        W21899  14.159  16.773   2.595 -0.0625 -0.2144  0.1121
 3046W        W21900  11.785  11.226  13.199  0.1504 -0.0045 -0.3113
 3047W        W21901  13.914  11.646  12.259 -0.0362  0.0448  0.0563
 3048W        W21902  16.410   9.915   2.121  0.0686 -0.2249 -0.2516
 3049W        W21903   7.741  12.481   4.820 -0.1071 -0.0109 -0.0208
 3050W        W21904  17.674   8.010   2.088 -0.1206  0.0501  0.0799
 3051W        W21905   2.957  14.037  13.963 -0.1274 -0.1164 -0.1801
 3052W        W21906   8.330   1.282  11.026  0.3710  0.0798 -0.0444
 3053W        W21907  13.650  11.351   4.111  0.2004  0.1730 -0.2756
 3054W        W21908  16.114   4.204  12.744 -0.2847 -0.0849  0.0400
 3055W        W21909   1.122   8.947  12.400  0.4881  0.0898 -0.0367
 3056W        W21910  15.382  15.530   1.309 -0.2764 -0.0334  0.3910
 3057W        W21911   0.594   5.161   0.001 -0.3755  0.1267  0.0177
 3058W        W21912  18.252  13.697   0.374 -0.2358 -0.0286 -0.1574
 3059W        W21913  13.452   6.095  12.422  0.3428 -0.1973  0.4326
 3060W        W21914   6.027   1.038  12.576  0.3153  0.1839  0.1044
 3061W        W21915   2.199  11.876  13.615 -0.1134 -0.0420 -0.0675
 3062W        W21916  16.049  18.014   0.767  0.2451  0.1759 -0.0977
 3063W        W21917   0.581  11.647  12.306  0.0820  0.1817  0.1187
 3064W        W21918   3.863   3.940   1.673  0.1511  0.0663  0.0097
 3065W        W21919  14.056   0.274  14.198 -0.2442  0.0419  0.0192
 3066W        W21920  12.721   6.718  11.567  0.0697  0.0244 -0.1673
 3067W        W21921  18.753  17.960  14.005 -0.2063  0.1948 -0.0847
 3068W        W21922  12.936   7.606   1.571 -0.0093 -0.0497  0.1809
 3069W        W21923  12.925  11.249  11.131 -0.1837 -0.0283 -0.0261
 3070W        W21924  19.181  11.672  13.211  0.1563  0.2521  0.0613
 3071W        W21925   8.708  18.689  10.741 -0.0364  0.2403  0.1142
 3072W        W21926  13.836  18.959   3.614  0.4027  0.2556  0.1649
 3073W        W21927   6.287   7.240  11.519 -0.1123  0.0101  0.0314
 3074W        W21928   6.980   7.061   0.196 -0.2843  0.0301 -0.3519
 3075W        W21929  11.190  18.300  14.623 -0.0414  0.0740 -0.4860
 3076W        W21930  13.524  14.917  10.728 -0.1353 -0.2950 -0.0145
 3077W        W21931  11.079  10.554   0.260 -0.3237 -0.0056 -0.0771
 3078W        W21932  14.406   0.899  14.299  0.0705  0.1387  0.0947
 3079W        W21933   7.816   1.111   2.089  0.1576 -0.0992 -0.3814
 3080W        W21934   1.741   8.046   4.011  0.1268  0.1931 -0.0763
 3081W        W21935  11.987  16.895   3.564  0.1873  0.1047  0.0662
 3082W        W21936   2.039  18.076   3.280 -0.0162  0.0992 -0.1869
 3083W        W21937   4.828   4.655  12.936 -0.0353  0.0565 -0.0409
 3084W        W21938   9.922   7.411  14.619 -0.2249 -0.0755 -0.1227
 3085W        W21939   6.580  13.649  13.247 -0.0164  0.2077 -0.1054
 3086W        W21940  10.274   5.361   0.257  0.0544  0.0975 -0.0479
 3087W        W21941  15.651   2.442  12.290 -0.3025 -0.1086 -0.4057
 3088W        W21942   9.195  15.721  12.069  0.0657 -0.1195 -0.0726
 3089W        W21943   6.867   1.937  11.339 -0.3671 -0.2864 -0.2210
 3090W        W21944   1.634  15.680  10.271 -0.0533  0.1178 -0.1443
 3091W        W21945  19.032   2.203  11.859  0.1838 -0.2362  0.0015
 3092W        W21946  10.544  18.702  14.141  0.0451 -0.1623  0.0333
 3093W        W21947   7.824   7.399   0.833 -0.0122  0.5514  0.1327
 3094W        W21948  14.339  11.372   1.882  0.0109  0.1309 -0.1040
 3095W        W21949   3.636   6.677  12.515  0.1076 -0.1005 -0.0801
 3096W        W21950   3.294  17.769   3.504 -0.0272  0.3339  0.1731
 3097W        W21951   5.398  16.724   3.727  0.0347  0.3788  0.0367
 3098W        W21952   2.430  15.511   3.201  0.3852  0.0717  0.1441
 3099W        W21953  17.581   3.157  11.252 -0.0630  0.3911 -0.1921
 3100W        W21954  18.342   7.615   3.570  0.1313 -0.3374 -0.2621
 3101W        W21955  17.711  13.109   1.376 -0.0481  0.3059  0.0903
 3102W        W21956  13.503  11.575   0.392  0.3422  0.2189  0.0181
 3103W        W21957   7.148   3.168  10.785 -0.1625  0.2637 -0.0749
 3104W        W21958   0.579  18.385  14.061  0.0876  0.0398 -0.0212
 3105W        W21959  10.626   8.293  12.069 -0.1549  0.1645 -0.0856
 3106W        W21960   5.009   0.431   5.226  0.0778  0.2454  0.4406
 3107W        W21961   6.790  16.080   2.719  0.0178  0.1401  0.2400
 3108W        W21962  17.308  12.059  13.060  0.1728 -0.0146 -0.4123
 3109W        W21963   7.987   0.334   4.322  0.0654 -0.2755  0.2492
 3110W        W21964  15.661  10.374  10.509  0.7219 -0.0813 -0.2642
 3111W        W21965  10.035  14.731  12.538 -0.0835 -0.0960  0.0330
 3112W        W21966   7.930  14.609  12.045  0.1625  0.1967  0.2002
 3113W        W21967  16.233   5.797   2.471 -0.0205  0.1831 -0.2053
 3114W        W21968   1.230  16.561   3.107  0.1899 -0.0688  0.1789
 3115W        W21969   8.345   6.453   1.553  0.0297  0.0059 -0.3716
 3116W        W21970   8.013   7.640  12.123  0.0969  0.0750  0.1315
 3117W        W21971   3.360  16.818  12.693 -0.3204  0.4188 -0.0610
 3118W        W21972   8.387  14.026  13.449 -0.1984 -0.0232 -0.1700
 3119W        W21973   0.914   9.161   3.015 -0.5313 -0.0154  0.1047
 3120W        W21974   4.463  15.950  14.429 -0.1516 -0.1806  0.0829
 3121W        W21975   8.926  15.654   3.373  0.0367  0.2012 -0.1854
 3122W        W21976   1.223   4.064   0.059  0.0610 -0.0442 -0.2388
 3123W        W21977  12.724   2.609   4.031  0.1130  0.0535 -0.0812
 3124W        W21978  11.812   9.181   1.589 -0.1235  0.1907  0.1112
 3125W        W21979   5.473  18.192  14.571  0.2208  0.0587  0.2486
 3126W        W21980   3.587   1.491  11.674 -0.1915 -0.3024  0.1004
 3127W        W21981  18.563  14.905   1.153 -0.3372  0.2795  0.2802
 3128W        W21982   0.959  12.600  11.339 -0.0517 -0.5613  0.2437
 3129W        W21983  15.709  12.910  12.741  0.1395  0.3361  0.0160
 3130W        W21984  13.096   5.892  10.503  0.1817  0.0871  0.0610
 3131W        W21985  16.745   8.937  10.573  0.0636 -0.1408  0.2547
 3132W        W21986   4.711  12.566  14.445 -0.2734  0.2793 -0.1958
 3133W        W21987  16.521   1.455   1.013 -0.0927  0.0104  0.4389
 3134W        W21988   5.876  17.724   2.267  0.3465 -0.1135 -0.0777
 3135W        W21989  12.616  17.882  11.700  0.2355 -0.1829 -0.0244
 3136W        W21990  16.511   5.134   9.424 -0.0637 -0.3690  0.1256
 3137W        W21991   4.973  15.103  11.216  0.0558  0.0103  0.1403
 3138W        W21992  12.574   7.694   2.339 -0.0175  0.2205 -0.0684
 3139W        W21993  13.344   7.811   1.129  0.0827  0.3639 -0.1848
 3140W        W21994  15.764   2.288   3.518 -0.4597 -0.2460  0.0338
 3141W        W21995   6.563  13.859   0.722 -0.1439 -0.1692 -0.3528
 3142W        W21996  18.273   2.150   1.413 -0.1804 -0.1733 -0.1181
 3143W        W21997   3.294   5.363  11.517  0.2575  0.1645 -0.2442
 3144W        W21998  17.117  15.623   1.094  0.1504 -0.2348  0.1506
 3145W        W21999  10.818  11.100  10.711 -0.1019  0.4532  0.1033
 3146W        W22000   5.749   0.649  11.659 -0.1343 -0.3376  0.1847
 3147W        W22001  18.875   4.076  14.732 -0.1155  0.3764  0.4479
 3148W        W22002   3.157   2.944   4.661 -0.0086  0.2501 -0.1625
 3149W        W22003   8.574  13.738  10.898  0.0730 -0.2976 -0.0885
 3150W        W22004  16.389   4.183   3.625 -0.0381 -0.1859  0.0934
 3151W        W22005  13.954   5.157  13.490  0.0897  0.1025  0.0466
 3152W        W22006   8.056  10.022  11.922 -0.2035  0.3870 -0.0430
 3153W        W22007   2.505   6.554   1.101 -0.0703  0.0574 -0.1233
 3154W        W22008  17.956   8.341  10.374 -0.2663 -0.1929 -0.1105
 3155W        W22009   8.322  10.272   1.555 -0.4396 -0.0159  0.1789
 3156W        W22010   8.941  10.539   3.325 -0.0079  0.2118 -0.0959
 3157W        W22011  18.098   0.254  14.011 -0.2721 -0.2275 -0.2781
 3158W        W22012  14.023   2.350  13.391  0.1705 -0.1713  0.1790
 3159W        W22013   1.128   5.486  13.859  0.3564  0.0203 -0.1873
 3160W        W22014   3.497   2.510   3.808  0.1387  0.0891  0.0913
 3161W        W22015  12.591   3.132  14.517 -0.1910  0.0459  0.1908
 3162W        W22016  15.850   4.613  12.892 -0.1904 -0.0240  0.4475
 3163W        W22017  17.892  19.143   3.221  0.1108 -0.0438 -0.1494
 3164W        W22018  12.539   1.898   1.802  0.1274  0.3258  0.0770
 3165W        W22019   9.124   7.796   2.535  0.1494  0.0744 -0.0627
 3166W        W22020  16.701   6.231  14.661  0.0912  0.0170 -0.0432
 3167W        W22021  14.723  14.381   3.676 -0.4967 -0.1640 -0.1873
 3168W        W22022   4.734  16.398   2.753 -0.2795 -0.0404  0.2480
 3169W        W22023   8.951  13.615   3.096 -0.0228 -0.2154  0.0414
 3170W        W22024  16.091  16.453  14.037  0.0139  0.1436 -0.2649
 3171W        W22025  13.614  15.994   0.172  0.0662 -0.1401 -0.1178
 3172W        W22026  13.652   5.343   1.421 -0.0312  0.0271 -0.0586
 3173W        W22027  16.872   9.090   3.042 -0.1529 -0.0780  0.0608
 3174W        W22028  12.927   9.506  14.396 -0.0418  0.0355 -0.2146
 3175W        W22029   7.954   0.100  12.896  0.1052  0.3018  0.1352
 3176W        W22030   1.049  12.111  11.083 -0.0949 -0.2939  0.2617
 3177W        W22031  13.213  11.437   1.556 -0.0899  0.0174 -0.3587
 3178W        W22032   1.468  10.855  14.073 -0.0339 -0.0040 -0.0074
 3179W        W22033  10.882  17.256   1.099 -0.0696  0.3226 -0.0487
 3180W        W22034   1.687  13.744   3.594  0.0595  0.4303  0.2989
 3181W        W22035  18.059   4.033   2.251 -0.2236  0.0816 -0.1978
 3182W        W22036   3.353   9.830   1.711  0.0035 -0.1231  0.1544
 3183W        W22037   9.920   3.750  11.025 -0.0253  0.1169 -0.2148
 3184W        W22038  13.462   2.607  13.373  0.1487  0.3397  0.2082
 3185W        W22039  18.660  16.122   0.685 -0.0804 -0.0877  0.1548
 3186W        W22040  17.460   1.537   3.713 -0.2402  0.0379  0.2145
 3187W        W22041  17.837  17.132  11.130  0.1724 -0.2650  0.0386
 3188W        W22042   5.522   0.699   2.366  0.0851 -0.1159  0.0773
 3189W        W22043   0.821   2.796   0.248 -0.0895 -0.0361  0.0918
 3190W        W22044   0.089   1.862   2.854  0.3455  0.2792 -0.2029
 3191W        W22045  12.168   5.235  10.404 -0.0192 -0.0766 -0.0447
 3192W        W22046   7.913   0.038   4.789  0.2105 -0.1496  0.0377
 3193W        W22047  18.715   6.184   0.380  0.4089 -0.2410  0.0060
 3194W        W22048  14.211  14.185   0.351 -0.1172 -0.0297 -0.1494
 3195W        W22049  17.181   9.213  13.907 -0.2187  0.1515  0.1494
 3196W        W22050  10.893   2.876  13.714 -0.1413 -0.0599  0.1095
 3197W        W22051  13.479   7.977  12.871  0.1917  0.0442 -0.3465
 3198W        W22052   2.104  10.140   0.055  0.1501  0.0695 -0.2199
 3199W        W22053   0.024  15.944  10.035 -0.1473  0.4569 -0.1739
 3200W        W22054  10.601   3.677   4.034  0.1339 -0.2707 -0.1805
 3201W        W22055  16.067  17.419  12.169  0.0921  0.2837 -0.3000
 3202W        W22056   0.368  19.008   2.371  0.0285 -0.0814  0.0449
 3203W        W22057  10.907  12.607  10.202 -0.0953 -0.1317 -0.1355
 3204W        W22058   5.256   8.008  10.782  0.0164  0.1359  0.4782
 3205W        W22059  13.833  11.813   9.241  0.0603 -0.2788  0.1602
 3206W        W22060   2.395  14.147   4.220  0.1714  0.3839 -0.0749
 3207W        W22061   9.336  17.493   1.040 -0.0300 -0.2694 -0.1051
 3208W        W22062  16.340  12.157   2.972 -0.4009 -0.0080 -0.3710
 3209W        W22063  12.626   8.222   3.594 -0.1958 -0.3566 -0.2528
 3210W        W22064  16.715  18.079  13.998 -0.1768 -0.1786 -0.2153
 3211W        W22065  18.529  18.200   0.209  0.0321  0.1285 -0.1988
 3212W        W22066   5.806  13.779  10.369  0.1002  0.3580  0.0733
 3213W        W22067  11.786  13.625  11.025  0.1231 -0.0506  0.0340
 3214W        W22068   6.715   5.245  11.246 -0.1931 -0.3362 -0.0767
 3215W        W22069  17.232   0.087  12.892 -0.0111  0.1430 -0.1225
 3216W        W22070   5.086   8.460   0.025  0.0705  0.2908  0.1074
 3217W        W22071   2.083   2.911   2.841 -0.2988  0.0726 -0.1040
 3218W        W22072  18.343   5.649  12.600 -0.2486 -0.1269 -0.2195
 3219W        W22073  13.258   4.024  13.785  0.3236 -0.1558 -0.3382
 3220W        W22074  13.198  11.938  11.960  0.0579  0.1025  0.1502
 3221W        W22075   3.492   2.777   4.282 -0.1332 -0.1026 -0.3665
 3222W        W22076   7.149   6.349   4.164 -0.3997 -0.0192  0.0276
 3223W        W22077   1.066  10.351  13.409  0.3569 -0.1051  0.2549
 3224W        W22078  16.760  13.715  13.520  0.1805 -0.2440 -0.0078
 3225W        W22079  12.031  14.684  11.151  0.2965 -0.2488  0.3510
 3226W        W22080   2.107  13.309   3.211  0.0262 -0.1410 -0.1798
 3227W        W22081  12.201   6.843  12.107 -0.3190 -0.2305 -0.0617
 3228W        W22082  14.326  10.224   2.979 -0.1273  0.0177  0.1087
 3229W        W22083   8.185  10.031   1.122  0.1962 -0.4217  0.0072
 3230W        W22084  17.985  14.634  14.461  0.0580 -0.0123 -0.1310
 3231W        W22085  11.201  16.979   3.234  0.2415 -0.1800  0.0200
 3232W        W22086  16.986   5.454  13.822 -0.0714  0.1551  0.3256
 3233W        W22087  13.357  15.542   3.436 -0.1718  0.0962  0.0735
 3234W        W22088  12.489   6.607   2.086  0.1204  0.1412  0.2402
 3235W        W22089   4.661   6.158   2.651  0.0033 -0.1563  0.0518
 3236W        W22090   2.612   8.518  13.655 -0.1770 -0.0124 -0.1378
 3237W        W22091   4.603  14.949  11.669 -0.3441  0.3373  0.0793
 3238W        W22092  12.707   5.479   0.157  0.2444  0.0129  0.1585
 3239W        W22093   7.370  15.771   1.255 -0.2011 -0.0452 -0.0955
 3240W        W22094   4.701   4.653  12.406  0.0812  0.3586  0.2259
 3241W        W22095   1.347   2.474   1.211  0.1092 -0.5123 -0.2463
 3242W        W22096   6.504   8.440  11.676 -0.1232  0.0244 -0.1174
 3243W        W22097   2.128   0.779   2.886  0.4529  0.0239  0.1227
 3244W        W22098  16.228  10.873   0.956  0.2190  0.1171  0.3003
 3245W        W22099   4.042  17.348   1.826  0.0185 -0.1990  0.0964
 3246W        W22100  18.155  17.895   1.544 -0.0310 -0.0254  0.5399
 3247W        W22101   3.908   3.129   1.525  0.0154 -0.1584  0.0880
 3248W        W22102   6.006  16.218   2.192 -0.1689 -0.0604  0.2105
 3249W        W22103  12.977   5.794  12.307  0.1461  0.0645  0.1558
 3250W        W22104   3.148   9.257  11.070 -0.0819 -0.1397 -0.3263
 3251W        W22105  12.414  11.888   2.422  0.2401  0.2239 -0.1197
 3252W        W22106  11.696  12.189   1.973 -0.0297  0.0820 -0.0350
 3253W        W22107   8.226   5.863   0.751  0.4326  0.1329  0.2353
 3254W        W22108   8.729  16.010   0.227 -0.0960 -0.0647  0.3467
 3255W        W22109   5.776  16.387  12.569  0.2783 -0.0507  0.0234
 3256W        W22110   4.953  13.218   0.875  0.1030  0.2367 -0.0412
 3257W        W22111   5.600  15.828   3.881  0.2897 -0.1089 -0.2261
 3258W        W22112  13.745   9.514  12.936  0.1676 -0.2026  0.0555
 3259W        W22113   8.161  17.794   2.860  0.2944  0.2152 -0.1531
 3260W        W22114  10.611  12.613  14.020  0.1906  0.1727 -0.0447
 3261W        W22115  15.909   6.299  10.690 -0.0542  0.0976 -0.0021
 3262W        W22116   9.515   9.873  14.073 -0.1537 -0.2952 -0.1329
 3263W        W22117   0.597  12.454   3.511 -0.1630 -0.1066  0.2445
 3264W        W22118  18.831   9.928  12.425  0.0384 -0.0034  0.1037
 3265W        W22119  16.534  16.182  13.173  0.4502 -0.0216  0.1750
 3266W        W22120   5.711  16.982  10.170  0.0290  0.1892 -0.0436
 3267W        W22121   3.060  14.375   1.467 -0.3987  0.0130  0.0219
 3268W        W22122   0.692  14.026  12.754  0.0081  0.0066  0.0934
 3269W        W22123  10.978  11.091   2.457 -0.0685  0.4288 -0.0355
 3270W        W22124  18.343  17.773   2.994  0.1784  0.2453 -0.2104
 3271W        W22125   8.268   1.553   2.873  0.0772 -0.0724 -0.0574
 3272W        W22126   8.821  13.015   2.230  0.0934 -0.0852 -0.0624
 3273W        W22127   1.489  18.245  11.585  0.0179 -0.5793  0.0383
 3274W        W22128   3.833  16.956  12.835 -0.0087  0.0723  0.0845
 3275W        W22129  10.502  10.662  10.525  0.2489 -0.2419 -0.0305
 3276W        W22130   5.369   1.946   3.135 -0.2351 -0.0946  0.0704
 3277W        W22131   3.259  18.732  11.587  0.0417  0.3454  0.0176
 3278W        W22132   3.324  13.172  12.953 -0.2218 -0.0220  0.1524
 3279W        W22133   3.120  10.932  13.477 -0.1501  0.1719 -0.0543
 3280W        W22134   9.584  11.677  12.119  0.1111 -0.0098  0.1416
 3281W        W22135   7.468   4.338  12.256  0.0711 -0.0883 -0.2761
 3282W        W22136  15.622   5.735   1.837 -0.0139  0.0489 -0.1298
 3283W        W22137   1.364   9.345  12.634 -0.0519  0.5636  0.0036
 3284W        W22138   5.501  11.238   2.268  0.1084  0.2353 -0.2513
 3285W        W22139  13.523  12.075   2.280  0.1351 -0.0099  0.1608
 3286W        W22140  10.734  14.702   2.710 -0.1003 -0.1083 -0.2168
 3287W        W22141  12.644   4.250   0.220  0.1457 -0.1419  0.0120
 3288W        W22142   5.931   1.427  11.658 -0.1986  0.1868 -0.2569
 3289W        W22143  15.958  17.765  10.776 -0.0367 -0.1913 -0.0071
 3290W        W22144  11.441  16.137  10.409 -0.0328 -0.3244  0.0830
 3291W        W22145  18.986  11.472   3.900  0.0298  0.1682 -0.0868
 3292W        W22146   0.370   8.066   9.398  0.0346 -0.0778  0.0220
 3293W        W22147   8.199   5.411   1.017  0.1563  0.1108  0.1599
 3294W        W22148  14.488  13.834  13.850 -0.4187  0.1007  0.1248
 3295W        W22149  15.172  15.836  13.942  0.1111 -0.1338 -0.2688
 3296W        W22150  14.421   8.401  10.725  0.0464 -0.2498 -0.0040
 3297W        W22151   2.088  17.400  11.299 -0.0497 -0.0383 -0.1294
 3298W        W22152  18.638  17.982   9.724  0.2068 -0.1360  0.0279
 3299W        W22153  14.926   4.901  12.888  0.0546 -0.2388  0.1608
 3300W        W22154  16.384   0.499   1.878  0.2979 -0.0496 -0.2385
 3301W        W22155   0.934  11.870   1.932  0.0141 -0.2458  0.1882
 3302W        W22156   9.544   5.635  11.024  0.2209 -0.2690  0.1753
 3303W        W22157   4.478   7.279   1.890 -0.1885  0.0066  0.2326
 3304W        W22158  11.259  13.715   0.685 -0.1471  0.3754 -0.2393
 3305W        W22159  14.621  15.066  11.100 -0.2327  0.1706 -0.2120
 3306W        W22160   7.489  16.151   5.857 -0.3829  0.2586  0.0644
 3307W        W22161  12.153  11.178   1.796  0.1942 -0.2344 -0.1432
 3308W        W22162  12.006  11.237  13.768 -0.0111 -0.1196  0.2035
 3309W        W22163  17.971  10.834  13.067  0.1510  0.1440 -0.0384
 3310W        W22164   4.975   2.418   0.260 -0.0949 -0.2423  0.1363
 3311W        W22165  16.871   3.224  11.468  0.0861  0.0541 -0.4383
 3312W        W22166   6.547   5.445  13.376 -0.0531 -0.2286 -0.1044
 3313W        W22167   7.590  13.212   4.023 -0.0108  0.0454  0.0045
 3314W        W22168  13.698  15.358   0.283  0.3990  0.1058 -0.0315
 3315W        W22169   7.165   4.423  14.365 -0.0052  0.1245 -0.0828
 3316W        W22170  12.382   1.458   1.772 -0.1847  0.0593  0.0447
 3317W        W22171   6.967  16.019   5.797  0.0233  0.1981  0.2873
 3318W        W22172  15.214  15.455  11.011 -0.0352  0.1682 -0.0085
 3319W        W22173  16.606  10.015  11.730  0.0654  0.1967  0.0772
 3320W        W22174  14.694  11.729   0.405 -0.4422  0.0565  0.0604
 3321W        W22175  17.457   5.893   4.091 -0.0413  0.0869  0.0161
 3322W        W22176  15.248   0.138   1.319  0.2395  0.4559 -0.3516
 3323W        W22177   2.790  18.799   3.017 -0.2754 -0.2175  0.1625
 3324W        W22178  13.631  13.180  13.053  0.2289 -0.2798  0.2126
 3325W        W22179  14.074  15.686   0.281 -0.1584  0.2169  0.0429
 3326W        W22180   3.488   3.081  14.242  0.1151  0.2355  0.1319
 3327W        W22181  17.514  16.423   2.339 -0.0110  0.2567 -0.0314
 3328W        W22182  15.276   8.787  14.275  0.1039  0.0587  0.2184
 3329W        W22183   7.199   3.419  14.708  0.0338 -0.4232 -0.0848
 3330W        W22184  15.173  15.977  12.215 -0.2733 -0.0035 -0.2502
 3331W        W22185  15.767  18.947   4.470 -0.1037  0.0437  0.2646
 3332W        W22186  16.710  17.499  13.100  0.0460  0.1924  0.2187
 3333W        W22187   6.930   3.491   2.181  0.0956 -0.1934  0.0979
 3334W        W22188  17.396   6.560   0.082  0.3682 -0.0745  0.1389
 3335W        W22189   4.443   1.266  14.639  0.0641  0.2267  0.0581
 3336W        W22190   3.444  16.348  14.078  0.3416  0.0030 -0.0727
 3337W        W22191  19.014   5.447  14.259  0.2045  0.0776 -0.3183
 3338W        W22192   4.959   2.244   3.130  0.4839 -0.0433 -0.0346
 3339W        W22193  11.707   3.242   0.721  0.4105 -0.1575  0.0689
 3340W        W22194   5.210   6.914  12.339 -0.4182 -0.0138 -0.3324
 3341W        W22195  14.904   3.715   3.449  0.0590 -0.2762  0.2691
 3342W        W22196   1.787  13.881   0.677  0.0133 -0.1333 -0.2061
 3343W        W22197  18.541   7.166   1.816  0.0310 -0.0761  0.3087
 3344W        W22198  12.470  16.296   0.573  0.0376 -0.3036 -0.0925
 3345W        W22199  12.060   4.509  12.936 -0.0447  0.0801 -0.0513
 3346W        W22200   2.296  15.843   3.960  0.0642 -0.2081 -0.0350
 3347W        W22201   3.684  15.280  11.042 -0.0213 -0.1473 -0.0058
 3348W        W22202   4.129   0.756  11.680  0.1846 -0.0497 -0.1893
 3349W        W22203  17.128  15.926   1.501  0.1660  0.1484  0.0022
 3350W        W22204   0.832  12.017   4.628 -0.1912  0.2687  0.2226
 3351W        W22205  16.997   3.265   5.081 -0.0827 -0.1757  0.1455
 3352W        W22206   9.858   9.023  11.879  0.1524 -0.0600  0.2371
 3353W        W22207   2.489   9.710   4.237 -0.0238  0.0821  0.1444
 3354W        W22208   6.406   8.197   0.213 -0.2115  0.0006  0.0880
 3355W        W22209  10.976  18.334  12.128  0.0605 -0.0625  0.1355
 3356W        W22210   2.627  15.602   3.687  0.0090  0.2799 -0.0704
 3357W        W22211  12.743   9.268   0.028  0.2169 -0.1581  0.0096
 3358W        W22212  19.196   2.941   3.844  0.0020  0.0477 -0.0214
 3359W        W22213   2.338  17.073   4.228 -0.1523  0.1607  0.0384
 3360W        W22214  17.336  11.186  11.142 -0.1978 -0.1182 -0.0203
 3361W        W22215  14.905  11.688   5.134  0.0476 -0.0082  0.1749
 3362W        W22216  10.674  17.964   1.357 -0.1281 -0.2488 -0.1873
 3363W        W22217  11.433  15.900   2.381 -0.0274 -0.0166  0.0341
 3364W        W22218   0.676   0.806   2.840 -0.3516  0.2810  0.2309
 3365W        W22219   1.022  16.876   2.696  0.0889 -0.1101  0.1817
 3366W        W22220  16.042  10.506  14.364  0.1308  0.1564  0.0156
 3367W        W22221   0.652   6.416  14.122 -0.5091 -0.2492  0.3220
 3368W        W22222   5.408   3.816  12.820  0.3139 -0.1803  0.0544
 3369W        W22223  19.008  13.741  13.284  0.2727  0.0950  0.2965
 3370W        W22224  10.123   3.912   2.848 -0.1150  0.4401  0.1400
 3371W        W22225  15.543  14.156   1.667 -0.1375 -0.0286 -0.0992
 3372W        W22226   0.665   3.562  11.164  0.3245 -0.0529 -0.0955
 3373W        W22227  11.149   4.771  13.088 -0.2776 -0.1150  0.1213
 3374W        W22228  18.176  14.084  13.766  0.0625 -0.1815 -0.2776
 3375W        W22229   4.224   6.642  11.631  0.1766 -0.0771  0.4861
 3376W        W22230  14.936   9.094   0.877 -0.1307  0.2556 -0.2862
 3377W        W22231  16.909   9.775  12.180 -0.1434 -0.3441  0.0624
 3378W        W22232   2.570  13.342  14.723 -0.1758  0.1547 -0.4127
 3379W        W22233  10.412  10.811  11.137  0.0427 -0.0452  0.4760
 3380W        W22234   0.728  19.195  12.286 -0.1553 -0.4091  0.2725
 3381W        W22235   0.569  19.124  10.776 -0.2273 -0.0537  0.1936
 3382W        W22236   1.880   6.118  12.270 -0.1951  0.0293  0.1634
 3383W        W22237   4.874   0.592  11.152 -0.0873 -0.0153 -0.1646
 3384W        W22238  17.888   5.003  11.220 -0.0387 -0.1400 -0.1117
 3385W        W22239   4.368   7.629  11.132 -0.0164  0.1550  0.1021
 3386W        W22240  11.362  12.041   9.771 -0.1219 -0.0152  0.0669
 3387W        W22241   2.584   8.017   3.456  0.3093  0.3028 -0.0907
 3388W        W22242   0.232  18.662   0.160 -0.1944 -0.0372 -0.0329
 3389W        W22243  11.905  12.016   0.471 -0.1725 -0.0530  0.1348
 3390W        W22244  11.268   0.333  11.676  0.0382  0.1579  0.1992
 3391W        W22245   1.842  11.094  10.575  0.0336 -0.0929  0.0683
 3392W        W22246  12.069   8.106   1.477 -0.2115 -0.0567  0.0372
 3393W        W22247  13.745   0.659   1.272 -0.2504 -0.4747 -0.0295
 3394W        W22248   7.966   6.025   2.390 -0.2111  0.0143 -0.0512
 3395W        W22249   8.493   5.885   3.363 -0.1994  0.1828  0.2744
 3396W        W22250  10.504  18.791  10.427 -0.1774  0.2792  0.0420
 3397W        W22251  12.231  16.729  14.493  0.0911 -0.2831 -0.2242
 3398W        W22252   3.773   9.805   2.233  0.0115  0.4036 -0.2650
 3399W        W22253   2.798  12.756   1.082  0.1980  0.2449  0.2136
 3400W        W22254   1.494  11.777  12.489  0.0266 -0.0228  0.1077
 3401W        W22255   4.288  14.997  12.715  0.0986  0.0666 -0.1822
 3402W        W22256   3.068   3.670   1.298  0.0744 -0.1122  0.1266
 3403W        W22257   1.409  13.616   1.724 -0.1608  0.1916  0.2084
 3404W        W22258  10.558   1.188  13.080  0.1036 -0.0078  0.1384
 3405W        W22259  15.238  11.256   2.086 -0.0338  0.1328 -0.1423
 3406W        W22260  10.845  10.561   4.597  0.0174 -0.0448 -0.3503
 3407W        W22261  10.920   0.250  14.104 -0.1150 -0.1646 -0.0475
 3408W        W22262   4.229   2.502  13.197  0.0001 -0.1669 -0.2223
 3409W        W22263   9.516   6.090  14.556 -0.0313  0.2110 -0.1446
 3410W        W22264  14.293   5.128  10.472  0.0882  0.1011 -0.0690
 3411W        W22265   5.708  13.772   3.109  0.0447  0.0310 -0.4366
 3412W        W22266   2.571  11.681   9.592  0.2122 -0.1448 -0.2875
 3413W        W22267  13.901  13.003  13.432 -0.1919 -0.0610 -0.0073
 3414W        W22268   0.726  10.063   3.222  0.0376  0.0437  0.0578
 3415W        W22269  16.685  14.022  13.918  0.3405 -0.3197 -0.0081
 3416W        W22270   7.002   5.660   3.426  0.0576  0.0279  0.1011
 3417W        W22271  10.200  16.356   0.354  0.3246 -0.0354 -0.1030
 3418W        W22272  10.870   8.453   3.865  0.2374  0.3112  0.2271
 3419W        W22273   1.634   4.705  12.202  0.1975 -0.0415  0.0333
 3420W        W22274   8.579  17.341   3.152  0.2821  0.3052  0.0272
 3421W        W22275  12.639  19.191  10.580  0.3273  0.3921 -0.0727
 3422W        W22276  13.707  18.147   1.796 -0.0030  0.0147 -0.1395
 3423W        W22277   5.439  16.224  10.594 -0.0359  0.1856 -0.2619
 3424W        W22278   2.169   6.866  10.912  0.0586  0.0623 -0.4167
 3425W        W22279  11.234  18.790   0.172 -0.1035  0.0036  0.0426
 3426W        W22280   9.559   4.961  14.145  0.2857 -0.0289 -0.1221
 3427W        W22281   6.322  12.891  12.363  0.0192  0.0538  0.0618
 3428W        W22282  18.258   9.655   1.497  0.2317  0.2053  0.0017
 3429W        W22283  16.002  16.248   4.851  0.1317  0.0190  0.4617
 3430W        W22284   2.255  13.657  11.139 -0.0095 -0.0796 -0.1696
 3431W        W22285  13.177   4.204   0.413 -0.1099 -0.3002 -0.0621
 3432W        W22286   1.717  11.991   2.292  0.0150  0.0582  0.0286
 3433W        W22287  13.184   0.847  11.575  0.0269 -0.0719  0.3570
 3434W        W22288  15.884  18.963   3.861 -0.0150  0.3572 -0.2341
 3435W        W22289  10.886  13.166   2.564 -0.2702 -0.3223 -0.1250
 3436W        W22290  18.040   8.743  12.541 -0.0200 -0.1313  0.0371
 3437W        W22291   1.852   3.857   2.590 -0.3775 -0.2005 -0.1697
 3438W        W22292   3.448  16.885  13.250  0.3097 -0.1501 -0.0336
 3439W        W22293   8.207  16.170  12.294 -0.3355 -0.1351  0.0265
 3440W        W22294  18.702  10.054   2.682 -0.1619 -0.0757  0.2111
 3441W        W22295   1.705   8.704  12.445 -0.1535  0.1526 -0.1815
 3442W        W22296   8.124  12.062  10.303 -0.1770 -0.1248 -0.0084
 3443W        W22297  15.058  12.091  13.903  0.0275 -0.0014 -0.0181
 3444W        W22298  11.155   9.823  14.074 -0.0584  0.1079  0.2322
 3445W        W22299   2.208   4.856  13.614 -0.3376 -0.0675 -0.0846
 3446W        W22300   5.350   4.870   9.926 -0.3129 -0.2496  0.1968
 3447W        W22301  14.389   5.209   2.106  0.0527 -0.1788  0.0252
 3448W        W22302  16.157  14.182  12.783  0.1073  0.3331 -0.0336
 3449W        W22303   1.198  19.160   2.346 -0.2314 -0.2015  0.1419
 3450W        W22304   5.122  18.258  11.407  0.0896 -0.0382 -0.1955
 3451W        W22305   2.636  16.706   4.508 -0.1209 -0.2752  0.0668
 3452W        W22306   4.260   4.774   3.301 -0.1447 -0.0286  0.2557
 3453W        W22307   8.788   9.737   9.540  0.1220 -0.1469  0.2022
 3454W        W22308   9.296   2.483   2.934 -0.0171 -0.2261 -0.4135
 3455W        W22309   4.833   3.154   2.870 -0.0729 -0.1508 -0.0886
 3456W        W22310  11.484   8.154   2.225 -0.1277 -0.0772 -0.2949
 3457W        W22311  12.556   2.146  12.595 -0.1163  0.1793 -0.0631
 3458W        W22312   0.715   7.987  12.359 -0.1714 -0.0306 -0.1395
 3459W        W22313  16.371   2.538  11.580  0.0678  0.0904  0.0428
 3460W        W22314   2.895  11.548   4.831 -0.1351 -0.2861  0.0623
 3461W        W22315  10.268   8.316   3.270 -0.1784  0.1438 -0.1978
 3462W        W22316   2.835  11.302  13.367 -0.1474 -0.2298  0.0762
 3463W        W22317   1.670   3.717  11.302 -0.0322  0.0344  0.2232
 3464W        W22318   6.782  16.399   1.440  0.2055  0.0720  0.1834
 3465W        W22319  11.957   5.752  12.193  0.0416 -0.1261  0.0698
 3466W        W22320  14.245   1.432  11.240  0.0771  0.1441  0.0873
 3467W        W22321  14.422  15.612  14.372  0.1284 -0.0793 -0.0836
 3468W        W22322   9.450  14.558  12.988 -0.1498 -0.0585  0.0919
 3469W        W22323  12.088  10.514   2.599 -0.2791  0.3066  0.2060
 3470W        W22324  15.535   3.962   1.849 -0.0711  0.1400 -0.1269
 3471W        W22325   5.608   8.640  11.248 -0.0324 -0.1236 -0.0044
 3472W        W22326  14.202  17.740  10.730 -0.0367  0.0485 -0.0389
 3473W        W22327  13.778   4.645  11.166 -0.1969  0.2235  0.1765
 3474W        W22328  15.267   6.233  10.600 -0.1318  0.2869 -0.1446
 3475W        W22329   4.547  16.557  13.363 -0.0665  0.1248  0.0645
 3476W        W22330   5.196  12.319   2.320 -0.0380 -0.0785 -0.2688
 3477W        W22331   0.514  11.900  13.941 -0.4563 -0.1605 -0.1722
 3478W        W22332  13.933   6.665  13.449 -0.1778 -0.0290 -0.0414
 3479W        W22333  18.733   2.827   2.116  0.0209  0.0337 -0.4250
 3480W        W22334   3.303  12.688   0.583 -0.0542 -0.1896 -0.1438
 3481W        W22335   0.795   9.386   2.089  0.0613 -0.0002  0.3496
 3482W        W22336   0.503   2.849  12.910  0.0095  0.0070  0.4575
 3483W        W22337   8.087   1.192  13.527 -0.1676  0.1346 -0.1208
 3484W        W22338  15.459   4.127   0.399 -0.0438  0.0404 -0.3869
 3485W        W22339   6.169   0.360   3.340  0.0363  0.0396  0.2375
 3486W        W22340   4.810   6.655   9.462 -0.0717  0.2410 -0.3975
 3487W        W22341  11.051  16.047  12.035 -0.0596  0.0425  0.1170
 3488W        W22342  10.947  15.680   2.375  0.0236 -0.0706 -0.1430
 3489W        W22343  17.202  19.060   0.034 -0.3675  0.0151 -0.5008
 3490W        W22344   5.881  10.231   1.148 -0.2731 -0.0119 -0.0890
 3491W        W22345   4.607   1.690  10.337  0.0105  0.0026  0.1530
 3492W        W22346  13.779   6.874  11.647 -0.0245 -0.0282 -0.0446
 3493W        W22347   8.772   6.337  10.893 -0.3232 -0.0656  0.1713
 3494W        W22348   5.905   6.373  14.340 -0.0344 -0.1024  0.1340
 3495W        W22349  10.593   9.513  11.333  0.0692 -0.0114 -0.0265
 3496W        W22350  14.170  17.830   2.036  0.0584 -0.0996  0.0786
 3497W        W22351  10.915   0.224  11.322 -0.2146  0.1163 -0.1929
 3498W        W22352  16.774   3.468   4.036 -0.2476  0.0943 -0.2767
 3499W        W22353  16.197   1.678   2.305 -0.0033  0.0562 -0.0713
 3500W        W22354  13.962   4.839   4.829 -0.0247  0.3180 -0.2256
 3501W        W22355  17.984  13.635   2.798  0.0158 -0.1692  0.1397
 3502W        W22356   6.280  10.373   3.290 -0.3742  0.0632  0.3042
 3503W        W22357  16.593  15.445  12.026  0.0668 -0.0546 -0.0281
 3504W        W22358   2.439  12.925   2.230  0.1978  0.0432  0.1816
 3505W        W22359  10.590   6.556  10.632  0.1421 -0.1306  0.1959
 3506W        W22360   3.935  12.998  14.158 -0.0741  0.0901  0.2817
 3507W        W22361  12.628   2.155  10.963  0.2411 -0.1942  0.0424
 3508W        W22362   8.652   8.863  13.317 -0.1596  0.0826  0.2013
 3509W        W22363  15.914  13.499  11.374 -0.1499  0.2856  0.1082
 3510W        W22364  16.664  13.853  10.935 -0.0790  0.1624 -0.4134
 3511W        W22365  17.313   7.882   3.154  0.0508 -0.0727  0.3897
 3512W        W22366  11.411  11.521   3.474  0.1976  0.1038 -0.1654
 3513W        W22367   9.385   2.555   1.210  0.1894 -0.0334  0.0271
 3514W        W22368  17.697  14.765   4.878  0.1363  0.0989 -0.1620
 3515W        W22369  10.076   3.222   4.023  0.0772  0.0718 -0.1666
 3516W        W22370  17.663   9.121  12.372  0.2723 -0.3825  0.1280
 3517W        W22371  11.937   2.226   0.046 -0.3163 -0.1301  0.2856
 3518W        W22372  16.888  18.795  13.408 -0.3945  0.3717 -0.2576
 3519W        W22373  18.379  13.628  11.149  0.1625 -0.2683  0.0629
 3520W        W22374   0.142   6.347  12.362 -0.0097 -0.2433  0.0941
 3521W        W22375   7.974   9.641   0.678  0.0367 -0.1332  0.1979
 3522W        W22376   2.551  13.648  13.307  0.3021  0.0868  0.0205
 3523W        W22377   0.034  17.820   5.257  0.1316 -0.0412 -0.0706
 3524W        W22378  12.764  15.609  12.943  0.1080  0.1589 -0.1436
 3525W        W22379  17.584   4.972  10.807 -0.0449 -0.2581  0.0813
 3526W        W22380   7.615  16.811   4.354  0.1813 -0.0026  0.1418
 3527W        W22381  18.697  17.421   1.223  0.0637 -0.2297 -0.3684
 3528W        W22382   2.458   8.323   0.402  0.0629 -0.0817  0.0217
 3529W        W22383   6.709   5.211   3.386 -0.0304  0.2105 -0.0149
 3530W        W22384  18.015   6.645   2.088  0.4242  0.3169 -0.1528
 3531W        W22385   3.903  13.510  10.590 -0.0690  0.1686  0.5780
 3532W        W22386   2.490   4.962  11.863 -0.0362 -0.1528 -0.1594
 3533W        W22387   9.344  12.104  14.706  0.2033 -0.0947  0.0983
 3534W        W22388  13.188  11.291   3.850  0.0691 -0.2263 -0.2255
 3535W        W22389   0.377   9.354  12.851 -0.0433  0.1333  0.3605
 3536W        W22390  11.437  15.718   4.555  0.1623  0.0342  0.0403
 3537W        W22391   6.805   6.380   1.968  0.2049  0.3273 -0.3039
 3538W        W22392   3.774  15.982  11.071 -0.3729 -0.0917  0.2163
 3539W        W22393  19.143  10.225  10.911 -0.1761 -0.5551 -0.0567
 3540W        W22394  17.673   4.330  12.559  0.2073 -0.1045  0.0160
 3541W        W22395   0.435  16.208   0.817  0.0390  0.0616  0.0378
 3542W        W22396   6.884  13.330  11.546  0.0266 -0.3170 -0.0213
 3543W        W22397   1.720  10.084  12.101 -0.1664 -0.2903  0.0526
 3544W        W22398   9.875   0.476   3.982  0.0149 -0.2319 -0.0253
 3545W        W22399   6.955   1.832  13.941 -0.1425  0.1036  0.2675
 3546W        W22400   7.027  17.173   4.642 -0.0259 -0.0520 -0.2205
 3547W        W22401   3.782  13.650   0.339  0.0050  0.1346  0.1584
 3548W        W22402   6.775  15.431  10.872  0.3814 -0.2199 -0.3175
 3549W        W22403   4.767  17.585  11.095 -0.0407  0.1281 -0.1072
 3550W        W22404  12.784  18.474   2.970 -0.0314 -0.0991 -0.1622
 3551W        W22405   7.318  16.476   9.616 -0.1759 -0.0756  0.4127
 3552W        W22406   4.414   0.115  11.287  0.2946 -0.1643 -0.1873
 3553W        W22407  11.266   8.206  12.642 -0.2353  0.1306 -0.0593
 3554W        W22408  18.334  17.687  12.706  0.0588 -0.1818 -0.0187
 3555W        W22409   1.311  12.128  13.269 -0.5398 -0.0585  0.2636
 3556W        W22410   6.092   7.210  13.391  0.0318 -0.1462 -0.1296
 3557W        W22411  19.153  19.099  14.183  0.0874 -0.1288 -0.0861
 3558W        W22412   8.487   5.377   3.400 -0.3239 -0.3207  0.0799
 3559W        W22413  16.382   5.102  13.604  0.1609 -0.1147  0.1014
 3560W        W22414   7.385  14.755   1.080 -0.0880  0.0035 -0.0844
 3561W        W22415  17.282  14.856  13.743  0.3010  0.1327  0.0326
 3562W        W22416   7.710  10.947  11.408 -0.0547 -0.1870  0.2238
 3563W        W22417  10.080   8.373   9.836 -0.1678  0.3010 -0.1086
 3564W        W22418   9.795   5.220  13.567 -0.0539 -0.0263  0.0417
 3565W        W22419   9.215  10.661  14.577 -0.0554  0.0606 -0.2275
 3566W        W22420  15.825  10.338  13.922 -0.0414  0.4404 -0.1265
 3567W        W22421  16.293   2.405  10.858  0.1369  0.3733  0.1173
 3568W        W22422   2.714   3.279   0.510 -0.0384  0.2633 -0.0480
 3569W        W22423   0.272   9.118  10.274  0.0638 -0.0420  0.0393
 3570W        W22424   0.563  16.384  10.835  0.3301  0.4565 -0.4858
 3571W        W22425   0.641   2.239  10.700  0.1824 -0.2481  0.0409
 3572W        W22426  14.719  15.789  13.582  0.3558  0.0749  0.3566
 3573W        W22427  12.727  11.941   1.067  0.0024  0.2925  0.1988
 3574W        W22428  16.681  10.147   3.856  0.1769 -0.1331 -0.2560
 3575W        W22429   2.790  16.380  13.268  0.0043  0.0199 -0.0812
 3576W        W22430  18.525  14.328   4.576 -0.0082  0.2901 -0.2903
 3577W        W22431   6.200  12.220   0.807 -0.1226 -0.2772  0.0885
 3578W        W22432   6.417  15.985   1.804 -0.1130 -0.0359 -0.1213
 3579W        W22433  15.928   2.622  13.720 -0.2736 -0.1500  0.1402
 3580W        W22434  10.744  11.627  12.065  0.2495  0.0039 -0.0970
 3581W        W22435   0.993  16.678   9.571  0.0274 -0.0245  0.0616
 3582W        W22436   9.830   5.839   4.184 -0.0174  0.0857  0.1785
 3583W        W22437   5.221   7.324   0.883  0.1460  0.0687  0.0737
 3584W        W22438  17.124  10.171  11.931 -0.2085 -0.3874 -0.3607
 3585W        W22439  16.181  15.153   2.449  0.0723 -0.0705  0.3698
 3586W        W22440  15.138  13.995   0.355  0.0271  0.3282 -0.0221
 3587W        W22441   2.415  16.680  11.312  0.1424  0.1718 -0.0907
 3588W        W22442   2.398   2.944   3.280 -0.1489  0.1887  0.3354
 3589W        W22443   0.370   5.061   0.810  0.2469  0.1114  0.0345
 3590W        W22444   6.769   9.954   9.699 -0.2022 -0.0604 -0.1386
 3591W        W22445   9.705   5.004  11.981  0.1526  0.4256 -0.2156
 3592W        W22446   7.596  16.842   0.898 -0.1817  0.0552  0.0426
 3593W        W22447   1.679  13.801  13.817  0.1358  0.0265  0.0782
 3594W        W22448  15.522   0.981   0.333 -0.0847  0.3091  0.2384
 3595W        W22449  18.098  14.140  14.316  0.1409 -0.0590  0.1620
 3596W        W22450  14.848   6.388   3.451 -0.1330 -0.1287 -0.3097
 3597W        W22451  14.230   1.188   2.305 -0.3865  0.1474  0.0825
 3598W        W22452  13.878  10.826   2.407  0.2393 -0.0302  0.1930
 3599W        W22453   4.782  10.226  13.427  0.1753  0.3609  0.3876
 3600W        W22454  14.880  12.759   0.766  0.0108  0.0874 -0.1420
 3601W        W22455   4.459   4.802  10.649  0.1054  0.1486 -0.0032
 3602W        W22456   7.393   5.057  11.969 -0.0599  0.0812 -0.2141
 3603W        W22457  11.094   2.350   2.533  0.1545  0.0650  0.2583
 3604W        W22458  13.209  10.595  11.232  0.2311 -0.2273  0.2966
 3605W        W22459  10.883  10.632  10.926  0.0932 -0.0782 -0.0678
 3606W        W22460   6.791   2.458   3.979  0.1592  0.2559 -0.1030
 3607W        W22461   8.853   3.326   2.165 -0.3015 -0.2712  0.1330
 3608W        W22462   4.325   8.475  13.147 -0.0996 -0.1159  0.1488
 3609W        W22463  17.477  14.986  14.223  0.0331  0.0681 -0.1864
 3610W        W22464  14.957  12.470  11.071 -0.0772 -0.2858  0.0099
 3611W        W22465  17.991  10.439  11.656  0.3038  0.0620 -0.1257
 3612W        W22466   3.173   3.117   3.959 -0.1534  0.0703 -0.0910
 3613W        W22467  18.412   6.043   0.805  0.0006 -0.0031  0.1737
 3614W        W22468   0.399  16.018   1.924 -0.1299 -0.1600 -0.0871
 3615W        W22469  18.577   1.667   0.388 -0.1908 -0.1281 -0.1027
 3616W        W22470   7.092   6.801   1.878  0.1552 -0.1605  0.1143
 3617W        W22471   8.742   8.991   0.815  0.3835  0.3361 -0.0729
 3618W        W22472  10.230  15.126   3.660  0.2561 -0.0792 -0.3198
 3619W        W22473  16.951   9.407  13.482 -0.1118 -0.1125 -0.1016
 3620W        W22474  14.970   4.378   2.558 -0.0820 -0.1144  0.1223
 3621W        W22475   6.006   3.558  13.936 -0.0469  0.2810  0.0817
 3622W        W22476   6.325   8.366   0.772 -0.2357  0.0313  0.0927
 3623W        W22477  17.631  17.781  11.795  0.0542  0.3887  0.0723
 3624W        W22478   4.393   7.636  11.664 -0.0410  0.1038 -0.1530
 3625W        W22479   5.767  12.380  13.945 -0.0424  0.0338  0.2514
 3626W        W22480  12.303   9.471  12.848 -0.1194  0.1750  0.2575
 3627W        W22481  13.186  16.671  13.922  0.2755 -0.2288  0.1815
 3628W        W22482   9.417   7.567  10.833 -0.1131  0.4158 -0.2551
 3629W        W22483   1.378  13.642   2.367 -0.0371 -0.0295 -0.0261
 3630W        W22484  17.937   2.914   2.530 -0.0321 -0.0236 -0.1498
 3631W        W22485  11.412   3.515  12.628 -0.2451 -0.0023 -0.1072
 3632W        W22486   6.436  18.972  12.395 -0.1825  0.2474  0.0471
 3633W        W22487   1.551   7.489   0.281 -0.0827 -0.1069 -0.0228
 3634W        W22488   0.132   9.463  13.593 -0.3129 -0.0970  0.0629
 3635W        W22489   2.822   5.995  13.501  0.2851 -0.0526  0.0972
 3636W        W22490   2.323   5.114   3.968  0.0868 -0.1121  0.2985
 3637W        W22491  18.549   6.816  12.345  0.0326 -0.1748  0.1816
 3638W        W22492   0.915  11.206  11.307  0.0721 -0.1156 -0.0628
 3639W        W22493   9.493  11.412   1.776 -0.3084  0.0096 -0.3548
 3640W        W22494   1.655  11.226  14.306  0.3449 -0.2484  0.0817
 3641W        W22495   7.892  15.889   4.066  0.1817 -0.0867 -0.0421
 3642W        W22496  18.987   8.210   3.112 -0.1534 -0.4283  0.0520
 3643W        W22497   7.923   5.349   3.546  0.0130  0.1095 -0.1821
 3644W        W22498  15.798   1.027   1.211 -0.2452  0.1226 -0.2205
 3645W        W22499  11.112   5.908   4.147  0.0639 -0.0205 -0.0869
 3646W        W22500  16.245   9.199   3.947  0.1297 -0.1820  0.0058
 3647W        W22501   0.935   4.794   0.033 -0.2123 -0.0676 -0.2507
 3648W        W22502  10.990   9.662   2.696 -0.1019  0.0270 -0.0740
 3649W        W22503   7.858  10.735   9.215  0.1060  0.0672  0.3262
 3650W        W22504   3.434  10.710   2.209 -0.2898  0.0390  0.0423
 3651W        W22505  14.571   9.266  10.948 -0.0839 -0.0246 -0.1825
 3652W        W22506  14.873   7.785   1.675 -0.0051  0.2195  0.0073
 3653W        W22507  15.669  13.537   3.799 -0.1470 -0.0141 -0.1734
 3654W        W22508  10.761   4.518   4.406  0.0964  0.1055 -0.0725
 3655W        W22509   2.674   6.597  12.926  0.2919 -0.0494  0.1120
 3656W        W22510   9.636  15.043  12.002  0.1979 -0.0661  0.1148
 3657W        W22511  18.203  14.572  13.955 -0.3952  0.2883 -0.1318
 3658W        W22512   9.352   0.321   2.432  0.1638 -0.0662 -0.0841
 3659W        W22513  17.077  18.501  13.994 -0.0464 -0.0188  0.1142
 3660W        W22514   6.862   5.796  14.450  0.0176 -0.0674  0.1950
 3661W        W22515   5.022  17.775  11.586 -0.0053 -0.1222  0.0675
 3662W        W22516  12.837   2.645   0.318  0.0904  0.0638  0.1434
 3663W        W22517  13.325  18.570   0.558  0.2002  0.0810 -0.0062
 3664W        W22518   7.003  14.785   1.397  0.0933  0.1588  0.3092
 3665W        W22519  16.709  18.729  11.323  0.6735  0.1822  0.2258
 3666W        W22520   3.725   3.345   2.170 -0.3454 -0.2129 -0.1278
 3667W        W22521   1.449   4.812  10.085 -0.1569 -0.0438 -0.2426
 3668W        W22522  16.561   0.619  10.601 -0.2896  0.1515 -0.2085
 3669W        W22523   1.271   4.276   3.854  0.0584  0.0634 -0.2392
 3670W        W22524   4.276   7.044   3.113  0.1388 -0.0826 -0.1629
 3671W        W22525   4.472   3.860  10.991  0.2727 -0.1044 -0.0641
 3672W        W22526  16.517   7.773  12.519 -0.0573  0.0203  0.1811
 3673W        W22527   2.977  11.485   9.951 -0.1965  0.1777 -0.1319
 3674W        W22528   0.257   1.505   4.231  0.0114 -0.1501  0.0981
 3675W        W22529   8.460   4.532  13.542  0.0002 -0.1396 -0.0428
 3676W        W22530   2.459   5.201   2.946 -0.2184  0.2838  0.0926
 3677W        W22531  12.025  14.333   0.018 -0.1674  0.3105  0.3427
 3678W        W22532   9.326  13.618  11.861 -0.5139 -0.0061 -0.1979
 3679W        W22533   0.965  17.974   3.609 -0.1010 -0.0724 -0.1389
 3680W        W22534  11.505  13.606   3.712 -0.1837  0.0901 -0.1725
 3681W        W22535  14.965  13.067  14.658  0.1799  0.0466  0.1895
 3682W        W22536  12.440   9.619   3.362 -0.0661  0.1826  0.1976
 3683W        W22537  16.489   5.983   4.097 -0.0105  0.1127  0.0181
 3684W        W22538   3.964  16.764  14.179 -0.0559 -0.1722 -0.1139
 3685W        W22539  13.734   8.250  13.369 -0.0308  0.4978  0.0279
 3686W        W22540  14.377   7.679  11.747 -0.0705  0.0068  0.1707
 3687W        W22541   7.040  14.827   2.313  0.2108 -0.0832 -0.0113
 3688W        W22542  15.738  18.197  14.701  0.1407 -0.0554  0.0420
 3689W        W22543   6.277  11.546   2.386 -0.0609 -0.2695  0.2480
 3690W        W22544  18.038   7.856  12.472 -0.0545  0.0096  0.1364
 3691W        W22545   7.187  15.466   4.462  0.0625 -0.1995 -0.2869
 3692W        W22546  12.250   4.982  11.624 -0.1655 -0.0319  0.0503
 3693W        W22547  17.212  15.001   2.354  0.1324 -0.1203 -0.3794
 3694W        W22548   8.960   0.664   4.302 -0.3709  0.2464  0.3237
 3695W        W22549  10.138   1.653  12.118  0.0356  0.0183 -0.0938
 3696W        W22550   6.650   1.034   3.554  0.3419 -0.0334  0.3520
 3697W        W22551   6.210  14.402   3.531 -0.2511  0.2686 -0.0843
 3698W        W22552  11.933   8.349   2.987  0.0490 -0.1472  0.1974
 3699W        W22553   0.089   3.298   0.364  0.0465  0.3246 -0.0818
 3700W        W22554  16.119   0.313   2.714 -0.0575  0.0677 -0.0585
 3701W        W22555   2.805   8.837   1.834 -0.0835 -0.0143 -0.1378
 3702W        W22556   6.913  11.603  10.562  0.0100  0.0784  0.0031
 3703W        W22557  16.408   4.835   0.888  0.2791 -0.4061 -0.1504
 3704W        W22558  16.558   4.259  14.395 -0.2391 -0.3303 -0.0304
 3705W        W22559   8.279  11.492  12.399 -0.2788 -0.0771 -0.0082
 3706W        W22560  11.006   0.064   9.797 -0.0891  0.0957 -0.2773
 3707W        W22561  16.170  17.885  11.784 -0.1817 -0.0523 -0.0163
 3708W        W22562  14.855   2.735   3.088  0.2036 -0.0972 -0.4680
 3709W        W22563   4.180   6.845   2.629 -0.1324  0.1779  0.1171
 3710W        W22564  14.975  12.619   0.180 -0.1120  0.1180 -0.0842
 3711W        W22565   8.491  12.680   3.091 -0.4612 -0.2440  0.2281
 3712W        W22566   6.907  17.531  12.717 -0.3182 -0.4097  0.1538
 3713W        W22567  14.916  16.359   1.798 -0.4191 -0.0497 -0.2530
 3714W        W22568   9.480  13.293   3.834  0.3868 -0.0467  0.5058
 3715W        W22569  13.267  18.247   2.126 -0.0693  0.2951 -0.1779
 3716W        W22570  10.512  12.521  13.312 -0.0612  0.1029  0.0983
 3717W        W22571  18.489   8.914  12.616 -0.2144  0.0753 -0.0107
 3718W        W22572   1.814  15.864   4.157 -0.0899  0.2685 -0.1302
 3719W        W22573  12.620  14.148  14.187  0.3792  0.0531  0.1821
 3720W        W22574  19.188   3.666  11.300  0.3267 -0.1989 -0.0875
 3721W        W22575   8.218   7.138   0.281 -0.1086  0.0474 -0.1553
 3722W        W22576   7.943   0.475  11.322 -0.2744 -0.0213 -0.0940
 3723W        W22577  13.159   0.250  11.741 -0.3089 -0.3408 -0.2435
 3724W        W22578   3.972   0.180   0.651 -0.4258 -0.0935 -0.0572
 3725W        W22579   1.075  14.212   2.916  0.1684  0.0146 -0.1842
 3726W        W22580  17.817  14.496   1.613  0.1054 -0.2282  0.1422
 3727W        W22581   0.118  14.880   5.568  0.1478  0.0005 -0.2305
 3728W        W22582   0.589  10.924   3.214 -0.3599  0.2920  0.1810
 3729W        W22583  18.615  14.087  11.911  0.3043  0.2128 -0.0322
 3730W        W22584  19.109   2.437  13.651 -0.2684  0.0717  0.1050
 3731W        W22585   2.417   9.051  13.882  0.1666  0.2162 -0.0730
 3732W        W22586  18.441   9.110  10.156  0.1592  0.0090  0.0673
 3733W        W22587  12.372   8.879  14.526 -0.1421 -0.1354  0.2234
 3734W        W22588  18.818   0.699   1.907 -0.4784 -0.3982 -0.1206
 3735W        W22589   1.273  14.947   2.800  0.0010  0.0668 -0.0861
 3736W        W22590  15.191   0.462  11.100 -0.0507  0.1013 -0.1184
 3737W        W22591   2.084  13.454  13.148  0.0994 -0.3543  0.0867
 3738W        W22592   4.738   8.705  13.400 -0.0249 -0.2804  0.1863
 3739W        W22593   4.437  18.420  14.408 -0.0349  0.2046  0.1173
 3740W        W22594  17.683   7.046  11.333 -0.1062 -0.3194  0.1538
 3741W        W22595  14.007   4.349   4.598  0.0406  0.1712 -0.2294
 3742W        W22596   7.586   2.847   2.288  0.2500  0.2235  0.1254
 3743W        W22597  15.125  17.545   3.040  0.0959  0.4561  0.0736
 3744W        W22598   1.095  16.839   1.199  0.1068 -0.2292  0.2038
 3745W        W22599  14.979   2.727   1.166  0.2217  0.0734 -0.2544
 3746W        W22600  12.109   1.951   3.775 -0.1706  0.0624 -0.0541
 3747W        W22601   2.671  10.819   0.544 -0.1573 -0.2116 -0.3479
 3748W        W22602   6.409  10.568   3.726  0.4531 -0.0690 -0.0897
 3749W        W22603   8.416   0.523   0.827  0.0730  0.0853  0.0019
 3750W        W22604  14.978   7.852   0.735 -0.2838 -0.2322  0.0608
 3751W        W22605   3.899   8.202  11.781 -0.1499 -0.2898 -0.3059
 3752W        W22606  16.131   3.972  11.926  0.1840  0.4402  0.0453
 3753W        W22607  13.511   9.287  10.458 -0.1257  0.0811  0.1544
 3754W        W22608   8.737  18.949  12.340 -0.0113 -0.0443 -0.1146
 3755W        W22609   7.928  18.091  12.435  0.1634  0.5033  0.1128
 3756W        W22610  17.490  14.843   3.690  0.1304 -0.0460  0.0726
 3757W        W22611   1.137   4.817  12.131 -0.0420 -0.3311  0.1436
 3758W        W22612  15.816  13.274  13.630 -0.1022  0.1796 -0.2975
 3759W        W22613   9.367   8.374   0.560  0.3114 -0.1342  0.1689
 3760W        W22614  12.679   8.900   1.647 -0.2120  0.1239  0.3765
 3761W        W22615   4.943   5.492  10.950  0.0845 -0.2456 -0.0700
 3762W        W22616   5.081   1.013   0.557 -0.1706 -0.0213 -0.1055
 3763W        W22617   2.249   7.575  14.161  0.0913  0.0517  0.3084
 3764W        W22618   0.719  11.300   0.679  0.2227 -0.3133  0.0103
 3765W        W22619  17.369  13.301  12.444 -0.0134 -0.1083  0.0447
 3766W        W22620   6.625  15.537  11.337  0.2140  0.0498 -0.1366
 3767W        W22621  15.292  15.095   4.045  0.4079 -0.0393 -0.0279
 3768W        W22622   0.056  16.137  13.654 -0.1654 -0.1614 -0.1077
 3769W        W22623  12.921   4.863   2.386 -0.0027  0.0796 -0.1720
 3770W        W22624  11.182   4.752   9.948  0.1348  0.0777  0.1239
 3771W        W22625  17.336   6.139   3.237  0.0084 -0.1844  0.0819
 3772W        W22626   0.436   9.798   1.952  0.3554 -0.5041 -0.2969
 3773W        W22627   1.860  18.594  10.663  0.0185  0.0331  0.1284
 3774W        W22628   1.083  14.580  12.992  0.1489 -0.0224  0.0152
 3775W        W22629   2.888  16.205   0.341  0.3132 -0.0331  0.4676
 3776W        W22630   8.838  16.265   0.736 -0.0271  0.1369 -0.2203
 3777W        W22631   7.970  18.374   1.594  0.0984 -0.0351 -0.1697
 3778W        W22632   4.657  17.032   0.000 -0.0549 -0.3089  0.2884
 3779W        W22633  16.504   0.983  10.991 -0.2231  0.1170  0.1169
 3780W        W22634   1.852   3.124  13.333 -0.1601 -0.4911  0.2742
 3781W        W22635  15.590   3.841   3.185  0.0953 -0.2321 -0.1106
 3782W        W22636  15.098  10.040   4.127 -0.1165  0.1944  0.1165
 3783W        W22637  15.375  15.031   0.455 -0.2810 -0.1665  0.0941
 3784W        W22638  11.859   6.589   4.581 -0.1714  0.2477 -0.1852
 3785W        W22639  11.619  10.105   0.569  0.4925  0.1006 -0.0961
 3786W        W22640   2.868   4.842  10.102 -0.1711  0.1467  0.3095
 3787W        W22641   5.997  12.300   1.770 -0.0097  0.2942  0.3357
 3788W        W22642  15.317  18.099  14.437  0.2580 -0.3367  0.2669
 3789W        W22643  16.771   8.370   3.738  0.0973 -0.1309 -0.1880
 3790W        W22644   4.210  11.116  13.216  0.0289 -0.0976 -0.0727
 3791W        W22645   1.513   9.229  13.673 -0.3532 -0.0749 -0.0438
 3792W        W22646   8.416   6.209  12.744 -0.0383 -0.0928 -0.4320
 3793W        W22647   3.775  16.160   2.316  0.2117  0.1385  0.4193
 3794W        W22648   8.132   6.481   0.023 -0.1465 -0.2909 -0.1509
 3795W        W22649  13.698  15.731   0.673 -0.0812  0.3748  0.2205
 3796W        W22650   6.403   0.178   1.841  0.2255 -0.1076  0.0312
 3797W        W22651   1.329  14.984  10.837  0.0864 -0.2814  0.3466
 3798W        W22652   7.943   3.839   3.670  0.3186 -0.0591  0.2106
 3799W        W22653   8.984  10.124   3.082 -0.0136 -0.5515 -0.0165
 3800W        W22654  17.268  14.074   2.371  0.0398 -0.3243  0.0900
 3801W        W22655  14.124  15.924   1.531  0.2984  0.4171  0.0079
 3802W        W22656   1.835   5.820   2.576  0.0663 -0.0472 -0.2555
 3803W        W22657   0.597   5.693   4.545 -0.3202  0.4558  0.0662
 3804W        W22658  16.109  10.385  10.817 -0.1929  0.1380  0.2080
 3805W        W22659   6.493   2.608   0.715 -0.0005 -0.1387 -0.0149
 3806W        W22660   5.219   0.975  13.092  0.0078  0.0541  0.0815
 3807W        W22661  11.405  18.763   1.155  0.1234 -0.2602  0.1881
 3808W        W22662   2.595   7.552   1.976  0.0719 -0.3534  0.0739
 3809W        W22663  13.098   7.442   0.215 -0.3822 -0.1652  0.1692
 3810W        W22664  18.265  12.853  14.725  0.1424  0.0142 -0.0559
 3811W        W22665  13.483   4.803  10.722 -0.0433  0.2137 -0.0081
 3812W        W22666  15.965   7.049  12.688 -0.0750 -0.2474 -0.1583
 3813W        W22667   9.288   6.693   9.074 -0.0529  0.0269  0.1839
 3814W        W22668  16.023  12.935   1.647  0.2442 -0.1540  0.0940
 3815W        W22669   8.939  14.004  11.045 -0.1225 -0.2629 -0.0160
 3816W        W22670  18.890   8.741   4.043 -0.1580  0.1210 -0.1828
 3817W        W22671   1.423   3.633   2.685 -0.1969  0.1089  0.1139
 3818W        W22672   0.619  15.636   2.145  0.3946 -0.0438 -0.3002
 3819W        W22673  15.974  16.352  12.449 -0.1795  0.0696  0.0080
 3820W        W22674   9.222  10.093   3.592 -0.1289 -0.0048  0.1489
 3821W        W22675  11.837   0.781   0.234 -0.0288 -0.1013  0.3576
 3822W        W22676   0.892   0.876  10.642 -0.2107  0.2623  0.0436
 3823W        W22677   1.051   8.634  10.742  0.1584  0.1677  0.3734
 3824W        W22678   0.315  15.241  11.363 -0.0412  0.1082  0.0421
 3825W        W22679   6.301  17.635   1.865 -0.0724 -0.1629  0.0157
 3826W        W22680  10.103   8.344   0.413  0.0056  0.2269 -0.0715
 3827W        W22681  12.868   1.339  10.483  0.1093  0.0765  0.3087
 3828W        W22682   6.704  18.534  11.308  0.2063  0.2315  0.5019
 3829W        W22683  17.461   0.242   0.008  0.0701  0.2369 -0.0087
 3830W        W22684   0.348  17.333   2.089 -0.1206 -0.0385 -0.0353
 3831W        W22685  11.470  14.605  12.087  0.1155  0.0001  0.0472
 3832W        W22686  12.117   4.135   0.289  0.3021 -0.1201  0.1957
 3833W        W22687  12.476   5.444  11.630  0.0976  0.0045 -0.1047
 3834W        W22688  17.390   1.817   1.064 -0.3815  0.1976 -0.0907
 3835W        W22689  10.303  12.910   1.435 -0.1311 -0.1824  0.3142
 3836W        W22690  11.187  10.988   3.287  0.5753 -0.2862  0.0495
 3837W        W22691   3.125   4.735  14.448  0.0999  0.1564  0.1036
 3838W        W22692  16.257  17.707   0.320 -0.0755  0.2761  0.2549
 3839W        W22693  17.173  18.687  14.459 -0.1526  0.2685  0.4765
 3840W        W22694   7.967  17.224  13.364 -0.0192 -0.0915 -0.0015
 3841W        W22695   1.762  16.160   3.195 -0.0612  0.0428 -0.1110
 3842W        W22696  14.779  13.035   3.450  0.1711  0.0725 -0.0697
 3843W        W22697   9.260  11.612   2.464 -0.1751 -0.0970 -0.1373
 3844W        W22698   6.956   0.548   1.115  0.2628 -0.0691 -0.4233
 3845W        W22699   6.901   8.608   2.686  0.3352  0.1020  0.0221
 3846W        W22700  10.069   9.574   3.876 -0.0717 -0.0915 -0.2964
 3847W        W22701  11.042   1.843   0.160 -0.0432 -0.1065 -0.0281
 3848W        W22702   5.050  17.689  12.811  0.0271  0.0827 -0.0352
 3849W        W22703  14.706  13.869  12.062 -0.2071 -0.1655  0.1605
 3850W        W22704  11.979  15.258  13.101  0.3968  0.2252 -0.3487
 3851W        W22705   2.073   1.652   0.934  0.0649 -0.0277  0.1437
 3852W        W22706  13.290  12.474   4.911  0.1839 -0.2520  0.1953
 3853W        W22707   6.824   7.700  12.912  0.1035  0.0567  0.0842
 3854W        W22708  14.383   3.002  12.789  0.0732 -0.0391  0.0284
 3855W        W22709   4.720  15.174   2.019 -0.0891 -0.4117 -0.0192
 3856W        W22710   4.858  13.786   4.231  0.0036  0.1942  0.0463
 3857W        W22711   5.201   3.268  14.471 -0.3972  0.0809 -0.2110
 3858W        W22712  11.094  16.551   2.561 -0.1326  0.0615  0.1577
 3859W        W22713   3.889  12.507   1.853 -0.1559  0.0930 -0.1421
 3860W        W22714  15.297   5.092   1.572  0.0764  0.0414  0.1569
 3861W        W22715   4.671   0.611  12.937  0.1232 -0.1496 -0.2008
 3862W        W22716  17.257   4.502  10.969 -0.0295 -0.1127  0.3234
 3863W        W22717   2.814   4.268  13.720 -0.3406 -0.0903  0.1459
 3864W        W22718   6.720   0.085  13.522 -0.1763 -0.0347 -0.0054
 3865W        W22719   5.354   9.626  10.762 -0.0969  0.0555 -0.3423
 3866W        W22720  11.495   5.742   0.178 -0.0055 -0.2080  0.2270
 3867W        W22721  19.167   0.594  10.273 -0.0511  0.1611  0.0622
 3868W        W22722   2.354   2.192  13.265  0.1737  0.0445 -0.1851
 3869W        W22723   6.388  10.856   3.343 -0.0839  0.0122 -0.0569
 3870W        W22724   6.792  11.102  12.957 -0.0256  0.3053 -0.0857
 3871W        W22725   1.091   7.306   2.912  0.3798 -0.0259 -0.0534
 3872W        W22726   4.443  16.135  12.451 -0.0889  0.0908  0.0523
 3873W        W22727  17.487   2.184  14.267  0.0495 -0.1693  0.0172
 3874W        W22728   0.434  15.431   4.437  0.2485 -0.0944 -0.3438
 3875W        W22729   4.323   3.354  11.292 -0.1790  0.0927 -0.0901
 3876W        W22730   7.740  16.283   0.140  0.0568  0.2050 -0.2748
 3877W        W22731   3.876  12.472   3.521 -0.1053 -0.0459 -0.1355
 3878W        W22732   6.576  19.027   2.156  0.0416  0.3383 -0.1036
 3879W        W22733  17.852  11.534   2.386 -0.1006 -0.1990 -0.0507
 3880W        W22734  11.035   9.813  12.176  0.0548  0.0133 -0.0832
 3881W        W22735   1.645   5.731  12.060 -0.1345 -0.0299 -0.1420
 3882W        W22736   3.567  15.056   2.111 -0.1200  0.0064  0.0306
 3883W        W22737  18.909  16.939  13.385  0.0127  0.2078 -0.2575
 3884W        W22738  14.654   3.454  13.036  0.0198  0.1309 -0.2092
 3885W        W22739   4.702   7.893   4.122 -0.2515  0.2337  0.0454
 3886W        W22740   2.280  18.735   4.525 -0.2335 -0.1338  0.2038
 3887W        W22741  18.788  15.040   5.649  0.1409 -0.0363 -0.1085
 3888W        W22742   6.652  12.916   3.368  0.0767 -0.0522  0.2502
 3889W        W22743  11.827   4.351  14.553  0.0239 -0.1138 -0.1336
 3890W        W22744  15.311  15.484  14.285 -0.1495 -0.0016 -0.0602
 3891W        W22745   0.251  11.012  11.512  0.1680 -0.0168 -0.0126
 3892W        W22746   6.521  11.305   1.481  0.1501  0.2251  0.0816
 3893W        W22747   9.405  10.360  13.790  0.2818  0.0251 -0.0303
 3894W        W22748  18.005   9.957   0.656 -0.0911  0.3432 -0.2213
 3895W        W22749   8.256  12.640   1.235 -0.0327  0.1607 -0.1866
 3896W        W22750  12.710  10.148  12.161 -0.1461  0.1071 -0.2398
 3897W        W22751   2.624  18.293  11.025  0.1157  0.0210  0.1275
 3898W        W22752  17.965  17.406   2.871  0.1980  0.0866 -0.0429
 3899W        W22753   7.040  14.234   3.041 -0.1894  0.1226  0.4179
 3900W        W22754   6.791   4.913   4.825 -0.1723  0.0582  0.1448
 3901W        W22755  18.410   0.429  12.643 -0.1674  0.1508 -0.0949
 3902W        W22756  11.422   6.702   0.642 -0.1723 -0.1574  0.2777
 3903W        W22757  17.453  14.067   3.496 -0.2374 -0.2002  0.1569
 3904W        W22758  11.369   6.000   1.841  0.0502 -0.3998  0.1159
 3905W        W22759  12.941   8.695   0.727  0.1602 -0.0117  0.3859
 3906W        W22760   1.438  18.554  12.472  0.0424 -0.3297  0.0992
 3907W        W22761   7.887   4.896  10.976 -0.0199 -0.0324 -0.0638
 3908W        W22762   7.403  17.521   0.047  0.1412 -0.0151 -0.0209
 3909W        W22763  11.139   9.412  11.260 -0.1194 -0.1321 -0.2574
 3910W        W22764   9.038   7.839  13.634 -0.0084 -0.0403  0.0999
 3911W        W22765  10.347   9.179  12.685 -0.0276  0.0037  0.3780
 3912W        W22766  11.609   5.933   2.878  0.3286 -0.0746  0.2466
 3913W        W22767   9.637   6.467   9.884 -0.0394  0.4757  0.0778
 3914W        W22768   3.355  12.089   4.203  0.0078  0.0385 -0.0717
 3915W        W22769  10.619   8.081   4.305 -0.0241  0.0739  0.0139
 3916W        W22770   2.178  18.595   3.276 -0.1267  0.3570 -0.2297
 3917W        W22771   8.131  17.946  13.691  0.1813  0.0009  0.0693
 3918W        W22772  11.138   5.476   3.373  0.1717  0.1744 -0.0139
 3919W        W22773   0.425   5.453   1.764  0.1532  0.0247  0.0505
 3920W        W22774  11.561   8.051  10.482  0.1127  0.0586  0.3280
 3921W        W22775  14.843   4.329  14.075  0.0107  0.1117  0.0580
 3922W        W22776   9.199  11.969  11.977 -0.0930 -0.0252  0.4190
 3923W        W22777  17.634  18.567  12.723  0.3882 -0.3250 -0.1809
 3924W        W22778  10.916   5.880  12.371 -0.1302  0.0536 -0.0360
 3925W        W22779  18.552  15.056  11.572 -0.2364 -0.0634 -0.0536
 3926W        W22780   1.912   4.402  13.532  0.0696 -0.1569 -0.0082
 3927W        W22781   5.214  17.330  12.453  0.0656 -0.1143 -0.0734
 3928W        W22782   9.958   3.523  13.327 -0.1068  0.0564  0.0261
 3929W        W22783   3.015   1.518  11.164 -0.3633  0.4465 -0.2128
 3930W        W22784  16.753   0.125  13.177  0.1591 -0.2588 -0.1607
 3931W        W22785  11.893   4.092  13.719 -0.0517  0.2822 -0.3622
 3932W        W22786  18.085  17.836  12.132  0.4804  0.0639  0.0885
 3933W        W22787   1.861  16.966   0.990 -0.0170  0.1185 -0.3051
 3934W        W22788   7.629   7.635   1.263 -0.0405 -0.1212 -0.0944
 3935W        W22789  17.743   1.661  14.663 -0.1025 -0.1618 -0.3094
 3936W        W22790   2.940   9.929   4.074  0.1309  0.0467 -0.2887
 3937W        W22791   6.087   5.367   1.838  0.3425 -0.2158 -0.1113
 3938W        W22792   6.020   1.571   4.591 -0.0823  0.0035 -0.1422
 3939W        W22793   7.263   7.586   0.850  0.1549  0.0361  0.1958
 3940W        W22794   8.394  10.052   3.159 -0.1935 -0.2756  0.0213
 3941W        W22795   0.001  13.399  14.194 -0.0943  0.0610  0.0732
 3942W        W22796  15.783  13.089  14.226 -0.0913  0.1037  0.1159
 3943W        W22797   2.298   2.998   0.197  0.1136 -0.0021 -0.0091
 3944W        W22798  11.149   6.713  13.497  0.1941  0.0325 -0.2788
 3945W        W22799  16.865   2.600   0.142 -0.0727 -0.1698  0.2359
 3946W        W22800   8.515   3.384  12.028  0.0622 -0.1480 -0.5266
 3947W        W22801  13.354  11.199   3.423 -0.0733 -0.2237 -0.0719
 3948W        W22802   0.392  11.864  11.871 -0.1181 -0.1369  0.0859
 3949W        W22803  19.094   2.877  10.233  0.0668  0.1248  0.3070
 3950W        W22804   4.573  16.348  14.058 -0.0233  0.4819  0.1266
 3951W        W22805   9.296   4.440   1.578 -0.3167 -0.2134  0.0995
 3952W        W22806   7.356  16.495   2.757  0.3128 -0.1124 -0.1233
 3953W        W22807   2.989  15.819  11.498  0.1460  0.1140  0.0305
 3954W        W22808   4.508  11.773   3.664  0.1899  0.0765 -0.1997
 3955W        W22809   2.340   0.342  13.360 -0.0318  0.1181 -0.3564
 3956W        W22810  14.317  12.533  13.115 -0.1124 -0.1119  0.1053
 3957W        W22811   6.005   1.566  14.002 -0.1418  0.0174  0.3120
 3958W        W22812  18.888   7.024  13.413  0.1976  0.1289  0.1952
 3959W        W22813  14.302   3.189   2.391  0.3066 -0.1987  0.0526
 3960W        W22814   2.450   6.150   0.316 -0.0032  0.3738 -0.3291
 3961W        W22815   7.287  15.536   1.696  0.1761  0.0886  0.0865
 3962W        W22816  11.892   6.744   4.053 -0.1013 -0.0713 -0.0577
 3963W        W22817   6.251  10.200   0.732 -0.0551  0.4548 -0.4747
 3964W        W22818  18.588  18.663  12.308  0.2657 -0.0476  0.0945
 3965W        W22819   8.656   6.949   4.375 -0.0277  0.0922 -0.3949
 3966W        W22820  10.785  13.685   0.487 -0.1419  0.1907 -0.2158
 3967W        W22821   4.133  14.636  13.114 -0.2358 -0.1396 -0.1491
 3968W        W22822  17.992  13.134  10.441 -0.0782  0.2301 -0.2113
 3969W        W22823  19.044  13.019   2.094 -0.0069  0.0594  0.2655
 3970W        W22824  12.078   9.143  14.231 -0.1199 -0.0633  0.3528
 3971W        W22825  12.740  17.285  10.475 -0.2040 -0.1154 -0.1489
 3972W        W22826  17.846  12.790   0.999 -0.0830  0.0459  0.1717
 3973W        W22827   9.185  14.420  14.678 -0.3573  0.0076  0.0281
 3974W        W22828   0.834   8.078  11.849  0.0171 -0.4388  0.2332
 3975W        W22829   9.233   8.408  11.949 -0.1575 -0.0558 -0.2106
 3976W        W22830   3.827  14.046   2.953  0.0061 -0.3210 -0.0779
 3977W        W22831  14.273  13.426   3.301  0.0997 -0.1364 -0.1660
 3978W        W22832  12.408  14.813   1.770 -0.1416 -0.0002 -0.0437
 3979W        W22833  17.402   4.539   2.788  0.0443  0.2144  0.1261
 3980W        W22834  10.765  13.157   3.061  0.2085  0.3540  0.2023
 3981W        W22835  10.838  16.744   0.919 -0.3080 -0.1316 -0.0176
 3982W        W22836   7.498  11.769   3.369  0.0164 -0.1376 -0.1856
 3983W        W22837   9.023  15.728   5.354  0.0886 -0.2920 -0.0402
 3984W        W22838   7.472   6.350  13.027  0.0038 -0.0638  0.2577
 3985W        W22839  11.545  16.243  11.205 -0.2128 -0.1615 -0.1197
 3986W        W22840  12.854   9.821  10.864 -0.1270 -0.0479  0.4946
 3987W        W22841   4.577   3.289  12.461 -0.1167  0.1348 -0.1326
 3988W        W22842  11.212  17.031  12.272  0.5119  0.1232  0.1473
 3989W        W22843  14.808  10.953   2.063 -0.1867  0.0207  0.2427
 3990W        W22844   7.904   5.130  11.828 -0.1887 -0.1334  0.0291
 3991W        W22845   6.140   3.758   4.837 -0.3898 -0.1454 -0.0231
 3992W        W22846   1.840   5.708   3.380 -0.2006 -0.0642  0.0703
 3993W        W22847  17.791  11.402  12.972 -0.1088 -0.1259 -0.1330
 3994W        W22848   3.020   3.148   1.392 -0.3127  0.2658 -0.1684
 3995W        W22849   7.862  18.494   4.270  0.0323  0.0209 -0.1728
 3996W        W22850   6.692   8.345  10.974  0.2875  0.0413  0.2874
 3997W        W22851   6.636   2.242   1.078 -0.2446 -0.1589  0.3334
 3998W        W22852  12.239  12.833  13.547  0.1089  0.2011 -0.1215
 3999W        W22853  15.902  11.300  10.741  0.1356  0.5014 -0.1773
 4000W        W22854   8.482  10.679   9.866 -0.0089 -0.0152  0.2116
 4001W        W22855  12.937   6.988  10.756  0.0510 -0.0076  0.0326
 4002W        W22856  13.600  10.703  10.385  0.0289 -0.0692  0.3379
 4003W        W22857  17.662   4.407  13.066  0.1716  0.3172  0.0334
 4004W        W22858   8.270  18.834   3.062  0.1488  0.2343  0.0648
 4005W        W22859   9.869  17.976  11.779  0.5414  0.2441 -0.2140
 4006W        W22860  10.190   5.953  11.981  0.2129 -0.0248 -0.0204
 4007W        W22861   0.300   9.533   3.621 -0.0547  0.2367  0.3183
 4008W        W22862   8.203  18.949  14.663 -0.2144 -0.2264 -0.0585
 4009W        W22863   7.862   3.815  10.195 -0.0122 -0.2191  0.3608
 4010W        W22864  16.478   9.515  11.835 -0.0120  0.3717 -0.2665
 4011W        W22865   6.796   8.752  12.643  0.1556  0.3025 -0.2352
 4012W        W22866  17.143  13.497  13.707 -0.0700  0.1452  0.1728
 4013W        W22867   3.665   4.610  13.868 -0.2654  0.1171 -0.0080
 4014W        W22868   5.041  16.046   5.519 -0.1252  0.1361  0.3021
 4015W        W22869   0.305   7.125  10.747  0.0227 -0.1096  0.1487
 4016W        W22870   2.109   0.934  14.520 -0.1254 -0.2063 -0.1251
 4017W        W22871  11.588  12.028   9.309  0.1536  0.2052  0.1524
 4018W        W22872  13.236   8.622  11.245  0.1316 -0.0256  0.2739
 4019W        W22873  15.540   5.208  11.886  0.0183 -0.0660 -0.0812
 4020W        W22874  11.724  16.542  13.647  0.0903  0.0458  0.0821
 4021W        W22875  12.949  11.896   2.075 -0.1233 -0.2319  0.3305
 4022W        W22876   7.404  12.823  13.664  0.1446  0.1886  0.0382
 4023W        W22877  12.610   6.320  11.224  0.0596 -0.1129  0.2286
 4024W        W22878  18.456  10.715  13.881  0.0235  0.2003  0.2299
 4025W        W22879   7.792  11.617  12.792  0.0365 -0.1369 -0.0087
 4026W        W22880  17.130   9.469   3.392  0.2474  0.5338  0.2290
 4027W        W22881  19.140   0.017   0.603 -0.3346 -0.1556  0.1975
 4028W        W22882   1.319   4.532  14.705 -0.2480 -0.1040 -0.2472
 4029W        W22883   1.708   3.231   2.431  0.2183  0.1349  0.2201
 4030W        W22884  10.348  15.063   1.618  0.0575 -0.2017  0.0258
 4031W        W22885   9.318  12.080   2.210 -0.1266 -0.0502 -0.1547
 4032W        W22886   2.447  18.153   1.625 -0.1573 -0.1215 -0.1236
 4033W        W22887  13.821   5.215  10.804  0.2722 -0.2113 -0.0280
 4034W        W22888   8.854   3.947  14.222  0.2114 -0.0712  0.3054
 4035W        W22889   6.933  15.680  11.715  0.1816  0.0448 -0.1293
 4036W        W22890   9.331  17.109  13.539  0.1670 -0.1907 -0.3760
 4037W        W22891  14.859  19.041  11.931 -0.1313 -0.0922 -0.0954
 4038W        W22892  15.405   3.589  10.905 -0.2059 -0.0121 -0.1124
 4039W        W22893   1.428  15.449  12.621  0.1136 -0.0342  0.0295
 4040W        W22894  11.722   6.334  14.123 -0.1420  0.1527  0.4307
 4041W        W22895  18.732   8.088   1.418  0.1229 -0.0690 -0.0181
 4042W        W22896  15.569   9.296   1.673  0.2935  0.3025 -0.2581
 4043W        W22897  10.812   4.424  10.078 -0.2264  0.0324  0.0746
 4044W        W22898  13.590  16.564   1.857 -0.2829 -0.0720  0.0343
 4045W        W22899   0.726  10.416   4.778  0.0611  0.0522 -0.0737
 4046W        W22900   3.235  11.718   5.131 -0.1301  0.0234 -0.1031
 4047W        W22901   1.507  19.131   2.977  0.2595  0.0450 -0.0788
 4048W        W22902  11.642  10.386   2.028 -0.1633  0.1055  0.0144
 4049W        W22903   9.688  13.762  11.452 -0.0719  0.1034  0.0071
 4050W        W22904  18.349   3.997   1.845  0.0730 -0.2383  0.2018
 4051W        W22905   5.477  11.104  10.352  0.4178  0.0340  0.2496
 4052W        W22906   7.393   3.663  10.817 -0.0594 -0.0116  0.0498
 4053W        W22907   4.595   4.913   3.587  0.1008  0.0897 -0.0278
 4054W        W22908   6.010   1.509  11.168 -0.1121 -0.1702  0.2648
 4055W        W22909   3.078  10.870   1.278  0.1063 -0.0768  0.0141
 4056W        W22910   1.707   5.948   9.792 -0.2136 -0.0251  0.0236
 4057W        W22911  17.911   0.354  14.515  0.1703 -0.0749 -0.3618
 4058W        W22912   3.768  11.729   4.303 -0.0163 -0.2514  0.0021
 4059W        W22913  13.156  15.230   3.858 -0.1988 -0.2466 -0.4134
 4060W        W22914  15.221  12.096   9.446 -0.2281 -0.1536  0.1175
 4061W        W22915   4.721   3.135  14.101  0.1276  0.4113 -0.0037
 4062W        W22916   0.575  16.276  12.642 -0.0133 -0.1070  0.0685
 4063W        W22917   1.307   0.363   3.299  0.3468 -0.2249 -0.0432
 4064W        W22918  16.797  18.390   2.156  0.0207 -0.0395  0.2430
 4065W        W22919  11.190  14.765   0.798 -0.0348 -0.0120 -0.4371
 4066W        W22920  18.205  17.618   4.973  0.1303 -0.0344 -0.0170
 4067W        W22921   0.919  12.981  13.061 -0.3479 -0.2231 -0.0624
 4068W        W22922   8.803   5.752   2.966  0.2248  0.2835 -0.1850
 4069W        W22923   1.479  17.367  13.774  0.1192  0.2780  0.1337
 4070W        W22924   1.534  10.985  12.958 -0.1307  0.0606  0.0011
 4071W        W22925  15.411  16.145   1.200  0.0286 -0.4815  0.0533
 4072W        W22926   6.627   1.353   4.931  0.1444  0.0989 -0.1462
 4073W        W22927  14.832   6.718   1.734 -0.1597 -0.0512  0.2207
 4074W        W22928   1.519   6.426   0.044  0.0683  0.1043  0.0296
 4075W        W22929   4.233   0.385  12.005 -0.2211 -0.1013  0.1380
 4076W        W22930  13.014  10.488   3.444 -0.0631  0.1670  0.3792
 4077W        W22931  10.510  15.786  13.814 -0.0492  0.0876 -0.0045
 4078W        W22932   4.002  10.592   0.342 -0.1377  0.0023  0.1131
 4079W        W22933  18.401  19.174  12.536 -0.1819  0.1896  0.1659
 4080W        W22934  12.290  13.659   3.373 -0.3504  0.0890 -0.0823
 4081W        W22935   4.964   1.126  12.716 -0.1942  0.0546  0.0749
 4082W        W22936  14.041  11.626   0.486  0.2249 -0.2076 -0.0270
 4083W        W22937  12.474   8.509   3.077  0.0468  0.1920  0.0910
 4084W        W22938   0.444   6.328  11.703  0.4215  0.1302 -0.1724
 4085W        W22939  15.635  15.854   2.497  0.2474  0.0734 -0.2439
 4086W        W22940  11.200   6.240  14.369  0.0495 -0.2146 -0.0667
 4087W        W22941   7.181  18.095   2.741 -0.2627 -0.1819  0.3026
 4088W        W22942  18.019  15.613   1.367 -0.2863  0.0428  0.2518
 4089W        W22943  17.071  14.185  11.067 -0.0258  0.3206  0.0663
 4090W        W22944  14.213  19.066   0.577 -0.0099  0.0574  0.0391
 4091W        W22945   3.055   0.164  13.560  0.0915  0.0628 -0.1664
 4092W        W22946   6.188   2.458   2.977  0.0353  0.0372 -0.1538
 4093W        W22947   1.022   4.345   1.092  0.3120  0.2885  0.1989
 4094W        W22948  12.723  10.575   3.883 -0.2683 -0.2101 -0.2103
 4095W        W22949   2.630  17.234   2.075  0.2352  0.0764 -0.0123
 4096W        W22950   2.213  17.480  12.632 -0.1370  0.1002  0.1019
 4097W        W22951  12.519   4.921  11.175 -0.1389 -0.2778  0.1172
 4098W        W22952  15.537   0.914   1.603  0.0391 -0.2964  0.0056
 4099W        W22953   1.070  15.840   0.204 -0.0511 -0.1648  0.0954
 4100W        W22954   9.111   2.329  13.928  0.0606 -0.1820 -0.3294
 4101W        W22955   7.969   5.088   1.295  0.0908  0.0413 -0.1211
 4102W        W22956   4.576   4.606   4.383  0.1940  0.0500  0.3600
 4103W        W22957  19.027  17.745   0.916 -0.2850  0.3235 -0.1477
 4104W        W22958  16.835   3.087  12.071  0.3440  0.4071  0.0416
 4105W        W22959  16.818  16.949   1.838  0.0396 -0.2007  0.1458
 4106W        W22960   1.027   7.849   1.265  0.3209 -0.0576 -0.1829
 4107W        W22961   2.812   2.215   1.817  0.2677  0.4234  0.3228
 4108W        W22962  17.669   7.115  10.355 -0.3094  0.0342 -0.2717
 4109W        W22963   0.033  17.557  12.929 -0.1428 -0.1245 -0.0139
 4110W        W22964   5.715   6.015   5.105 -0.0483  0.2329 -0.0383
 4111W        W22965  12.292   2.481  12.351 -0.3340 -0.1984 -0.2363
 4112W        W22966  11.328  15.186   1.717  0.0784 -0.1728 -0.0090
 4113W        W22967  15.388  13.672  12.513  0.1215 -0.1840 -0.0655
 4114W        W22968  11.198  13.782   0.156 -0.1181 -0.0649  0.4356
 4115W        W22969  10.891   2.384  14.011  0.1087  0.0305  0.0100
 4116W        W22970   4.182   2.974   3.258 -0.1819 -0.2881  0.0704
 4117W        W22971  12.938   5.934   1.017 -0.0405  0.0989  0.0565
 4118W        W22972   6.515  11.535  12.568  0.0167 -0.1144 -0.3345
 4119W        W22973   5.845   1.137   4.498  0.2191 -0.0414 -0.2072
 4120W        W22974   2.324  18.859   0.950  0.4109 -0.0784  0.0070
 4121W        W22975  12.718  10.020   3.151  0.1596 -0.1108  0.0633
 4122W        W22976  15.466  18.116  11.893  0.1863 -0.1745 -0.1364
 4123W        W22977  16.437  12.444   3.416  0.0627  0.0051  0.0795
 4124W        W22978   8.402   6.631   1.079 -0.2564 -0.2390 -0.2013
 4125W        W22979   4.165   7.849   1.786 -0.1511 -0.0379 -0.2331
 4126W        W22980   5.372  10.829   4.808  0.1708  0.1843  0.1905
 4127W        W22981   6.263   1.114   2.793 -0.2026 -0.0459  0.2294
 4128W        W22982   7.892  14.904  11.538 -0.2515 -0.3546 -0.0342
 4129W        W22983  19.048   7.451  13.694 -0.0679 -0.0319 -0.0564
 4130W        W22984  13.933   0.331   3.479 -0.0758  0.0932  0.2996
 4131W        W22985   0.439   7.041   1.181  0.2659 -0.3445 -0.1287
 4132W        W22986   6.939   6.141  12.229 -0.0942  0.1338 -0.0329
 4133W        W22987   4.705  17.959  11.887 -0.0909  0.0613  0.1876
 4134W        W22988   2.253  12.973  13.846  0.2717 -0.0029 -0.1510
 4135W        W22989  14.643  13.354   0.884  0.1971  0.4019  0.0518
 4136W        W22990   8.406   4.711   2.983 -0.1085 -0.4710 -0.3533
 4137W        W22991  16.307  10.405   2.882  0.1539  0.3225 -0.0141
 4138W        W22992  12.776  17.797   0.837 -0.2160 -0.1711  0.3524
 4139W        W22993   1.348  15.904  13.750 -0.0425 -0.4839 -0.3720
 4140W        W22994  11.378   0.038   1.309  0.1792  0.2307 -0.0799
 4141W        W22995   2.389   6.823  13.368 -0.0289  0.1292 -0.4138
 4142W        W22996   1.863   8.330   3.637 -0.2578 -0.1767 -0.0405
 4143W        W22997  14.286  11.849  10.916  0.0618 -0.0418  0.1362
 4144W        W22998   6.084   8.215   1.684 -0.2044 -0.2707  0.1035
 4145W        W22999  11.973   8.156   0.565 -0.0670  0.1567 -0.1737
 4146W        W23000   9.041   0.673   1.454 -0.1276  0.2966  0.0378
 4147W        W23001   0.104  19.097  13.317  0.2554 -0.0571 -0.1397
 4148W        W23002   5.751  16.489  13.872  0.0530 -0.3737  0.1037
 4149W        W23003   7.760   6.419   0.455 -0.2106 -0.1137  0.1397
 4150W        W23004  10.374  15.920   1.058 -0.1179 -0.1559 -0.0408
 4151W        W23005  18.396  16.820   2.744 -0.2042 -0.0213 -0.1213
 4152W        W23006   8.438   3.546  12.486  0.1008 -0.0039  0.1498
 4153W        W23007  10.771   7.762   9.226 -0.3626  0.2084 -0.1049
 4154W        W23008   4.154  12.356  11.426 -0.0820  0.1071  0.1928
 4155W        W23009   0.841   3.448  12.248 -0.1019  0.0209 -0.1341
 4156W        W23010  14.713  16.603  14.437 -0.0141  0.1789  0.0670
 4157W        W23011   0.138  10.639  14.327 -0.0028 -0.0172  0.1669
 4158W        W23012   0.862  11.305   1.151 -0.1231 -0.2648 -0.1531
 4159W        W23013   6.173   5.443  10.702  0.0127 -0.0105 -0.1849
 4160W        W23014  11.288  10.597  14.546  0.1241  0.3344 -0.2923
 4161W        W23015  12.502   0.860   3.642  0.2627 -0.0608 -0.0021
 4162W        W23016   2.861   5.591  13.829  0.2624 -0.1542  0.2475
 4163W        W23017   1.351   1.338  14.343 -0.2243  0.3634 -0.0797
 4164W        W23018  12.800  11.860  12.402  0.0612  0.0786  0.1271
 4165W        W23019   4.378  10.952   2.514  0.3366  0.0472  0.1498
 4166W        W23020  10.298  10.233   1.033  0.1717  0.1062 -0.0467
 4167W        W23021   7.059  15.961   3.147  0.2602 -0.1118 -0.0504
 4168W        W23022   0.073   8.102  10.579 -0.2825  0.0145 -0.0683
 4169W        W23023   1.028   0.790  12.433  0.0834  0.3279 -0.3684
 4170W        W23024  13.168  17.514   3.004  0.2355  0.2868 -0.0554
 4171W        W23025   4.000   3.412   2.801  0.0964 -0.0422  0.0731
 4172W        W23026  16.297  19.104  12.615  0.0696 -0.0122  0.0287
 4173W        W23027   3.896   2.576   5.369  0.0256  0.0383  0.1655
 4174W        W23028  15.475   6.456   1.054 -0.0254  0.1343  0.0520
 4175W        W23029   6.371  13.966   1.382 -0.0222  0.2347  0.3143
 4176W        W23030  10.634   2.448   3.775 -0.2648 -0.1672 -0.2125
 4177W        W23031   7.481  12.176   5.289  0.1837 -0.0562  0.2128
 4178W        W23032   0.106  10.080   1.029 -0.1402  0.0595  0.1997
 4179W        W23033  13.235   2.829   0.490 -0.0648 -0.0049 -0.3873
 4180W        W23034   7.034   9.600   0.827  0.0060 -0.3101  0.0401
 4181W        W23035  17.233  15.550  12.866 -0.1624 -0.0010  0.1100
 4182W        W23036  14.961   3.878  12.847 -0.3646  0.2543 -0.0151
 4183W        W23037   9.212  10.547  11.329  0.1161  0.0151  0.3096
 4184W        W23038  15.077   7.495  13.688 -0.2402  0.0703 -0.0432
 4185W        W23039   0.473   3.198  11.458  0.0183  0.0066  0.0846
 4186W        W23040  12.045  15.723  13.216 -0.1048  0.0496  0.1389
 4187W        W23041  16.040  18.905   1.419 -0.0707 -0.1483 -0.0316
 4188W        W23042  11.406  12.111   0.654  0.0644 -0.2465  0.3044
 4189W        W23043  10.700   6.844  13.703 -0.3342  0.2311 -0.0656
 4190W        W23044  11.152   4.582  10.920 -0.6736  0.1741  0.0978
 4191W        W23045   7.592  18.653  13.749 -0.0209 -0.0764 -0.0147
 4192W        W23046  17.133  13.084   0.338  0.2620 -0.1344  0.0941
 4193W        W23047   9.439  15.772  12.737 -0.0440  0.2189  0.4058
 4194W        W23048   2.087   8.950   1.975 -0.0572 -0.0116  0.0156
 4195W        W23049  15.554  17.989   5.421  0.1000  0.0568  0.1006
 4196W        W23050   8.693  13.726   2.639  0.1157 -0.2510 -0.0828
 4197W        W23051   9.807  15.848   4.703  0.1963  0.0318  0.1324
 4198W        W23052   9.103  10.216   9.439  0.1032  0.3184  0.2362
 4199W        W23053   4.298  14.650  11.351  0.0845 -0.0840 -0.1411
 4200W        W23054   3.204   8.782   1.449  0.3068  0.2638 -0.1554
 4201W        W23055  18.002   8.602   0.072  0.0161  0.0647 -0.4308
 4202W        W23056  18.472  11.340  13.478 -0.0329 -0.1472  0.0002
 4203W        W23057  11.836  13.884   3.221 -0.1514  0.2802 -0.0760
 4204W        W23058   5.480  16.523  12.050  0.0172 -0.0828 -0.0340
 4205W        W23059  13.700  12.153   3.650 -0.2347  0.0380 -0.2603
 4206W        W23060  17.715   9.653  12.423 -0.0414  0.0760 -0.1218
 4207W        W23061   2.505   4.421  11.905 -0.0822 -0.0659 -0.0999
 4208W        W23062  14.012   3.899   0.974  0.1700 -0.3442 -0.0995
 4209W        W23063   3.365  13.514   0.056  0.0155 -0.0211 -0.4206
 4210W        W23064  10.435   1.605   3.059  0.2069  0.1049  0.3611
 4211W        W23065  13.603   8.916   3.118 -0.0677 -0.2872 -0.0888
 4212W        W23066  14.924  14.704   1.760  0.0768  0.2144  0.1220
 4213W        W23067   2.264  10.696   2.728 -0.1949  0.0182 -0.0229
 4214W        W23068   1.071  10.429  13.951 -0.0316  0.0273 -0.1249
 4215W        W23069  16.263  15.327  12.602 -0.0866  0.0821 -0.4541
 4216W        W23070   0.815  10.420  11.965  0.1668  0.0391 -0.1278
 4217W        W23071  16.160  11.392   0.028  0.0063 -0.4879  0.4808
 4218W        W23072  13.133  15.439  13.239 -0.1981  0.0087 -0.2025
 4219W        W23073  10.870   7.665  10.720 -0.2042 -0.0138 -0.2184
 4220W        W23074  12.796  13.223  12.839 -0.2769  0.1528 -0.4848
 4221W        W23075   5.217   9.453   2.881 -0.0482 -0.2477  0.0785
 4222W        W23076  11.784   3.065   1.813 -0.0463  0.3555  0.1199
 4223W        W23077   2.744   3.851   4.162  0.1057  0.3980 -0.2170
 4224W        W23078   7.161   0.840   3.343 -0.1053 -0.0527  0.0723
 4225W        W23079  10.120  14.277   4.198 -0.0187 -0.1213 -0.1348
 4226W        W23080   6.307  18.017  14.034  0.1372  0.2853  0.3962
 4227W        W23081   3.012  10.674   4.761  0.3616  0.0988  0.1893
 4228W        W23082   1.396   7.092  14.325  0.0233 -0.1867  0.2119
 4229W        W23083   0.153   2.054   0.734  0.0406 -0.4291  0.0959
 4230W        W23084   8.128   5.117   3.143 -0.1959  0.1091  0.0135
 4231W        W23085  18.240   2.757   0.701  0.0987  0.1448  0.2005
 4232W        W23086   7.308   2.061   1.924  0.3166 -0.0084 -0.1228
 4233W        W23087   0.229   0.333  11.146 -0.0506 -0.1728  0.0943
 4234W        W23088  10.944   9.080  11.996 -0.0526  0.1055 -0.1319
 4235W        W23089  10.854  16.433  14.211  0.0360 -0.1204 -0.1460
 4236W        W23090   5.939   2.263  12.726 -0.2951  0.1982  0.0384
 4237W        W23091  17.955   1.438   3.681  0.0845 -0.2124  0.1057
 4238W        W23092  16.092  10.147  10.335  0.2373  0.1955 -0.2146
 4239W        W23093   3.032   9.474   3.440  0.1725  0.1749  0.4289
 4240W        W23094   0.227  10.570   4.493  0.0765  0.1951  0.1613
 4241W        W23095   4.590  16.920  11.923 -0.3599 -0.0132  0.0688
 4242W        W23096   0.104   6.786   4.102  0.0990 -0.2006  0.3713
 4243W        W23097  11.515  17.771   1.397  0.0127 -0.0383 -0.0826
 4244W        W23098   3.678  12.908   0.785 -0.2591  0.0468  0.1888
 4245W        W23099  11.881  12.912   0.380  0.4416 -0.5102  0.1511
 4246W        W23100   3.477   4.986  10.691 -0.1592 -0.0608  0.1441
 4247W        W23101   0.632   7.623  12.005 -0.1836 -0.0820  0.0628
 4248W        W23102  12.501   5.145  13.508 -0.0413 -0.0417  0.2209
 4249W        W23103   7.650   6.108   2.042  0.0623  0.2308  0.1053
 4250W        W23104  14.830   3.511  11.603  0.1536  0.3143 -0.1630
 4251W        W23105  11.336  13.803  12.765  0.1086 -0.1278  0.0512
 4252W        W23106  18.945   9.079  12.302  0.1572  0.5780 -0.1180
 4253W        W23107  12.957   2.506  13.446  0.2819  0.2313  0.0613
 4254W        W23108  11.129  17.886  14.363  0.1553  0.1310  0.2490
 4255W        W23109  15.407  14.398  13.354  0.0259 -0.1190  0.0214
 4256W        W23110  15.141  12.330  11.499  0.2433 -0.0557  0.1754
 4257W        W23111   4.349   5.085  12.365 -0.2557  0.2057 -0.0187
 4258W        W23112   3.911  16.173  14.083 -0.2960  0.1845 -0.0290
 4259W        W23113   9.028  17.286  10.989 -0.2952 -0.2940 -0.0065
 4260W        W23114   8.715   5.916   0.537 -0.0667  0.3005 -0.0266
 4261W        W23115   7.376   5.130   4.033 -0.0771 -0.0249 -0.1586
 4262W        W23116   1.953  13.743   2.098 -0.1247 -0.1545  0.1481
 4263W        W23117  15.862  14.031  11.159 -0.0488  0.1111  0.1852
 4264W        W23118   5.578  17.329  11.349  0.3382 -0.1013 -0.1080
 4265W        W23119   3.712   8.352   2.843 -0.1464  0.2540  0.4466
 4266W        W23120   8.316  17.756  11.960 -0.1576  0.0121 -0.1317
 4267W        W23121   0.279  17.903   4.630  0.0432 -0.0610  0.0540
 4268W        W23122  16.682   9.837  13.552  0.0090 -0.1814 -0.1982
 4269W        W23123   6.795  17.711   3.801  0.1741 -0.0022 -0.0102
 4270W        W23124  14.888   8.207   3.100 -0.3408 -0.0886 -0.0054
 4271W        W23125  16.640  13.550  11.993  0.1011 -0.1076 -0.0824
 4272W        W23126   5.416   5.867   0.238 -0.0146 -0.4093 -0.1775
 4273W        W23127  16.755   2.285   0.549  0.0705 -0.0310 -0.1004
 4274W        W23128   2.800  18.630   0.457  0.1493  0.1640  0.0002
 4275W        W23129   7.801  14.900   1.327  0.2431 -0.2135 -0.1592
 4276W        W23130   7.405  12.370   1.791 -0.3338 -0.3056  0.1658
 4277W        W23131   9.212   0.636  10.871 -0.0342 -0.2221  0.0031
 4278W        W23132   3.340  16.396   0.166 -0.0563 -0.1494  0.1309
 4279W        W23133   8.078   8.432   9.213  0.0078 -0.1010 -0.0064
 4280W        W23134  13.750   6.638   4.083  0.1050 -0.1338  0.0842
 4281W        W23135   6.316   2.043  11.095  0.2109 -0.2759 -0.4107
 4282W        W23136  11.255  10.076  10.352 -0.1820 -0.1078  0.3252
 4283W        W23137   4.943  19.060  14.376 -0.0212  0.0906  0.2738
 4284W        W23138  12.250   7.665  11.138 -0.0968 -0.2243  0.1394
 4285W        W23139   9.586   5.404   4.181 -0.1577 -0.1245  0.0047
 4286W        W23140   2.330  14.662   2.822 -0.1311 -0.0640  0.1261
 4287W        W23141   7.120  11.443  12.178 -0.2849 -0.0076  0.0394
 4288W        W23142  10.635  19.016  11.359 -0.0561 -0.2108  0.0230
 4289W        W23143   8.476   1.560   0.094 -0.0913 -0.0443 -0.2845
 4290W        W23144   9.471  17.899  11.245  0.0165  0.4303  0.1047
 4291W        W23145  16.647  16.189   1.503 -0.0876  0.1923 -0.3734
 4292W        W23146   6.139  18.572   2.024 -0.0329 -0.3665  0.1290
 4293W        W23147   3.494   4.197   2.431 -0.4078 -0.3360  0.0464
 4294W        W23148   1.043   0.390  14.075  0.0083 -0.2692  0.0707
 4295W        W23149   6.069   2.820   1.736  0.1458  0.0928  0.3131
 4296W        W23150  18.634   3.891   3.155  0.1881  0.3296  0.1205
 4297W        W23151   3.987  18.530  10.367 -0.0318  0.3185 -0.0049
 4298W        W23152   7.169  14.183  13.826 -0.0939  0.0983 -0.1172
 4299W        W23153  10.992  19.199  12.079  0.0037  0.0327 -0.3036
 4300W        W23154  11.319  14.495  11.066  0.2712 -0.4131  0.1911
 4301W        W23155  12.486  16.595  12.874 -0.1468 -0.2134 -0.0609
 4302W        W23156  10.855   0.987  13.985  0.1908 -0.0398 -0.1452
 4303W        W23157  17.700   4.066  10.857  0.5516  0.2131 -0.1988
 4304W        W23158  10.061   9.461  11.439 -0.2731 -0.0089  0.3473
 4305W        W23159   7.063   2.459   1.615 -0.3546 -0.0116 -0.1672
 4306W        W23160  12.177   0.212  10.518 -0.1479 -0.0787 -0.1015
 4307W        W23161   3.675   1.895  12.579 -0.0525  0.0412 -0.0392
 4308W        W23162   8.654  14.535  13.273 -0.0395 -0.0608  0.1711
 4309W        W23163   5.874  16.395   4.584  0.1325  0.1541 -0.2027
 4310W        W23164  15.438   1.395   3.552  0.1307  0.1153 -0.0292
 4311W        W23165  10.632  10.164   0.165  0.2307 -0.0699  0.4477
 4312W        W23166  19.149   4.192   3.849 -0.0640 -0.1230 -0.1480
 4313W        W23167   7.481  13.506   3.282  0.4032  0.0710  0.0373
 4314W        W23168  18.710   4.229   1.284  0.1315 -0.0932  0.3257
 4315W        W23169  16.779   5.232   0.195  0.1357 -0.0382  0.2071
 4316W        W23170  18.481   7.244  11.548  0.0129  0.2442  0.2054
 4317W        W23171   6.740  17.254  10.876  0.0310  0.0287  0.1377
 4318W        W23172  10.942  10.930   3.887 -0.1162 -0.1386 -0.1699
 4319W        W23173   6.255  16.289  12.413 -0.3184 -0.0976 -0.0139
 4320W        W23174  11.594   8.397  13.183  0.2026 -0.3380  0.0240
 4321W        W23175  18.145  14.689   2.259 -0.3004 -0.0383  0.0087
 4322W        W23176  16.433  17.002   1.008 -0.0829  0.1217  0.0044
 4323W        W23177  13.499   2.699   0.905  0.0246  0.2543  0.2234
 4324W        W23178   4.629  15.167   4.612  0.1203  0.1700  0.2124
 4325W        W23179  11.008  17.984   2.183  0.1788  0.0533 -0.2251
 4326W        W23180   0.192   7.116   2.713  0.3023 -0.0345  0.0291
 4327W        W23181   3.752  17.038   3.460  0.2317  0.3081 -0.1966
 4328W        W23182  11.607   7.303  12.845  0.1324 -0.2291  0.2297
 4329W        W23183   0.527  17.896  11.810  0.0979 -0.0049 -0.0012
 4330W        W23184   1.090  14.945  11.436 -0.3728 -0.1822 -0.4106
 4331W        W23185   1.719  11.293   0.542 -0.0817  0.4166  0.1194
 4332W        W23186  16.858  14.274   5.343  0.2359 -0.1789 -0.4486
 4333W        W23187  17.517  10.205  11.610 -0.0133 -0.0926 -0.1910
 4334W        W23188  16.803  14.967   0.341  0.2251  0.0672  0.1068
 4335W        W23189   9.044  16.020  13.519 -0.3862  0.4566  0.0081
 4336W        W23190  12.232   7.803  12.498  0.1502  0.0525  0.3269
 4337W        W23191   7.285   3.097  11.759 -0.2172 -0.1964  0.1109
 4338W        W23192   6.079   6.277  11.757 -0.3606  0.0852 -0.1718
 4339W        W23193   1.784  16.598  11.628  0.2325 -0.0084 -0.2617
 4340W        W23194  16.716   9.615   2.324  0.2025 -0.3416  0.2445
 4341W        W23195  13.824   9.031  11.606  0.0411 -0.0459  0.3360
 4342W        W23196   3.377   0.664   0.656  0.0168 -0.0280 -0.1217
 4343W        W23197  18.238  15.396   0.700  0.0602  0.0402 -0.0341
 4344W        W23198  15.168   9.539  12.247 -0.0626 -0.0808 -0.0731
 4345W        W23199  13.447   5.901  13.199 -0.0524  0.0450  0.0516
 4346W        W23200  11.837   0.268   0.958  0.0544 -0.2919 -0.0247
 4347W        W23201   4.715   6.102   2.185  0.0777 -0.1173  0.1270
 4348W        W23202   9.381   0.951  12.310 -0.0426 -0.0302 -0.2402
 4349W        W23203   2.029  13.242  10.920  0.0525 -0.3483 -0.2742
 4350W        W23204  16.261   4.501  14.727 -0.0510 -0.4764  0.1194
 4351W        W23205   7.778  11.153  12.552 -0.0791 -0.1099  0.2089
 4352W        W23206   7.919  17.301   0.741 -0.2466  0.1478 -0.0897
 4353W        W23207   9.721  11.521   0.871  0.0240 -0.2278 -0.0593
 4354W        W23208   8.322  15.874  10.901  0.1980  0.2423 -0.2991
 4355W        W23209   7.234  13.125   2.637  0.0864  0.1556  0.2989
 4356W        W23210  10.731  14.223   0.129  0.2715 -0.1095 -0.4664
 4357W        W23211   9.521   7.558  13.775 -0.1414  0.0669 -0.0437
 4358W        W23212   5.165   5.901  13.152  0.0710  0.2479 -0.0615
 4359W        W23213   3.935   6.500   2.183  0.2564  0.0872 -0.1493
 4360W        W23214   0.977   0.816   2.053 -0.1856 -0.0107 -0.0244
 4361W        W23215  18.767  13.289  13.411 -0.2734  0.1854 -0.1220
 4362W        W23216  10.815  16.691  10.825  0.0639 -0.1758 -0.3328
 4363W        W23217   4.985  16.402  12.046  0.1057  0.1321  0.3040
 4364W        W23218   1.991  18.568  11.441 -0.2867  0.2853 -0.1261
 4365W        W23219  16.839  14.012   1.208  0.4470  0.0049  0.4787
 4366W        W23220   9.771  16.359   5.408 -0.2399  0.2610  0.1770
 4367W        W23221  17.308  17.888   0.320  0.0803  0.2552 -0.0609
 4368W        W23222  18.937  18.042   0.525 -0.3696 -0.1634  0.0884
 4369W        W23223  10.713  15.837  14.362 -0.2376 -0.0955  0.2732
 4370W        W23224   5.293  10.835   4.285 -0.0120 -0.2496  0.1955
 4371W        W23225  11.882   5.386  11.752 -0.2245  0.2966  0.1417
 4372W        W23226   1.847  13.080   0.258  0.0066  0.0161  0.2024
 4373W        W23227  12.201   5.217  12.068 -0.2776 -0.3209 -0.2087
 4374W        W23228  10.625   4.740   1.892  0.0414 -0.1742 -0.0010
 4375W        W23229   7.752   4.257   4.497  0.0730 -0.0443 -0.1059
 4376W        W23230  12.675  13.065  10.589 -0.2825 -0.0663  0.2029
 4377W        W23231  16.795  17.391  13.740 -0.1831  0.0670 -0.0086
 4378W        W23232   3.190   8.516   2.612  0.0080 -0.1021  0.1215
 4379W        W23233   6.321  11.332  13.933 -0.2912 -0.4516  0.3255
 4380W        W23234  17.280   7.622  12.006 -0.1035  0.0769 -0.0110
 4381W        W23235  11.315  10.976  12.461 -0.0551 -0.1585 -0.2212
 4382W        W23236   7.622  19.027   0.976  0.0349 -0.2416  0.0428
 4383W        W23237  19.008   0.675   1.154  0.0755  0.3056  0.0614
 4384W        W23238   2.351   9.683  14.686 -0.0239  0.1446  0.1212
 4385W        W23239   1.780  17.847   0.802  0.0696 -0.0604  0.0962
 4386W        W23240   7.192  11.419  13.440  0.0060 -0.0850 -0.1035
 4387W        W23241  10.787   2.881   3.572 -0.1039 -0.0527  0.5620
 4388W        W23242  14.056  12.266   2.332 -0.1500 -0.1617 -0.1156
 4389W        W23243  11.570   9.720   0.819  0.0575  0.2103 -0.2794
 4390W        W23244  11.784  16.014   1.995 -0.2107 -0.0616 -0.1720
 4391W        W23245   3.412  18.568  12.141 -0.0101  0.1024  0.1277
 4392W        W23246   1.911   8.115   1.407  0.0764  0.0424 -0.2061
 4393W        W23247  12.322  13.718  11.908 -0.0353 -0.0807  0.1043
 4394W        W23248  16.447   7.277  12.389  0.0846 -0.0793 -0.2359
 4395W        W23249   2.785   6.152  11.303 -0.1169 -0.0346 -0.0578
 4396W        W23250   1.451  18.374   2.359 -0.1880 -0.5836  0.0600
 4397W        W23251   4.074   9.621   0.486 -0.1325  0.1922  0.0569
 4398W        W23252   5.328   0.289  11.191 -0.0021 -0.1394  0.0194
 4399W        W23253   2.169  15.416  13.707  0.0570 -0.2677 -0.0296
 4400W        W23254  16.194  13.764   3.836  0.1853 -0.0565  0.0060
 4401W        W23255  12.770   1.196   3.898 -0.0261 -0.1763 -0.0990
 4402W        W23256   5.994  17.786   0.365 -0.0245 -0.0386 -0.1545
 4403W        W23257   9.998   7.215  13.628 -0.2725  0.1586 -0.0774
 4404W        W23258  15.018  17.879  10.434 -0.0860  0.1123 -0.6178
 4405W        W23259  17.394  13.319   2.948  0.1230  0.3494 -0.0969
 4406W        W23260  17.962   7.529   1.387 -0.1173 -0.1537 -0.1520
 4407W        W23261   7.043  18.849   1.943 -0.1899 -0.2804 -0.2633
 4408W        W23262   2.689   2.404  14.033 -0.4782 -0.1866  0.1056
 4409W        W23263   8.461  18.215  14.640 -0.0105  0.0789  0.0964
 4410W        W23264   0.599   8.259  13.232 -0.1667 -0.0582  0.1158
 4411W        W23265   8.977   5.111  12.564  0.2055  0.1305  0.2555
 4412W        W23266  17.052  10.589   4.043 -0.2559  0.2436  0.1572
 4413W        W23267   7.933   4.778   4.477  0.1611  0.1147  0.0448
 4414W        W23268   3.348   4.591  12.185  0.3370  0.2194 -0.2033
 4415W        W23269  18.489   0.052   0.282 -0.0036  0.1422  0.1164
 4416W        W23270   9.310  15.299  12.749  0.0208 -0.1737 -0.1677
 4417W        W23271   0.185   9.994   3.182  0.0661 -0.1849 -0.0414
 4418W        W23272  16.526   0.284   9.730 -0.2701  0.3006  0.0984
 4419W        W23273  12.924   5.981   0.154 -0.3164  0.0771  0.3745
 4420W        W23274   2.243  17.324   2.473 -0.2331 -0.2067  0.3023
 4421W        W23275   4.505   2.962  13.361  0.0101 -0.0701 -0.0445
 4422W        W23276  10.659  11.350   4.059  0.0335  0.1184  0.0303
 4423W        W23277  12.230  11.950   3.203  0.1346  0.2722 -0.0544
 4424W        W23278  15.946   6.257   1.302  0.1083 -0.1159 -0.0159
 4425W        W23279  15.184  12.253   3.612  0.2855  0.2351  0.0245
 4426W        W23280   8.508  10.912   2.228 -0.0846 -0.1406  0.2406
 4427W        W23281   5.920   4.969   1.324  0.3632  0.0074 -0.0959
 4428W        W23282   5.841  12.526   3.089 -0.0082  0.0372 -0.0521
 4429W        W23283  15.520   8.218  11.648  0.0151 -0.0449 -0.0799
 4430W        W23284  15.655   8.762  13.775  0.1775  0.4189  0.2971
 4431W        W23285   9.167  18.765  12.106  0.0914  0.4518  0.1131
 4432W        W23286   9.586  15.059   1.921 -0.0935  0.0857 -0.3069
 4433W        W23287   2.114  14.500   4.267  0.1514 -0.1053  0.0840
 4434W        W23288   4.077   5.293   0.877  0.2784  0.2751 -0.1863
 4435W        W23289   0.376   3.489   3.110  0.0738 -0.1322  0.0829
 4436W        W23290   4.548   5.082   4.566  0.2212 -0.1188  0.0937
 4437W        W23291  15.637   6.122  12.954 -0.0380  0.3447  0.1555
 4438W        W23292   0.046  13.124   3.086 -0.0998 -0.0055 -0.1743
 4439W        W23293   0.121   2.732  11.932  0.2740 -0.0854 -0.0631
 4440W        W23294   5.543  11.807  12.679  0.0341  0.1716  0.0079
 4441W        W23295   8.202   2.064  11.621 -0.0316 -0.0950 -0.1476
 4442W        W23296  11.766   4.167   2.274 -0.1327  0.2227 -0.2227
 4443W        W23297  10.418   7.089   2.163 -0.2254  0.0556  0.0961
 4444W        W23298   4.137   5.492   2.208 -0.0683 -0.0003  0.0834
 4445W        W23299   0.774   3.842  11.992  0.0648 -0.3230 -0.0752
 4446W        W23300  14.077  14.863  13.818  0.1094 -0.2659  0.3382
 4447W        W23301   3.499   5.706  12.916 -0.1052  0.2487  0.1492
 4448W        W23302   4.144  15.421  14.595  0.2840 -0.2724 -0.1322
 4449W        W23303  12.883  10.593  10.278  0.2283  0.0416  0.1235
 4450W        W23304  10.038  17.890  11.280  0.5104  0.0162  0.1105
 4451W        W23305  18.452   1.227   1.143 -0.0500  0.2732 -0.0992
 4452W        W23306   3.157   6.210  14.418  0.0684 -0.0870 -0.1942
 4453W        W23307  12.025  13.762  12.275  0.2120  0.0808 -0.0352
 4454W        W23308   6.208   2.497  10.947 -0.3265 -0.2143  0.0992
 4455W        W23309  14.367   3.791  13.524 -0.1016 -0.0470 -0.2753
 4456W        W23310   1.442  16.790   0.642  0.1208 -0.0282 -0.3590
 4457W        W23311   8.869   6.140  13.076 -0.2468 -0.1164  0.1100
 4458W        W23312  13.420   4.703  10.247  0.0812 -0.1072  0.0224
 4459W        W23313   1.543   7.856   1.627 -0.1382 -0.1292  0.1759
 4460W        W23314   0.111  16.819   2.018 -0.0903  0.0007 -0.0166
 4461W        W23315   6.597   1.404  13.103  0.1614 -0.0692  0.3281
 4462W        W23316  14.174   4.839  12.534  0.0269 -0.2156  0.0468
 4463W        W23317  14.286   2.396  14.553 -0.3356  0.1640 -0.2567
 4464W        W23318  16.793  11.152  13.878 -0.1334  0.0409 -0.3135
 4465W        W23319   9.576   1.144   2.421 -0.1162 -0.0064 -0.2258
 4466W        W23320  12.778  11.061   0.289  0.1117  0.1392 -0.2164
 4467W        W23321  18.781  13.691   3.119 -0.1703  0.0899  0.0755
 4468W        W23322   0.997   2.074  14.508 -0.0690 -0.1895  0.2653
 4469W        W23323  11.325   4.965   3.131 -0.0065 -0.0187 -0.1255
 4470W        W23324   0.414   1.589   1.808 -0.0073 -0.3399 -0.1708
 4471W        W23325  14.906   1.396  12.319  0.2998  0.3009 -0.1795
 4472W        W23326   2.135   4.526  11.426  0.2566 -0.3866  0.2755
 4473W        W23327  17.341  14.790   1.683 -0.3629 -0.2212 -0.2093
 4474W        W23328  12.174  11.267   9.918  0.1203 -0.2778  0.3381
 4475W        W23329   7.023   3.487   1.629 -0.0825  0.2497 -0.0381
 4476W        W23330   3.054   2.861  14.026  0.3584  0.3748  0.3613
 4477W        W23331   2.978  10.108   0.622  0.0190  0.2781 -0.1186
 4478W        W23332  13.094  14.767   0.347  0.0973 -0.1932 -0.3269
 4479W        W23333  11.785   5.821  11.135  0.2039  0.0851  0.1229
 4480W        W23334  13.972  14.766   3.550 -0.0357  0.1581  0.1830
 4481W        W23335   6.352   9.180   0.964  0.3078  0.2927  0.0640
 4482W        W23336   1.510   2.918  11.555  0.3383 -0.0702  0.1084
 4483W        W23337   1.768   3.926   5.051 -0.2670  0.3549  0.0466
 4484W        W23338   9.995   5.817   0.064 -0.6128 -0.0636  0.2962
 4485W        W23339  16.305  12.247   1.208  0.0778 -0.2077  0.0812
 4486W        W23340  10.137  10.533  13.269 -0.1801  0.2743 -0.1420
 4487W        W23341  12.305  12.336  13.417  0.1605  0.2490 -0.1010
 4488W        W23342  16.901  17.971  14.481  0.0353 -0.3340 -0.0521
 4489W        W23343  10.317  13.268   1.812 -0.4179  0.0118 -0.0643
 4490W        W23344  16.072  12.772  13.864  0.0034  0.1116  0.1738
 4491W        W23345   8.419   8.379  11.992  0.0480 -0.0293 -0.0323
 4492W        W23346  17.910  10.608   2.895  0.0767  0.2380 -0.0512
 4493W        W23347   5.579   1.959   0.136 -0.1235 -0.3858 -0.0069
 4494W        W23348   3.357   8.786  11.026  0.0563  0.4480 -0.1599
 4495W        W23349  13.619  14.162  11.139  0.1747 -0.2565 -0.0931
 4496W        W23350  15.390   4.223   1.424 -0.0576  0.1155  0.1672
 4497W        W23351   3.365  11.994  11.099  0.1735 -0.0436 -0.0817
 4498W        W23352   0.982  11.336  13.574 -0.1711 -0.0630 -0.2382
 4499W        W23353   2.969  15.977  12.865  0.4449 -0.0593 -0.0274
 4500W        W23354   6.097  16.725  10.991 -0.1390 -0.1109  0.2078
 4501W        W23355   2.382  12.991   0.337  0.0755 -0.0523 -0.2900
 4502W        W23356   8.242  18.877  10.297 -0.0752  0.0348  0.0450
 4503W        W23357  17.046   5.352   2.882  0.3318  0.3530  0.1207
 4504W        W23358   7.372   7.940  11.699  0.1630  0.1886  0.1443
 4505W        W23359   9.389   3.632  10.779  0.2411 -0.0020  0.0934
 4506W        W23360   7.630   9.227  10.506  0.0037  0.1492  0.2891
 4507W        W23361  17.218  13.920   3.914 -0.0232  0.1228 -0.1180
 4508W        W23362   8.269  16.123   5.453 -0.2993 -0.1044 -0.0247
 4509W        W23363  16.803   4.783  14.583  0.1767  0.0055  0.1210
 4510W        W23364   7.769  19.055  12.093 -0.0662 -0.1936  0.0229
 4511W        W23365   8.472   6.144   0.195  0.1744  0.0877 -0.1445
 4512W        W23366  12.900  10.980   3.469  0.1690  0.1366 -0.0751
 4513W        W23367  10.514  10.037   3.349 -0.1676  0.1125 -0.1418
 4514W        W23368  12.951  16.238   1.359  0.1500 -0.2040  0.2038
 4515W        W23369  19.162   3.237   0.926 -0.3410 -0.2512  0.0766
 4516W        W23370   9.150  18.276   3.945 -0.2261  0.0170  0.2590
 4517W        W23371  11.885   7.602   1.434  0.4607  0.1474 -0.2365
 4518W        W23372   3.637   2.580   1.022 -0.2101 -0.1294  0.1716
 4519W        W23373  12.649  13.240   2.072  0.4264 -0.1726  0.2154
 4520W        W23374  10.471   8.270   0.732 -0.3112  0.0906  0.3708
 4521W        W23375   7.556   0.892  11.222  0.0858 -0.1782 -0.2994
 4522W        W23376   3.226   9.013  12.487  0.2634  0.1250 -0.0887
 4523W        W23377   5.626   0.507   3.235 -0.4448 -0.0480 -0.0548
 4524W        W23378   3.842  16.391   2.778 -0.1169 -0.2651  0.0632
 4525W        W23379  10.367   0.527  12.929  0.0931 -0.2557  0.0002
 4526W        W23380   1.548  18.528   1.416  0.0204 -0.0132 -0.0296
 4527W        W23381   3.089  14.621   4.459 -0.2127 -0.2530  0.2296
 4528W        W23382   8.473   5.758  11.827  0.2794 -0.0756  0.1238
 4529W        W23383   7.021  14.676   0.317 -0.3974 -0.2425  0.1116
 4530W        W23384   6.116   3.536   4.050 -0.2383 -0.1358 -0.1105
 4531W        W23385   1.278   1.406   1.858 -0.3699 -0.0331 -0.0004
 4532W        W23386  19.159  19.190   3.211 -0.2708  0.2656 -0.0890
 4533W        W23387  12.124  13.851   1.978 -0.0304  0.2276 -0.2656
 4534W        W23388   9.583   5.089  11.123 -0.1959  0.2164  0.2971
 4535W        W23389  11.740  14.213  11.344  0.0279 -0.2168 -0.1792
 4536W        W23390  14.744   2.003   4.941 -0.2459 -0.1677  0.0375
 4537W        W23391  12.065  10.862  12.286  0.1574  0.2128  0.0763
 4538W        W23392   8.014  12.216   4.456 -0.2072 -0.0551  0.1682
 4539W        W23393   2.063  18.779  13.940 -0.0914  0.3755 -0.0912
 4540W        W23394   6.113   7.523  12.566  0.0057  0.1031 -0.1027
 4541W        W23395  10.488  12.886  13.617  0.1649 -0.1888  0.0136
 4542W        W23396   4.326  16.479   0.570  0.0725 -0.0064 -0.1941
 4543W        W23397   9.610  11.341  13.248  0.0142  0.2660  0.2858
 4544W        W23398  13.971   2.147   3.293 -0.0528  0.0291 -0.1273
 4545W        W23399  17.356   5.821  12.447  0.0888  0.2264  0.0547
 4546W        W23400   1.572  14.422  12.162  0.3754 -0.0429 -0.0929
 4547W        W23401  16.029   4.748   1.751  0.0867 -0.1726  0.4183
 4548W        W23402   7.994   6.490   2.903 -0.0361  0.0652 -0.1241
 4549W        W23403   6.972  10.777   0.992  0.0711 -0.1281  0.0070
 4550W        W23404   1.805  18.568   0.143 -0.1930  0.1345  0.0539
 4551W        W23405  11.214  13.870   2.322 -0.0472  0.2939 -0.0273
 4552W        W23406  15.718   9.614  13.931 -0.0318  0.0569  0.1833
 4553W        W23407   4.030  11.164  11.915  0.3310 -0.0590  0.1624
 4554W        W23408  16.662  13.371   2.295  0.0492  0.0490  0.2453
 4555W        W23409  10.176   7.979   2.570  0.2918  0.2011  0.0687
 4556W        W23410   6.044   5.679   1.118  0.0961  0.0627 -0.1794
 4557W        W23411   6.309  13.512   1.106  0.1142 -0.1387 -0.1026
 4558W        W23412  10.237  11.460   0.910 -0.0074 -0.1956 -0.2845
 4559W        W23413  17.680   5.322   2.255 -0.0337  0.1749 -0.0690
 4560W        W23414  17.258  11.566  11.468 -0.0759 -0.1890  0.0422
 4561W        W23415  15.805   6.819   0.342  0.1184 -0.0377  0.1500
 4562W        W23416   8.636  14.276  13.989  0.0386  0.2316 -0.0338
 4563W        W23417   2.124   1.702   2.393  0.1252  0.2453  0.1697
 4564W        W23418  15.319  12.975  13.203 -0.4281 -0.0317  0.2175
 4565W        W23419  10.656  12.073   0.286 -0.1237 -0.0348 -0.0835
 4566W        W23420  15.485   2.104   3.064 -0.4122  0.0797  0.0843
 4567W        W23421   3.422   9.615   2.588  0.0262 -0.3613 -0.0626
 4568W        W23422   2.584  19.197   2.769 -0.1275  0.0605  0.3834
 4569W        W23423  18.959  12.289   0.778  0.0051 -0.4882 -0.0251
 4570W        W23424  15.288   2.311  13.574  0.3211 -0.3596 -0.1537
 4571W        W23425   4.948   1.713   2.971 -0.0349 -0.1180 -0.0030
 4572W        W23426   2.759   0.647   2.392  0.0502  0.0930  0.1738
 4573W        W23427  16.786   2.107   3.458  0.1388 -0.0627  0.1493
 4574W        W23428  14.477  17.547  13.439  0.0953 -0.1896  0.3029
 4575W        W23429   6.606  12.829   0.199 -0.0493 -0.0184 -0.3310
 4576W        W23430   3.126   8.007  12.552  0.0628  0.0796 -0.0033
 4577W        W23431  18.367  11.292  11.651 -0.0805  0.2237 -0.0096
 4578W        W23432   6.254   2.605  13.950  0.0050 -0.4124 -0.0801
 4579W        W23433  18.479  11.144   3.076 -0.2835 -0.1380  0.1503
 4580W        W23434   9.052   0.368  12.367 -0.0259  0.1353 -0.0424
 4581W        W23435  11.355   6.922   3.223  0.0312 -0.0834 -0.1337
 4582W        W23436  14.621   8.181  11.773 -0.0527  0.2123 -0.1810
 4583W        W23437   2.091  16.967  14.690 -0.1801  0.0531  0.2047
 4584W        W23438   5.180  15.468   3.846  0.0894  0.0958 -0.1166
 4585W        W23439   8.178  17.995   2.034  0.3060 -0.0523  0.0611
 4586W        W23440   3.935   8.730   0.948  0.1769  0.1299  0.0887
 4587W        W23441   3.064  18.419   2.853  0.0118 -0.1284  0.2656
 4588W        W23442  16.196   7.096  13.678 -0.1727 -0.3414 -0.2909
 4589W        W23443   1.516   6.028  11.455 -0.1408  0.2919 -0.1604
 4590W        W23444   2.732  13.194  10.129  0.1400 -0.1707 -0.1082
 4591W        W23445  18.033   6.568  12.352 -0.1478  0.3189  0.1426
 4592W        W23446   9.071  19.119   0.194  0.1585  0.1794 -0.0937
 4593W        W23447   3.235   5.110   0.639 -0.1178  0.1192 -0.2670
 4594W        W23448   8.048   8.541   1.291 -0.0223 -0.0584  0.0863
 4595W        W23449   4.773   3.120  11.259 -0.2952 -0.3387  0.0507
 4596W        W23450   3.696  11.019  10.613 -0.2025  0.0466  0.2324
 4597W        W23451  10.915  14.515   3.720 -0.1679 -0.1254  0.0320
 4598W        W23452   8.465   6.344  14.409 -0.3309  0.1650 -0.2560
 4599W        W23453  15.770   2.010  11.938  0.2307  0.0515 -0.3860
 4600W        W23454  12.854   3.976  13.308  0.2982  0.1691 -0.0110
 4601W        W23455  16.986   8.621  10.926 -0.1653 -0.0369 -0.4818
 4602W        W23456  14.296  18.934  13.604  0.1187  0.0847  0.1584
 4603W        W23457   8.154  17.333  12.114 -0.0825  0.0207 -0.4300
 4604W        W23458   9.737   2.581   1.662  0.1216 -0.0052 -0.0434
 4605W        W23459   1.044   5.707   0.872  0.0703 -0.1168 -0.2502
 4606W        W23460  12.488  10.230   2.761  0.1097 -0.4197 -0.0270
 4607W        W23461  17.187   4.580   1.929  0.0494  0.3187  0.1386
 4608W        W23462  14.300  15.505  13.253 -0.0011 -0.2115 -0.1585
 4609W        W23463  10.396  11.167   0.489  0.0237  0.1882  0.2242
 4610W        W23464   3.776  10.690   3.106  0.0358 -0.0006 -0.1187
 4611W        W23465   3.282   9.068   3.291  0.1034 -0.1324  0.1755
 4612W        W23466   1.041  11.653  14.054 -0.3434  0.0283 -0.0015
 4613W        W23467   3.439  18.841  11.115 -0.3355  0.4274 -0.3882
 4614W        W23468  14.314   6.189   0.443  0.3673 -0.3917 -0.6239
 4615W        W23469  13.296  11.361   2.920  0.0947 -0.1192  0.1447
 4616W        W23470  12.006  16.133  13.600 -0.1082 -0.0429  0.3807
 4617W        W23471   8.280  16.418   4.988 -0.2179 -0.1561 -0.2743
 4618W        W23472  11.271   1.163   2.025  0.2293 -0.0871 -0.0408
 4619W        W23473  16.881  13.710  12.399 -0.0706  0.0745  0.1581
 4620W        W23474  13.169  12.767   0.037 -0.1778 -0.0792 -0.1910
 4621W        W23475  13.040  13.316  10.877  0.0305  0.0737  0.0218
 4622W        W23476   0.317   4.417  13.660 -0.0048 -0.3093  0.1187
 4623W        W23477   8.826  16.485   2.652 -0.2049  0.3509  0.0552
 4624W        W23478  12.942   6.168  13.651  0.0629 -0.0649 -0.1224
 4625W        W23479   6.719   6.750   9.152  0.0127  0.1093 -0.0597
 4626W        W23480   7.272  16.773   0.227  0.0198  0.1616  0.2685
 4627W        W23481  15.987   3.067   1.905  0.0362 -0.1682  0.0551
 4628W        W23482   0.934  16.265   1.847  0.1819 -0.0747 -0.0836
 4629W        W23483  16.948   8.497  11.922 -0.0601 -0.1432  0.1536
 4630W        W23484  13.447   4.264   3.424  0.2063  0.0902  0.0301
 4631W        W23485   2.397   4.232   1.999 -0.0711 -0.0769 -0.3006
 4632W        W23486   3.231  14.418   3.230 -0.0772 -0.1032  0.0213
 4633W        W23487   7.386  17.377   3.847 -0.0683  0.0124 -0.1128
 4634W        W23488  17.510   9.666  11.661  0.0304 -0.3750 -0.1034
 4635W        W23489   4.991  10.343  14.391 -0.2158 -0.1404 -0.2144
 4636W        W23490  10.999   7.138   2.895 -0.0804 -0.2296 -0.2304
 4637W        W23491  16.452   6.412   3.247 -0.0417 -0.0495  0.0483
 4638W        W23492   5.914  10.334  11.607  0.3997 -0.3610 -0.3052
 4639W        W23493  18.643   2.108  10.444  0.2407  0.2264 -0.0487
 4640W        W23494  10.919  13.191  13.481 -0.3903 -0.2497 -0.0167
 4641W        W23495   2.670  17.185   3.859 -0.0563 -0.1080  0.1066
 4642W        W23496  11.809  12.863  12.123 -0.3075  0.0637 -0.2140
 4643W        W23497  18.851  18.554   0.638  0.1160  0.2006 -0.0368
 4644W        W23498  14.882  13.744  13.562  0.1148 -0.6749 -0.4247
 4645W        W23499   1.936   1.693   1.906 -0.1531 -0.3311 -0.1440
 4646W        W23500   9.166   8.386   1.574  0.0703  0.1302  0.2332
 4647W        W23501  17.001   6.151   0.313 -0.1811 -0.0924 -0.1213
 4648W        W23502   0.078  11.220  13.075  0.1087  0.0465 -0.3484
 4649W        W23503  17.659  17.767   2.441 -0.0243  0.2429 -0.1465
 4650W        W23504  17.892   6.127   1.990  0.3202  0.0852  0.2116
 4651W        W23505  15.075  17.359   0.813 -0.0325 -0.2364 -0.1990
 4652W        W23506   9.801   2.929   1.981 -0.0257  0.1701 -0.2291
 4653W        W23507   9.437   6.708   5.075  0.1429  0.1047 -0.0711
 4654W        W23508  10.486  14.699   1.321  0.2523 -0.2158  0.0049
 4655W        W23509  14.648  16.148   1.401  0.3578 -0.2322  0.0684
 4656W        W23510  10.443   8.067  10.055  0.0984  0.0080  0.1823
 4657W        W23511   8.689  10.471   1.836 -0.0394  0.2026 -0.0094
 4658W        W23512  17.591   7.420   4.116  0.0816  0.1153 -0.0270
 4659W        W23513   2.857   2.464  11.275  0.1157 -0.3430 -0.3506
 4660W        W23514   3.328  13.168  14.302 -0.0653  0.2001  0.2239
 4661W        W23515   9.151  17.933  13.527  0.2677 -0.2208  0.0874
 4662W        W23516   1.060   1.603  11.505  0.2103  0.1778 -0.0008
 4663W        W23517  11.707   5.537  12.606  0.4449 -0.0337  0.0561
 4664W        W23518   0.267  13.990   0.296  0.1793  0.4815 -0.0694
 4665W        W23519   0.370  16.273  13.156  0.1324 -0.2047  0.0774
 4666W        W23520   0.577   6.617  14.581  0.0193  0.0238  0.0420
 4667W        W23521  14.122  10.521  10.585  0.0248  0.1662  0.2995
 4668W        W23522  14.902   0.627  14.248 -0.1734  0.5106 -0.0616
 4669W        W23523   4.634  12.349   4.294  0.0117 -0.0479  0.1648
 4670W        W23524   5.130  15.629  14.441  0.0729  0.0788 -0.2942
 4671W        W23525  16.158  13.640   0.195 -0.2824 -0.0448 -0.0158
 4672W        W23526   2.375   9.442  11.544 -0.0159 -0.1236  0.1597
 4673W        W23527  17.720   2.132   2.971  0.0441 -0.3320  0.2445
 4674W        W23528   7.256  13.700  11.982  0.1116 -0.1049  0.1159
 4675W        W23529   9.076   9.709  14.374 -0.1510 -0.0660 -0.1612
 4676W        W23530   1.565   0.248  12.195  0.0501 -0.0540 -0.0230
 4677W        W23531   1.379   7.622  12.912 -0.0272 -0.0401 -0.1254
 4678W        W23532   4.996   2.885   4.532  0.2046 -0.0892 -0.2587
 4679W        W23533   1.551  16.862  12.983  0.1698 -0.0125 -0.1008
 4680W        W23534  18.203   8.109  12.872  0.0166 -0.2689  0.0872
 4681W        W23535   0.258  12.728   3.874 -0.3532 -0.0224 -0.0808
 4682W        W23536  12.007   4.552   1.945  0.1577 -0.1151 -0.1742
 4683W        W23537  13.892   7.016   0.416 -0.0656 -0.0965  0.3410
 4684W        W23538  14.187   1.905  14.194 -0.0989  0.3481  0.0263
 4685W        W23539   2.989  10.848   2.026 -0.0284 -0.1598  0.2095
 4686W        W23540   5.876   3.571   3.198  0.3030 -0.1329 -0.2022
 4687W        W23541  15.470  17.499   0.567 -0.1153 -0.4554 -0.1271
 4688W        W23542   3.655  15.464  12.194  0.1613  0.2060  0.2277
 4689W        W23543   5.057  15.861   3.092  0.0880  0.3589 -0.1145
 4690W        W23544   6.493  16.912   0.169  0.1671 -0.2364  0.1541
 4691W        W23545   7.785  13.614  12.109 -0.0407 -0.1848 -0.1549
 4692W        W23546  10.403   4.117  11.430  0.1255 -0.1109  0.1831
 4693W        W23547   8.252  10.837   3.668 -0.0851  0.0195  0.0491
 4694W        W23548  14.618   9.759   2.258  0.1344 -0.4232 -0.1871
 4695W        W23549   0.746   0.095   2.252  0.1196 -0.2364  0.2893
 4696W        W23550   0.443  14.757   2.934 -0.0204  0.2006 -0.3138
 4697W        W23551   1.943   5.769  13.748  0.2745 -0.0726 -0.2421
 4698W        W23552  12.730   4.891   1.897 -0.1117 -0.1483 -0.2269
 4699W        W23553  14.224  10.184   0.970  0.1574 -0.4168  0.1410
 4700W        W23554   2.088   1.026   9.302  0.0193 -0.0297 -0.3393
 4701W        W23555   6.478  17.417   0.868  0.2290  0.1445 -0.2817
 4702W        W23556   9.079   2.884   3.866  0.0339 -0.0849 -0.2867
 4703W        W23557  18.397  18.340  14.063  0.1128 -0.1894 -0.0200
 4704W        W23558  10.637   0.546  13.788  0.0738 -0.1659 -0.1020
 4705W        W23559   2.955   9.824  13.915  0.0801  0.0558  0.1534
 4706W        W23560   8.443   8.757   1.466  0.0694 -0.3623  0.0804
 4707W        W23561   9.384  10.854  12.263  0.2269  0.1002  0.0155
 4708W        W23562  14.646   7.515   0.639 -0.0765  0.2340  0.0354
 4709W        W23563   6.196   6.997  12.391  0.1312  0.1867  0.0504
 4710W        W23564  15.223   9.239   3.649 -0.0930 -0.0443  0.2193
 4711W        W23565  16.773   7.985   4.083 -0.2129 -0.1017 -0.0394
 4712W        W23566   0.360  13.668  11.532 -0.2795 -0.5267  0.0446
 4713W        W23567  18.100   3.849  11.438 -0.0950  0.0081 -0.3786
 4714W        W23568  12.787  11.254  12.604  0.4608 -0.0165  0.0404
 4715W        W23569  17.286  12.676   4.291 -0.0316 -0.0004  0.1208
 4716W        W23570  11.654   1.567   0.697  0.2474 -0.0899  0.1726
 4717W        W23571   0.285  16.747   3.854  0.1978 -0.0702 -0.2812
 4718W        W23572  13.603   1.652   3.623 -0.2128  0.1341  0.0940
 4719W        W23573  15.871   8.947   0.986 -0.0636  0.2174 -0.1186
 4720W        W23574  18.770   5.438   1.153  0.3030 -0.1351 -0.0259
 4721W        W23575  13.244  13.852   1.023 -0.1405  0.1812 -0.0048
 4722W        W23576  15.150   9.716  13.453  0.1153 -0.1679  0.1845
 4723W        W23577   5.469   6.882   1.105  0.0368 -0.0685 -0.0234
 4724W        W23578  11.350   3.988  12.899 -0.2963  0.2797 -0.1191
 4725W        W23579   9.836   7.014   3.816 -0.0689  0.0610 -0.2772
 4726W        W23580  10.110   3.926  14.598  0.0097  0.1268  0.2161
 4727W        W23581  18.926   1.729  12.571  0.1080  0.2864  0.2542
 4728W        W23582  14.743   0.345  12.029  0.2381  0.1145 -0.0336
 4729W        W23583   0.959  14.859  11.929 -0.2097 -0.0218 -0.1200
 4730W        W23584   1.838   3.412   1.974 -0.2025 -0.0948 -0.2254
 4731W        W23585  10.253   6.612  13.671  0.0336  0.1142 -0.1081
 4732W        W23586  15.313  12.436   0.670 -0.2410 -0.0137  0.2504
 4733W        W23587   1.169   7.072   2.444  0.2063 -0.4180  0.2241
 4734W        W23588   3.047  13.531   2.675 -0.0434  0.0670  0.1997
 4735W        W23589   4.240   3.916  13.085  0.0448 -0.1063  0.3292
 4736W        W23590   4.241   3.456  14.716  0.3605 -0.1815  0.1882
 4737W        W23591  12.026   3.452   1.593 -0.1113  0.0482  0.2899
 4738W        W23592  11.810   7.868   3.132  0.1204  0.0496 -0.0053
 4739W        W23593   3.859  10.445   0.821  0.0741 -0.1139  0.1676
 4740W        W23594  11.974  15.675  13.953 -0.3505  0.0188 -0.4186
 4741W        W23595  11.562  18.817   1.614 -0.1468  0.0440  0.1935
 4742W        W23596  14.002  11.924   3.995 -0.1377  0.0336  0.3985
 4743W        W23597  16.881   5.256   4.823 -0.0656  0.1255 -0.1967
 4744W        W23598  18.234  14.033   2.529  0.1294  0.3659 -0.1406
 4745W        W23599   7.741   0.273   3.438  0.1889 -0.2585  0.1655
 4746W        W23600  17.521  16.460  14.415  0.0626  0.0346 -0.0581
 4747W        W23601   7.769   0.946   0.994  0.0345 -0.1852 -0.3898
 4748W        W23602   6.720   4.335   2.537 -0.3112  0.1004  0.0109
 4749W        W23603   3.819  16.451  12.765  0.1631 -0.0111  0.4333
 4750W        W23604  14.693  14.813   1.285  0.1939 -0.1261  0.2001
 4751W        W23605   4.735  18.390  12.111  0.1847  0.1064  0.0218
 4752W        W23606  10.019  18.677   5.072  0.1508 -0.2347 -0.2143
 4753W        W23607  17.622  10.755  10.400  0.2016 -0.0191 -0.2614
 4754W        W23608  18.578   4.766   0.431 -0.0078  0.0435  0.0573
 4755W        W23609  18.764   2.318   2.268  0.2612 -0.0977  0.0561
 4756W        W23610  17.201  11.958  12.182  0.1335  0.1806  0.0607
 4757W        W23611   5.921  14.608  11.187  0.1154 -0.1952 -0.0588
 4758W        W23612  10.317  14.886  14.168 -0.1560 -0.2531  0.1860
 4759W        W23613  10.545   3.804  11.778  0.2440 -0.2099  0.1431
 4760W        W23614   6.773   5.613  10.765 -0.2710  0.0557 -0.2284
 4761W        W23615  14.684   9.740  10.804  0.2657 -0.1547  0.1367
 4762W        W23616   2.743   0.279  10.713 -0.0456 -0.0706 -0.1041
 4763W        W23617   3.680   1.384  13.058 -0.0473  0.4366  0.1254
 4764W        W23618  12.526   4.420   1.252 -0.2310 -0.1087 -0.2085
 4765W        W23619   5.341  16.238  11.618  0.0386 -0.1086 -0.0713
 4766W        W23620   7.927   1.979  12.479  0.0844 -0.0332  0.1307
 4767W        W23621   1.000   7.062   1.024 -0.3804 -0.0962  0.5711
 4768W        W23622  10.789  16.344  13.319  0.0316  0.2469  0.2017
 4769W        W23623  13.113  11.627  12.796  0.4023  0.1810  0.0499
 4770W        W23624  13.361   7.463   4.030  0.0008  0.0816  0.0467
 4771W        W23625   1.142   4.061   2.941 -0.2652 -0.1420 -0.1215
 4772W        W23626  17.813  16.388   1.937  0.1956 -0.0703  0.1485
 4773W        W23627  11.663  15.953  14.420  0.1809 -0.3768  0.0942
 4774W        W23628  10.240   1.263  13.531  0.0813 -0.0740 -0.0071
 4775W        W23629   5.608   0.980   3.939 -0.0889 -0.0994 -0.0397
 4776W        W23630   2.426  11.070   2.429 -0.0443 -0.2257 -0.2616
 4777W        W23631  17.115  13.865   3.184 -0.1595  0.3504 -0.0324
 4778W        W23632  11.832   6.843   2.494 -0.1019  0.3360 -0.1935
 4779W        W23633   9.593  14.186   2.469 -0.3242  0.1546 -0.0896
 4780W        W23634  16.430   4.360   0.518 -0.3211  0.2074 -0.0647
 4781W        W23635   6.553   2.529   1.506 -0.0075 -0.2557 -0.3449
 4782W        W23636  14.537   4.782  14.228 -0.0133 -0.1697 -0.1242
 4783W        W23637  10.482   2.652   9.779 -0.0184  0.2075 -0.1573
 4784W        W23638  10.808   9.271  13.491 -0.0552  0.0251 -0.2255
 4785W        W23639   5.891   1.561  13.397 -0.2087  0.4619  0.1758
 4786W        W23640  11.829   1.560   3.841  0.3426  0.0550  0.0066
 4787W        W23641   8.458  13.649  12.205  0.0424 -0.3648  0.2331
 4788W        W23642  18.254   9.766   2.632  0.1058 -0.2589  0.0748
 4789W        W23643   4.916   2.834  13.102 -0.0173 -0.1090  0.1999
 4790W        W23644   7.874  16.981  10.767  0.0874  0.1802  0.0400
 4791W        W23645   8.778  11.056  13.699  0.2589  0.2291  0.3336
 4792W        W23646   0.114  13.553   0.094 -0.1253  0.1281 -0.1365
 4793W        W23647  18.055  13.323  11.339  0.3948 -0.1024  0.0328
 4794W        W23648  12.339   3.790   0.613  0.1306 -0.1729 -0.0092
 4795W        W23649  11.850  10.837  13.546 -0.0298  0.0744 -0.1213
 4796W        W23650  15.148   2.329   3.628 -0.0464 -0.0312 -0.1997
 4797W        W23651   0.237   7.425  12.330 -0.0073 -0.1954 -0.1146
 4798W        W23652   5.567   3.281  11.961  0.0255  0.0304 -0.2518
 4799W        W23653  11.857  11.471   2.778 -0.0665 -0.1720  0.2362
 4800W        W23654   0.635  12.261   2.616 -0.1263 -0.0146 -0.1029
 4801W        W23655   8.517   2.829   1.920  0.0828  0.0094  0.3081
 4802W        W23656   4.865  15.123   1.397 -0.0124  0.0442 -0.0425
 4803W        W23657   7.481   5.988  12.160  0.0305  0.0499  0.2078
 4804W        W23658   3.376   9.657   3.984  0.0869 -0.4372 -0.0583
 4805W        W23659  12.702  14.404  11.937  0.3758 -0.2022  0.1186
 4806W        W23660  10.250  11.780   0.035 -0.0114 -0.0842  0.1225
 4807W        W23661   3.789   8.984  14.129 -0.0067  0.0656 -0.0367
 4808W        W23662  10.006  17.273  11.218  0.0610 -0.1149  0.0167
 4809W        W23663  10.866   7.065  14.117 -0.0819 -0.1660 -0.3665
 4810W        W23664   0.029   9.131  13.225  0.3661 -0.2723 -0.2167
 4811W        W23665  12.729  12.838  11.826  0.0079 -0.2181 -0.0685
 4812W        W23666   4.886   9.857  13.072 -0.1873 -0.1301 -0.4187
 4813W        W23667   0.743  15.872   2.780 -0.1251 -0.0985  0.1675
 4814W        W23668  13.389  14.390  12.191  0.0958  0.1543  0.0089
 4815W        W23669   3.896   3.551   1.225  0.1944 -0.0487  0.1077
 4816W        W23670  16.944  13.080   4.408 -0.1765 -0.1344 -0.1626
 4817W        W23671  19.168  15.861  14.071 -0.0042  0.0940  0.1057
 4818W        W23672   8.291  13.543  11.741 -0.0885 -0.1889  0.1472
 4819W        W23673  15.699  14.095  12.557  0.0088 -0.0697 -0.0723
 4820W        W23674  12.786  15.312   0.177  0.1658  0.2199 -0.3496
 4821W        W23675   7.627   4.504  11.153  0.4793 -0.4094  0.0516
 4822W        W23676  15.786   3.338  11.394  0.1716 -0.1885  0.0897
 4823W        W23677  12.871  13.602   2.379  0.0616  0.1517 -0.2393
 4824W        W23678   0.513   8.145  10.819  0.1792  0.0076 -0.2853
 4825W        W23679   9.533  13.257   2.510  0.1185  0.1060 -0.2658
 4826W        W23680  18.576   2.350  10.826 -0.0529  0.1516  0.2586
 4827W        W23681   3.325  11.416  14.223 -0.1900 -0.1229 -0.3223
 4828W        W23682  13.775   5.768  11.777  0.1241 -0.1844 -0.0785
 4829W        W23683  18.869  13.343  14.661  0.5060 -0.3425 -0.2636
 4830W        W23684   0.536   8.209   0.408  0.1185 -0.2063  0.2605
 4831W        W23685  14.266   8.272   0.137  0.0052 -0.2460 -0.0642
 4832W        W23686  15.256   1.175  13.414  0.0860  0.0831  0.1892
 4833W        W23687  10.063   6.130   0.858  0.1034 -0.0863  0.1489
 4834W        W23688  17.161   3.700  10.635 -0.1808 -0.3445 -0.0296
 4835W        W23689  12.542  17.092   2.346  0.1084 -0.1268 -0.0948
 4836W        W23690   7.523  15.700  11.134 -0.3725 -0.2369  0.1064
 4837W        W23691   0.162  10.610  12.935  0.0538  0.1554  0.0192
 4838W        W23692  11.879   7.506  12.266  0.4203 -0.0015  0.1459
 4839W        W23693  17.920   3.218   1.450  0.2748  0.1534 -0.0605
 4840W        W23694  17.316   9.029  13.413  0.2222 -0.2066  0.1313
 4841W        W23695   4.242   1.974  12.434  0.2122 -0.0424 -0.1987
 4842W        W23696   8.932  10.164   0.633  0.2663 -0.1674  0.1545
 4843W        W23697  13.555  13.093   0.218  0.1213 -0.0821 -0.0644
 4844W        W23698   2.178  15.165   2.393 -0.1194  0.0928 -0.0090
 4845W        W23699   6.672   2.691  11.747 -0.0176  0.1320 -0.1091
 4846W        W23700  12.479   2.862   0.988 -0.1060  0.0609  0.2122
 4847W        W23701  14.279  12.489   1.428  0.0765 -0.2836 -0.0085
 4848W        W23702  11.737  16.027   0.181  0.4002 -0.3204  0.1526
 4849W        W23703   8.066  11.027   3.251 -0.0191  0.2665  0.2031
 4850W        W23704   7.858   2.884  12.794 -0.2256 -0.2524  0.3554
 4851W        W23705  12.891   2.453   2.214 -0.0136 -0.1768 -0.1649
 4852W        W23706   0.903  18.680  10.896  0.2098 -0.3718 -0.1496
 4853W        W23707  18.857   0.683  13.971  0.1593 -0.2179 -0.2260
 4854W        W23708  16.429  19.065   1.756  0.2776 -0.2992 -0.0452
 4855W        W23709  16.986   3.440  14.022  0.2140 -0.0531  0.1479
 4856W        W23710  16.199  10.356   9.908 -0.1618 -0.2435 -0.2864
 4857W        W23711   2.961   9.468  14.299 -0.0133 -0.0490 -0.1318
 4858W        W23712  13.873   8.843   0.555 -0.1692 -0.2269 -0.1600
 4859W        W23713   8.608  12.493  12.617  0.0214 -0.0427  0.1389
 4860W        W23714   4.368  16.961   2.062  0.3639 -0.1355  0.1504
 4861W        W23715  15.568  10.957  13.852  0.0247 -0.0985  0.1041
 4862W        W23716  15.150  12.311   1.512 -0.4294 -0.1847  0.1227
 4863W        W23717   6.923  15.214  11.885 -0.2174  0.1651 -0.0343
 4864W        W23718   4.802  17.516  14.713 -0.0387 -0.0206 -0.1415
 4865W        W23719  11.454  15.099   2.179  0.0764  0.0930 -0.2401
 4866W        W23720  10.876   6.210  12.903 -0.1167  0.0355  0.0098
 4867W        W23721  14.436  16.044  11.113  0.0127  0.0125 -0.1580
 4868W        W23722   9.984   5.221  14.142  0.0826 -0.0951  0.4751
 4869W        W23723  14.068   7.952   3.555 -0.1717 -0.0641  0.0727
 4870W        W23724  12.104   1.767  13.449  0.0371 -0.1817 -0.2943
 4871W        W23725  15.103  13.897   0.945 -0.2913  0.0746 -0.0550
 4872W        W23726   3.460   6.707   1.389 -0.3014 -0.0830  0.0878
 4873W        W23727  16.950  14.814  13.173  0.1898 -0.5512 -0.1350
 4874W        W23728  18.067  17.066   4.103 -0.3097  0.0528  0.2251
 4875W        W23729   2.972  19.080  12.790 -0.2441  0.0086 -0.2557
 4876W        W23730  12.759   3.113  10.796 -0.0656  0.0043 -0.0594
 4877W        W23731   6.231  11.619  14.472 -0.0758 -0.1490 -0.2403
 4878W        W23732  17.385   3.172  14.047  0.0165  0.0963 -0.1999
 4879W        W23733  10.545  12.778   1.855  0.2351 -0.2297  0.0708
 4880W        W23734   3.104   8.415  13.972 -0.0177 -0.0931 -0.0307
 4881W        W23735  12.044   2.250   2.919  0.2526 -0.0259 -0.1151
 4882W        W23736   7.170   3.852  10.418 -0.0534 -0.2640 -0.3008
 4883W        W23737   7.810  11.395   3.490 -0.2032  0.0687 -0.0982
 4884W        W23738   4.475   1.004   0.735 -0.0033  0.0478 -0.1852
 4885W        W23739  17.018   6.209  10.968  0.1035  0.0319 -0.1170
 4886W        W23740  17.136  19.081  11.456  0.1424  0.3683 -0.0956
 4887W        W23741   9.969  11.321  11.775  0.2985 -0.0943  0.1049
 4888W        W23742   4.627   0.303  12.426  0.2070  0.1893 -0.2822
 4889W        W23743  11.979  11.008  14.285  0.4983 -0.1603  0.0514
 4890W        W23744   9.287  12.859   2.689 -0.3636  0.1618  0.2613
 4891W        W23745   1.488   6.289   2.730  0.0028  0.2854 -0.2818
 4892W        W23746  17.335  15.123  10.249 -0.0975  0.1984 -0.3069
 4893W        W23747  16.097  16.044  11.863 -0.0519  0.2184  0.2980
 4894W        W23748  14.389  18.402  13.428 -0.0414 -0.2747 -0.3858
 4895W        W23749   2.354  15.004   0.151  0.2392  0.0584  0.1249
 4896W        W23750   5.773   1.662   3.289  0.0771 -0.0150 -0.2913
 4897W        W23751   2.575   3.819   2.156 -0.1467 -0.3236 -0.1958
 4898W        W23752  12.392   2.050  14.405 -0.1688 -0.2169 -0.1020
 4899W        W23753   3.659   3.840   3.575 -0.2839 -0.2135 -0.0935
 4900W        W23754  19.023  18.112   4.769  0.0163 -0.2104  0.1096
 4901W        W23755   0.667  18.617   4.045  0.0977  0.3591  0.1170
 4902W        W23756  18.563  11.082   3.562 -0.0512  0.3102  0.2292
 4903W        W23757  13.715   5.381   0.153 -0.0065 -0.4340  0.1183
 4904W        W23758   0.467   5.841   0.634 -0.0303 -0.1859  0.1324
 4905W        W23759   1.719   8.517   1.149  0.1720  0.0915  0.3355
 4906W        W23760  15.313  10.026   3.174 -0.0311 -0.0258 -0.0538
 4907W        W23761  10.011   0.074  14.672 -0.8310 -0.0182 -0.0973
 4908W        W23762   7.321  17.305   3.365 -0.0672  0.0874 -0.0108
 4909W        W23763  12.991   8.667   3.051  0.2226 -0.0141 -0.2149
 4910W        W23764   9.229  11.188  10.477  0.0305  0.2101 -0.2085
 4911W        W23765   9.058   7.941   0.070  0.2347  0.0311 -0.0303
 4912W        W23766   9.872   6.713  12.621 -0.1991  0.0705  0.1192
 4913W        W23767   1.571  19.082   1.471  0.1180  0.0841  0.0199
 4914W        W23768   2.602   6.881   0.660  0.0902  0.1495  0.2736
 4915W        W23769  12.179  17.799  11.169  0.1365  0.1509 -0.0220
 4916W        W23770   4.154  13.145   4.208 -0.0427 -0.0992  0.1162
 4917W        W23771  13.732  12.213   4.880  0.2544  0.1219  0.1787
 4918W        W23772  12.296  11.803  11.115  0.1470 -0.2430 -0.0960
 4919W        W23773   3.441   0.007  14.647 -0.1802 -0.1100  0.1976
 4920W        W23774  14.357   3.605   2.722 -0.0728  0.3151 -0.2875
 4921W        W23775   4.428   1.570   2.934 -0.0728 -0.1251  0.0547
 4922W        W23776   8.166   3.926  11.494  0.1676  0.1911  0.0632
 4923W        W23777   0.422   2.957   3.131  0.4842  0.0010 -0.2002
 4924W        W23778  10.918  10.332   1.732  0.0784 -0.0185 -0.1689
 4925W        W23779  15.499   5.571  10.267 -0.0712 -0.1179 -0.1477
 4926W        W23780  13.815   0.174   1.203 -0.1057  0.1828 -0.0540
 4927W        W23781   7.602  12.241  10.386  0.0394 -0.0168 -0.4149
 4928W        W23782  13.238  12.376  14.420  0.0929  0.0668 -0.0539
 4929W        W23783  16.252   3.907   1.324 -0.1089  0.0588 -0.3336
 4930W        W23784   6.768   3.237  11.767  0.1878  0.0171  0.0568
 4931W        W23785  15.465   9.797   2.765  0.0871 -0.0683 -0.0542
 4932W        W23786   3.181   3.522  12.492  0.1980 -0.1413 -0.1593
 4933W        W23787   2.250   2.467   2.543 -0.0088 -0.2625 -0.2951
 4934W        W23788  17.800  17.615  12.637 -0.0738  0.0245 -0.1969
 4935W        W23789  10.728  16.971  12.260  0.2424  0.1181  0.1746
 4936W        W23790   3.000   1.987   0.307 -0.2563  0.0103 -0.0203
 4937W        W23791   5.010   7.589   3.247  0.0367  0.0358 -0.1182
 4938W        W23792  15.343   6.247  11.585 -0.0951 -0.0196 -0.2269
 4939W        W23793  10.978   9.000  11.532 -0.4148 -0.0320  0.1032
 4940W        W23794   0.453   4.448   2.574 -0.0207 -0.1336 -0.0088
 4941W        W23795   1.327   7.621   3.216  0.1491 -0.4089  0.0469
 4942W        W23796   4.930  11.406  10.350  0.0022 -0.0450  0.2226
 4943W        W23797   3.111  16.904  10.703 -0.3526  0.2377  0.0310
 4944W        W23798  11.776   2.664   3.082  0.0165  0.1413  0.0071
 4945W        W23799   0.856   0.528   3.469  0.4190  0.2387 -0.2443
 4946W        W23800  15.777  15.594  12.885 -0.1492  0.0612 -0.2126
 4947W        W23801   4.808   6.515  14.440 -0.1025 -0.1586 -0.0104
 4948W        W23802   5.986   9.291   1.840  0.2265  0.0300 -0.4390
 4949W        W23803  16.367   6.617  11.541  0.0286  0.0820  0.2705
 4950W        W23804  13.515  10.713   3.304  0.0447 -0.0526  0.0575
 4951W        W23805  13.803  15.027   1.926  0.0030 -0.1258 -0.3189
 4952W        W23806   3.097   5.804   4.384 -0.0126 -0.1606  0.0616
 4953W        W23807  12.313  16.102   4.288  0.1988  0.0039  0.1247
 4954W        W23808  16.978   4.402   0.988 -0.0814  0.1048  0.1605
 4955W        W23809   9.653  18.394   3.938  0.2610 -0.1405 -0.1679
 4956W        W23810  13.396   1.924  11.615 -0.3426 -0.4923  0.1498
 4957W        W23811  17.439  10.108   2.018 -0.0157  0.0410  0.0549
 4958W        W23812  17.183   0.411  11.352  0.3792 -0.0545  0.0549
 4959W        W23813  12.278   9.221  11.826 -0.4393 -0.0447 -0.2392
 4960W        W23814  19.049   8.337   0.901  0.1896  0.2532 -0.1273
 4961W        W23815   6.312  11.098  10.182  0.2320  0.2464  0.2770
 4962W        W23816  15.059  10.020  13.058  0.0166  0.5779  0.1095
 4963W        W23817   4.478  11.911  13.466 -0.1086  0.2318 -0.2015
 4964W        W23818   4.095   0.380   0.142 -0.4030  0.0422  0.1438
 4965W        W23819   6.080  16.675   1.966 -0.2821  0.1183 -0.0344
 4966W        W23820  13.294  14.440   9.911  0.1182 -0.3595 -0.2402
 4967W        W23821  16.327   5.000  14.692  0.0530  0.0052 -0.1888
 4968W        W23822   1.331   8.334   0.872 -0.0501  0.2736 -0.1201
 4969W        W23823  16.196  10.973   1.829 -0.2274  0.0433 -0.4195
 4970W        W23824   0.745   1.739   1.440 -0.4706  0.1987 -0.4174
 4971W        W23825  13.279   5.822  11.405 -0.1601 -0.2754 -0.0791
 4972W        W23826  14.200  17.822   4.187  0.1845 -0.2080 -0.0929
 4973W        W23827   0.778  11.458  13.138 -0.1034 -0.1922  0.1867
 4974W        W23828   7.577  18.510  12.261 -0.1711 -0.1623 -0.4541
 4975W        W23829   6.755  16.921   1.489 -0.0938 -0.0848 -0.1388
 4976W        W23830   4.349  14.270  13.861  0.0034 -0.0803 -0.1554
 4977W        W23831  15.771   9.525  11.288  0.0920 -0.1599 -0.2791
 4978W        W23832   5.180  18.364   4.123 -0.0133  0.0409  0.0091
 4979W        W23833   3.714   9.877  11.481  0.1256  0.1109  0.0228
 4980W        W23834   8.847  11.752  13.240 -0.2315 -0.1919  0.0276
 4981W        W23835  14.793   0.084   2.290  0.0628  0.2518  0.2678
 4982W        W23836   1.651  16.259   1.378  0.0478  0.4033 -0.0169
 4983W        W23837  17.299   5.004   2.498 -0.2473  0.0236  0.1694
 4984W        W23838  17.233   3.353   0.259 -0.0163  0.0677 -0.3863
 4985W        W23839   3.669   0.610  14.649  0.1328  0.0174 -0.1241
 4986W        W23840   0.202  15.160  14.685 -0.0754 -0.2291 -0.2202
 4987W        W23841   2.162   4.396  14.474  0.1237 -0.0655  0.0042
 4988W        W23842  18.815  14.429  10.697  0.1199  0.0887  0.0906
 4989W        W23843   2.635   8.444   2.132  0.1296 -0.1474  0.0784
 4990W        W23844  11.691  11.464   3.960  0.0511 -0.3101  0.0597
 4991W        W23845   6.376  15.663   9.965 -0.1478  0.2066 -0.1275
 4992W        W23846  18.500  11.634   3.768  0.1959  0.1090 -0.2058
 4993W        W23847   7.279   1.590  12.879 -0.0442  0.0571  0.0971
 4994W        W23848   7.363  14.259  10.752 -0.1296  0.1265 -0.2317
 4995W        W23849   7.104   3.735   0.444  0.1333 -0.0354 -0.1223
 4996W        W23850  10.293   2.906   3.596 -0.2393  0.2239  0.0892
 4997W        W23851   2.156  15.575  14.177 -0.1248 -0.0284  0.0106
 4998W        W23852   3.942   7.040  11.993 -0.0751 -0.0637  0.1786
 4999W        W23853   5.230  17.931   4.471 -0.2903 -0.1740  0.1060
 5000W        W23854   7.821  10.687   0.409 -0.0146  0.0069  0.2656
 5001W        W23855   4.791  15.378  11.820 -0.1191  0.1498 -0.0604
 5002W        W23856   3.520  17.281   1.881 -0.1481 -0.0118  0.0300
 5003W        W23857   9.468   8.505   2.793 -0.1058  0.1328 -0.1040
 5004W        W23858   7.787   6.061   3.161 -0.2265 -0.0018 -0.0078
 5005W        W23859   0.756  14.349   0.987 -0.1240  0.3862  0.0334
 5006W        W23860   2.669  10.282  14.588 -0.0003 -0.0496  0.1522
 5007W        W23861  18.853   0.715   3.448  0.2708  0.4189 -0.0579
 5008W        W23862  10.144   4.875  13.442 -0.2154  0.0246  0.0040
 5009W        W23863   6.710  16.661  11.563  0.2064  0.2467  0.0697
 5010W        W23864   7.260  13.608  10.686  0.1366 -0.0595 -0.0719
 5011W        W23865  18.577   3.303  10.602 -0.0829  0.0722  0.1175
 5012W        W23866   0.440   6.577   1.922  0.1141 -0.1024  0.0707
 5013W        W23867  16.104  15.662   2.448 -0.1365 -0.0512  0.0232
 5014W        W23868   2.599  16.208  11.298  0.0019  0.0237 -0.0918
 5015W        W23869   6.938   9.189  14.241  0.2600 -0.1753 -0.5511
 5016W        W23870   4.716   9.613   0.231 -0.1854 -0.1724  0.0148
 5017W        W23871  16.142  12.309   3.836 -0.0043  0.0298 -0.1796
 5018W        W23872  13.730  13.776  13.181  0.0138 -0.3921  0.0007
 5019W        W23873  15.508   5.808  10.700 -0.2412 -0.1428  0.1167
 5020W        W23874  16.342  14.344  14.439  0.1092 -0.1663 -0.0253
 5021W        W23875   4.560   3.700  12.083 -0.1520  0.0100 -0.0560
 5022W        W23876   6.640  11.095  10.749 -0.2288  0.1812  0.1089
 5023W        W23877   3.753  11.823  12.859  0.0057 -0.0171 -0.2390
 5024W        W23878  15.521   0.469  11.705  0.0951  0.1091 -0.1456
 5025W        W23879  13.741  10.088   0.158 -0.0005 -0.1680  0.0087
 5026W        W23880  18.603   9.632   3.555  0.1624  0.0085  0.0009
 5027W        W23881   8.408   9.957   0.667  0.2343 -0.0365  0.4271
 5028W        W23882  15.536   7.767  13.740 -0.2152  0.0722 -0.1174
 5029W        W23883   3.671   9.514   1.326 -0.4032  0.0032  0.0241
 5030W        W23884  16.304  18.721   0.215 -0.5157 -0.2794 -0.0671
 5031W        W23885   8.439  18.772  13.530 -0.3204  0.1216 -0.0416
 5032W        W23886   4.664   9.315   2.798 -0.1855 -0.0000 -0.0630
 5033W        W23887   3.092   7.875  14.184 -0.0839  0.0229  0.1976
 5034W        W23888  16.625  11.910   4.294  0.3014 -0.1500  0.1677
 5035W        W23889  14.990   0.772   9.967  0.1504  0.0824  0.0586
 5036W        W23890  10.907   1.022   1.665  0.1126 -0.1992  0.1551
 5037W        W23891   9.590   6.409   0.766  0.0895 -0.3615 -0.2265
 5038W        W23892   6.985  17.253  11.369  0.0017  0.3843  0.0503
 5039W        W23893  12.793   2.794   2.633  0.3628  0.1058  0.2625
 5040W        W23894  12.186  18.363   1.015  0.0116  0.2475  0.1401
 5041W        W23895   3.315   2.167   0.883  0.1416  0.0523  0.0197
 5042W        W23896  13.039   8.306   0.379 -0.5324  0.0929  0.1802
 5043W        W23897  14.543   6.053   3.642 -0.2173 -0.1671  0.0186
 5044W        W23898  10.302  16.110   3.913 -0.0367 -0.0366 -0.2795
 5045W        W23899   8.182  18.178   1.201  0.1175  0.0877 -0.2319
 5046W        W23900  12.471   4.363   1.787 -0.3313 -0.0261 -0.2641
 5047W        W23901  17.219   4.505  12.727 -0.2840  0.2346  0.1122
 5048W        W23902  13.437  12.398  10.282 -0.1006  0.3164  0.3495
 5049W        W23903  15.926   9.168  13.723 -0.0900  0.0530 -0.1899
 5050W        W23904   8.054   2.654  10.698  0.0749 -0.1336  0.1747
 5051W        W23905   1.017   9.290   1.325  0.1379 -0.2227 -0.0211
 5052W        W23906   5.564   5.230  13.657  0.0370 -0.1262 -0.3175
 5053W        W23907  13.026   6.741   5.289 -0.0582  0.2116 -0.2558
 5054W        W23908  11.762  16.789  11.071  0.1651 -0.2214  0.3021
 5055W        W23909   0.210  11.579   1.880  0.0491 -0.1042 -0.0376
 5056W        W23910  12.609   2.444   1.827  0.3189 -0.0116 -0.0347
 5057W        W23911  17.823   4.525  13.615 -0.2366 -0.3695 -0.0071
 5058W        W23912  17.946  14.684   0.375 -0.1265 -0.1696  0.3100
 5059W        W23913  14.619  17.918   0.804  0.3081  0.0358  0.3898
 5060W        W23914  11.511   6.352  12.741  0.1000  0.1965 -0.0534
 5061W        W23915  12.686  15.915  14.636  0.2700 -0.1951 -0.2529
 5062W        W23916  16.538   9.487  14.534  0.1648  0.3115 -0.0826
 5063W        W23917  16.764   3.987   1.204 -0.0625  0.0026  0.0027
 5064W        W23918   9.759   6.740  13.603  0.0398 -0.1420 -0.0975
 5065W        W23919   8.477   1.493  12.953  0.3333  0.0141 -0.1905
 5066W        W23920   7.519  17.654   1.369 -0.2437  0.0516 -0.2055
 5067W        W23921   1.209   1.673   2.902 -0.0734  0.2702  0.1333
 5068W        W23922   0.762   4.287   4.162  0.1146 -0.2657  0.1183
 5069W        W23923   4.274   2.041  11.887  0.1026 -0.3330  0.0154
 5070W        W23924   1.185   2.933   1.290 -0.1811 -0.1316 -0.0303
 5071W        W23925   1.662   9.043  11.252  0.0082  0.3001  0.1471
 5072W        W23926  14.023   2.694  12.616 -0.2581 -0.0743 -0.5158
 5073W        W23927  11.272  10.846  14.006  0.1103 -0.0564  0.0655
 5074W        W23928  14.781  17.503   2.497  0.1090  0.2583  0.1385
 5075W        W23929  16.320  15.803   1.923 -0.5034  0.1612  0.0023
 5076W        W23930  15.254  14.919   1.113 -0.2556 -0.4174 -0.0430
 5077W        W23931   4.950  13.415   1.866 -0.0205  0.0835  0.0100
 5078W        W23932   1.285   5.759  12.968 -0.5168 -0.1839 -0.1007
 5079W        W23933  17.587  16.530   1.399 -0.1495  0.0611  0.0664
 5080W        W23934   4.467   2.674   1.806 -0.3231  0.2709 -0.0628
 5081W        W23935  16.076  12.934  12.377 -0.0027  0.3034 -0.1191
 5082W        W23936  11.363  11.013   0.230  0.2133  0.0150 -0.0221
 5083W        W23937   1.404  16.257   3.505 -0.2703 -0.0937  0.3857
 5084W        W23938   2.782  10.279  13.020  0.1964  0.0099  0.0766
 5085W        W23939  12.945  15.594  12.130 -0.1305  0.0906 -0.3946
 5086W        W23940  13.088   0.427  14.279 -0.0473  0.2324 -0.1819
 5087W        W23941  12.907  19.165  11.014  0.1835 -0.1430 -0.0105
 5088W        W23942   7.427   1.802   1.252 -0.0014  0.4462  0.0982
 5089W        W23943   0.700  17.983   1.708  0.1098 -0.0383  0.0881
 5090W        W23944  13.582   4.269   1.157 -0.1350  0.1277 -0.2093
 5091W        W23945  10.389  16.613   3.818  0.0765 -0.3252  0.3988
 5092W        W23946   1.514  11.129   1.895 -0.3981 -0.0131 -0.0762
 5093W        W23947   1.308   9.194  14.238 -0.0327 -0.1499 -0.0112
 5094W        W23948  11.434   6.448   2.130 -0.3894  0.1183  0.3800
 5095W        W23949   5.885   2.033   4.240 -0.0933  0.0323 -0.0060
 5096W        W23950   7.969  19.127  13.498 -0.1241  0.0692 -0.2215
 5097W        W23951   1.043  14.322   1.624 -0.1687  0.4466  0.1248
 5098W        W23952   1.338  10.994  12.109 -0.0877 -0.2035 -0.3274
 5099W        W23953   1.931  18.262  14.485 -0.0420 -0.0592  0.0060
 5100W        W23954  18.383   9.077   0.690  0.0870 -0.0773 -0.0302
 5101W        W23955  12.827  17.474  11.821  0.1387 -0.1335 -0.0742
 5102W        W23956   7.667  11.908  11.939  0.0240  0.0866  0.0816
 5103W        W23957  19.119  18.538  12.356 -0.2272 -0.0574  0.0641
 5104W        W23958  16.965  17.742   0.710  0.0350 -0.1308 -0.4392
 5105W        W23959   6.006  10.688  12.234  0.0514  0.0370  0.1569
 5106W        W23960   7.106  17.723   0.865 -0.1427  0.0246  0.0225
 5107W        W23961   9.466  15.462   1.494  0.1063 -0.1053  0.2692
 5108W        W23962  18.502   8.191   2.955  0.3815 -0.0914  0.0082
 5109W        W23963  10.651   6.869   2.581 -0.3026 -0.2724 -0.1843
 5110W        W23964   9.308   5.317  10.733  0.0710  0.1562  0.0346
 5111W        W23965   4.607  14.014  12.901 -0.2414  0.3231 -0.0673
 5112W        W23966  15.000  16.770   4.036 -0.0043  0.2965 -0.1038
 5113W        W23967   3.793  18.972   3.390 -0.0487 -0.1480  0.2310
 5114W        W23968  15.553   1.500   4.006  0.0170  0.1996 -0.1156
 5115W        W23969   6.977  15.851   4.982  0.4170  0.0940 -0.1169
 5116W        W23970  18.123   0.196  11.241  0.0073  0.0515  0.0173
 5117W        W23971  16.880   3.033  13.750 -0.0971  0.0135  0.0426
 5118W        W23972  13.291  15.449  12.702 -0.1653  0.1369  0.0216
 5119W        W23973   8.568   4.265  12.044 -0.1112  0.0132  0.2575
 5120W        W23974   5.985  14.273  12.808 -0.1136 -0.1870  0.2864
 5121W        W23975  15.104   1.220   0.049 -0.0643 -0.0618  0.0199
 5122W        W23976   0.269  17.629   4.046  0.1467 -0.3032  0.1096
 5123W        W23977   6.271   2.352   5.063 -0.1830  0.0975 -0.2005
 5124W        W23978   0.749   2.388  11.732 -0.3443  0.1486  0.4013
 5125W        W23979   6.061   5.105   2.437  0.2138  0.0071 -0.1862
 5126W        W23980   1.514   4.328  10.436 -0.1487 -0.1442  0.1521
 5127W        W23981  14.166   7.444   3.739  0.0189  0.1437 -0.2062
 5128W        W23982   9.768   6.794  10.197 -0.0661  0.0371  0.0930
 5129W        W23983  19.202   6.161  11.308 -0.0621 -0.0172  0.0185
 5130W        W23984   6.276   3.945   0.410 -0.2383 -0.0068  0.0459
 5131W        W23985   8.242   1.146  10.106 -0.1386 -0.1138  0.0287
 5132W        W23986  15.273   1.725  10.919 -0.1781 -0.1744  0.1563
 5133W        W23987   3.003  14.981   2.789  0.1533 -0.0183 -0.1529
 5134W        W23988  13.126   2.877  11.110  0.1382  0.0140 -0.0793
 5135W        W23989  13.081   5.222  14.075  0.0932 -0.2783 -0.2329
 5136W        W23990   4.854   5.686  12.489  0.2713  0.1003 -0.0393
 5137W        W23991   7.124   6.537   1.182 -0.0736 -0.1904 -0.3166
 5138W        W23992   4.804  17.691   9.791  0.2306  0.0148  0.0419
 5139W        W23993  13.351   0.466   3.414  0.1043 -0.0833  0.1551
 5140W        W23994   4.824  14.894  12.612 -0.0107  0.0030  0.2825
 5141W        W23995  17.934   0.196   3.638 -0.2869 -0.3331 -0.1333
 5142W        W23996  14.878  18.933   1.451 -0.4247 -0.0325  0.1222
 5143W        W23997   9.040   2.677   3.393  0.2068 -0.1284  0.0173
 5144W        W23998   3.298   7.543  12.792 -0.0079  0.1365  0.1712
 5145W        W23999  13.849   7.024   4.414  0.0653 -0.2179 -0.0066
 5146W        W24000  15.209  11.521   3.263  0.0394  0.1551 -0.0489
 5147W        W24001  10.371   4.618  11.273 -0.0834 -0.3676  0.0796
 5148W        W24002  17.667   8.297   4.249  0.0083 -0.0656  0.1889
 5149W        W24003  14.663   7.640  12.941 -0.0975 -0.0053 -0.2900
 5150W        W24004   4.481   5.581  14.278 -0.1820 -0.1354 -0.0525
 5151W        W24005   4.299  18.192  11.903 -0.0083  0.1664  0.1359
 5152W        W24006   4.644   8.504  14.420  0.0418  0.1078 -0.0474
 5153W        W24007  16.414  11.203  11.133 -0.2804 -0.1241  0.2776
 5154W        W24008  14.543  11.613  11.727  0.0726  0.1625  0.1726
 5155W        W24009   6.731   9.147  10.182  0.2479 -0.1441 -0.2320
 5156W        W24010   0.856   6.597   0.807 -0.1553 -0.0611 -0.1453
 5157W        W24011  12.060  17.029   1.652 -0.1440  0.1809  0.0667
 5158W        W24012   5.472  16.011   2.954  0.0886  0.2558  0.0801
 5159W        W24013  14.324   6.471  10.487  0.2064  0.2101 -0.0915
 5160W        W24014  16.540   4.877  11.690  0.0168 -0.2323  0.0685
 5161W        W24015  12.361  12.760  12.227  0.1317  0.2409 -0.2196
 5162W        W24016   9.777  10.804  13.781 -0.0976  0.0735  0.0520
 5163W        W24017  15.586  13.861  13.044  0.0177  0.1530 -0.0611
 5164W        W24018  17.021   1.633   1.958  0.1258  0.4212 -0.0644
 5165W        W24019  12.978   5.214   1.226  0.2451 -0.1352 -0.0518
 5166W        W24020  10.850  13.585   2.263 -0.0693 -0.0124  0.0252
 5167W        W24021   9.972   4.131  12.434  0.2516  0.0139 -0.1178
 5168W        W24022   8.456  16.997   1.924  0.1171  0.1077 -0.0342
 5169W        W24023   8.974   4.425  13.435 -0.1814 -0.1908  0.0544
 5170W        W24024  15.429   0.293   2.869  0.0913  0.2492 -0.0857
 5171W        W24025   5.545   4.119   3.454 -0.0740  0.0812 -0.1007
 5172W        W24026  19.100   9.483   1.950 -0.1108 -0.2360 -0.0576
 5173W        W24027  16.573  12.947  12.587  0.0592  0.0332 -0.0011
 5174W        W24028  14.374   5.450  12.356  0.2896 -0.0818  0.1123
 5175W        W24029   8.276  15.652   4.410  0.0160 -0.2094  0.0114
 5176W        W24030  19.034   2.427   4.146 -0.0237 -0.2322  0.3737
 5177W        W24031  10.636   7.515   0.127 -0.0273  0.2830  0.0879
 5178W        W24032   0.267  11.248   0.703 -0.2672  0.1205  0.3177
 5179W        W24033   9.797  18.548   1.994 -0.1551  0.2161 -0.2140
 5180W        W24034  13.331   4.543  12.787 -0.0463  0.0149  0.2965
 5181W        W24035  13.209   4.789  12.281 -0.1563  0.1945 -0.1417
 5182W        W24036   2.259  10.396   3.149  0.0936  0.3553 -0.1325
 5183W        W24037  14.865  11.469  14.370  0.1693 -0.0551 -0.1888
 5184W        W24038   7.682  12.524   0.971  0.1452 -0.0100  0.0084
 5185W        W24039   5.844  14.076   3.713  0.0518 -0.2242  0.1326
 5186W        W24040  15.391   2.693   0.372 -0.2738 -0.0398  0.1446
 5187W        W24041  15.278  17.837   3.815  0.0341 -0.2837  0.2259
 5188W        W24042  17.699  10.815  11.413  0.1046 -0.1072  0.1347
 5189W        W24043  11.767  14.064  11.806  0.3371  0.0167 -0.0941
 5190W        W24044   8.157  11.977  13.628  0.0641 -0.1693  0.0568
 5191W        W24045  18.690   3.103   3.021  0.1259  0.0377  0.1002
 5192W        W24046  11.436   8.823  14.663 -0.2708  0.0063  0.2736
 5193W        W24047   3.259  18.127  13.520  0.0773  0.1065 -0.1363
 5194W        W24048   3.134  12.847   3.351 -0.0959  0.0854 -0.0623
 5195W        W24049  12.038   5.757   0.231 -0.1406  0.1830 -0.1450
 5196W        W24050   1.759  17.489  11.734  0.0254  0.0394  0.0213
 5197W        W24051  16.345   7.633  14.030 -0.0667 -0.0927  0.0578
 5198W        W24052   6.087  11.196   1.159  0.1098  0.3451 -0.0926
 5199W        W24053  12.650   3.508   1.610  0.1765  0.0248 -0.0772
 5200W        W24054   5.138   3.162   3.725 -0.1593  0.2342  0.0909
 5201W        W24055   8.784  11.107   1.214 -0.0019 -0.0168 -0.0772
 5202W        W24056   8.103   5.569   9.559  0.3298 -0.1880  0.1008
 5203W        W24057  14.930  12.272   2.933  0.0911  0.0025  0.0071
 5204W        W24058  10.795  13.667  14.006  0.0547 -0.0382  0.2181
 5205W        W24059  14.688  14.354   1.579 -0.1470 -0.2413  0.0522
 5206W        W24060   5.936   2.330   0.113  0.2574 -0.1878 -0.0006
 5207W        W24061   3.327  14.717   1.760 -0.0232  0.0555 -0.1914
 5208W        W24062   1.188  12.821   9.908 -0.0505 -0.2096 -0.2599
 5209W        W24063  13.584  17.957  11.592 -0.1046  0.0817  0.2351
 5210W        W24064  13.447   4.955  14.735  0.1576 -0.0668  0.1071
 5211W        W24065   8.011   1.452   3.443  0.0487 -0.0509 -0.2167
 5212W        W24066  15.973   8.068  13.891 -0.0826 -0.3825  0.1837
 5213W        W24067   6.889   9.774   1.280  0.0465  0.2749 -0.0105
 5214W        W24068  11.939   9.578   3.112  0.2308 -0.1615  0.0736
 5215W        W24069  17.971   5.301   3.737  0.0104  0.1786 -0.2885
 5216W        W24070  18.514   5.230  11.705 -0.1498  0.2449  0.0275
 5217W        W24071   8.964  16.424  14.702  0.1809 -0.4519  0.1516
 5218W        W24072  10.634  15.809  13.318  0.0164 -0.1998 -0.3267
 5219W        W24073   2.706   1.971  12.777 -0.0011 -0.0095  0.1395
 5220W        W24074   5.044  12.643  13.257 -0.1848  0.0556  0.0711
 5221W        W24075  11.441  14.087  12.218  0.3582  0.0655 -0.2094
 5222W        W24076  10.969   3.240  14.482 -0.1122  0.1072  0.1120
 5223W        W24077   9.564  11.194   0.460 -0.1599  0.0618 -0.1694
 5224W        W24078  17.679  18.772  11.826  0.0690 -0.2686 -0.2233
 5225W        W24079   5.926   0.988   0.034 -0.2398  0.0678  0.1482
 5226W        W24080   4.036  18.997   1.349 -0.3021  0.2599 -0.0135
 5227W        W24081  13.436   9.369   3.928 -0.1153 -0.1882  0.2448
 5228W        W24082  12.200   2.398  12.855 -0.0742 -0.0634 -0.1062
 5229W        W24083   9.370   8.357  13.315 -0.4185 -0.1322  0.0271
 5230W        W24084  19.072  12.267   4.479 -0.1492  0.1331  0.0327
 5231W        W24085   0.600   3.982   0.152 -0.0312 -0.1978 -0.0297
 5232W        W24086  10.057  15.235  13.342  0.4265  0.0314 -0.1938
 5233W        W24087  11.254  16.971   1.275 -0.1753  0.2355 -0.1240
 5234W        W24088   2.865  15.181   0.196 -0.0140 -0.0125 -0.1612
 5235W        W24089  11.395   5.036   1.440  0.0898 -0.0330  0.0334
 5236W        W24090   3.434  18.800  14.218 -0.1704  0.2205  0.2754
 5237W        W24091   1.743   7.445  14.584  0.0731 -0.3441  0.2887
 5238W        W24092  13.784   1.586  11.024 -0.0194 -0.0156 -0.2973
 5239W        W24093   2.555  17.185  11.207  0.2442 -0.1584  0.2901
 5240W        W24094   7.692  14.867  14.482 -0.1403  0.1917 -0.1552
 5241W        W24095   6.870  11.471   3.703  0.0348  0.1212  0.2547
 5242W        W24096   1.411  19.125   3.620 -0.0522 -0.3377  0.0781
 5243W        W24097   0.061   4.009   0.282  0.3042  0.3231  0.0756
 5244W        W24098   7.376   8.396   2.823  0.1188 -0.0281  0.3410
 5245W        W24099   6.496   8.753  11.287 -0.2044 -0.1628  0.1067
 5246W        W24100   3.665   7.642  14.086  0.2375 -0.1261 -0.1218
 5247W        W24101  15.123   7.188  11.130  0.1424  0.0734  0.0107
 5248W        W24102  15.364  13.296  12.123  0.0846 -0.0282  0.1380
 5249W        W24103  17.540   2.422  12.198  0.1366  0.0135  0.0350
 5250W        W24104   9.851  15.103  14.292 -0.0077 -0.0777 -0.2352
 5251W        W24105  18.652   6.845  10.185 -0.2363  0.0939  0.0386
 5252W        W24106  16.073   0.433  14.725 -0.0531  0.0769  0.2238
 5253W        W24107  11.110   4.137   0.385  0.0398  0.5856  0.1410
 5254W        W24108   7.805  12.530   1.424 -0.1128  0.1690  0.0077
 5255W        W24109  14.441  13.254   0.242  0.0146  0.0041 -0.0297
 5256W        W24110   4.690   9.385  10.197 -0.1465  0.0420  0.1359
 5257W        W24111   8.414   2.019  13.357  0.1543 -0.2020  0.2424
 5258W        W24112  10.886   5.176  12.897 -0.0304 -0.2693  0.1597
 5259W        W24113  14.011   6.568   0.629  0.1658  0.0046 -0.1236
 5260W        W24114  14.518   7.614   2.772 -0.1499  0.2358  0.3150
 5261W        W24115  11.800  19.105  10.779 -0.0440  0.0930 -0.0437
 5262W        W24116  16.124   8.182  11.512  0.0745 -0.3131  0.0622
 5263W        W24117  13.828  10.108  13.339  0.0100 -0.2769 -0.1349
 5264W        W24118  12.287  15.379   0.401  0.1031 -0.3712 -0.1442
 5265W        W24119  10.280  13.610   2.249  0.0504 -0.0263  0.0137
 5266W        W24120  15.285  13.198  12.604 -0.1419  0.2396  0.1483
 5267W        W24121   8.678  12.921   0.898  0.0845 -0.1117 -0.0663
 5268W        W24122   8.048  16.711   1.192  0.0001 -0.0379 -0.1797
 5269W        W24123   0.425  14.772   0.279 -0.0521 -0.0057 -0.2178
 5270W        W24124   9.303   0.917   1.089  0.2967 -0.1176 -0.3136
 5271W        W24125   7.746  10.418  14.686 -0.2510 -0.0661 -0.1958
 5272W        W24126   6.385   5.576  14.381 -0.1731  0.1705  0.0461
 5273W        W24127  13.711   0.554   3.011 -0.1473 -0.0679  0.0842
 5274W        W24128   9.596  17.233   0.615 -0.0132  0.0244 -0.2172
 5275W        W24129  10.490  14.192   0.562  0.0494 -0.1594  0.0437
 5276W        W24130   4.868   8.774  12.878 -0.3946  0.0507 -0.0550
 5277W        W24131  14.905  14.589   2.608 -0.0118 -0.1260 -0.1693
 5278W        W24132   0.907  15.183  13.773 -0.0625 -0.1484 -0.3089
 5279W        W24133   7.225  10.388  12.361  0.1205  0.0842  0.0866
 5280W        W24134  15.716  18.347   3.180 -0.0047 -0.1927 -0.0399
 5281W        W24135   1.616  14.557  10.775  0.1233  0.0480 -0.1566
 5282W        W24136   5.163   0.131   2.357 -0.0620 -0.0723 -0.2383
 5283W        W24137  17.841   3.056   0.840 -0.2264  0.2111 -0.1413
 5284W        W24138  11.175   6.383  12.257  0.3540 -0.2489  0.2008
 5285W        W24139  17.940  15.227   3.704 -0.1243 -0.2749 -0.0932
 5286W        W24140  14.894   5.716  12.428  0.0884  0.2636 -0.0076
 5287W        W24141   7.054   4.680  13.856 -0.0056  0.0106  0.2923
 5288W        W24142   8.304  11.289  11.966  0.3341 -0.0801  0.1248
 5289W        W24143  17.004   4.201  13.053 -0.1888  0.0105  0.1153
 5290W        W24144  16.601   3.484   1.373  0.1116 -0.4152  0.1950
 5291W        W24145   9.739  12.204  14.397  0.1533 -0.2596 -0.0307
 5292W        W24146  10.956   7.705  14.516 -0.1021  0.2220 -0.1577
 5293W        W24147  19.149  14.813   1.398  0.0691 -0.1502 -0.1955
 5294W        W24148  10.154   2.141  12.343  0.3273  0.0232  0.0506
 5295W        W24149  16.320   4.672   5.397 -0.0666 -0.3092  0.1427
 5296W        W24150   2.437  17.795   0.740 -0.2301 -0.1171 -0.3266
 5297W        W24151  15.720   4.826  13.494 -0.0898  0.2239  0.0834
 5298W        W24152  16.460  11.645  12.641  0.0548  0.2235 -0.0267
 5299W        W24153   2.529  17.074  13.986 -0.2016 -0.1492 -0.1482
 5300W        W24154  15.583  18.018   4.181  0.0274  0.1754  0.0686
 5301W        W24155  14.859  16.288  11.257  0.1907 -0.2646  0.1466
 5302W        W24156  13.059  13.302  13.589 -0.1734 -0.2458 -0.1802
 5303W        W24157   6.253   9.990  10.774 -0.1779 -0.1078  0.1135
 5304W        W24158   1.952   4.281  12.317  0.1133 -0.1361 -0.2439
 5305W        W24159  14.661  16.732   1.546 -0.2748 -0.0642  0.1514
 5306W        W24160   4.733   8.425   4.035  0.0900 -0.1916  0.1569
 5307W        W24161  15.689   9.413  12.985 -0.4665 -0.1365 -0.2585
 5308W        W24162  16.926   1.088   3.175  0.1789 -0.2610 -0.1622
 5309W        W24163  19.185  15.796   3.929 -0.1100 -0.0929  0.0434
 5310W        W24164  17.391   8.843   1.614 -0.3487 -0.3167  0.0496
 5311W        W24165   7.171   6.896  10.997 -0.3511 -0.0123 -0.0612
 5312W        W24166   1.369   1.627  11.079 -0.2721 -0.0778  0.4050
 5313W        W24167   1.166  13.360  12.459  0.0299 -0.3001  0.2963
 5314W        W24168   3.186  16.518  13.661 -0.1205  0.3618  0.0460
 5315W        W24169  17.290   9.572   1.897 -0.0154  0.0189 -0.0628
 5316W        W24170  11.734   2.424   1.539  0.1640 -0.1618 -0.1371
 5317W        W24171  15.633   1.733   0.637  0.0028  0.0303 -0.1465
 5318W        W24172  17.166   1.324   0.907 -0.0728  0.3216  0.1386
 5319W        W24173  11.958   6.996   9.679 -0.0757 -0.2601 -0.2705
 5320W        W24174   2.337   4.638   0.995  0.0189  0.2494 -0.0111
 5321W        W24175  18.027  10.858   1.403 -0.0406 -0.0815 -0.0816
 5322W        W24176   2.131   0.588   0.889 -0.0390 -0.1890 -0.0699
 5323W        W24177  11.229   0.510  14.390 -0.0904  0.2599 -0.5521
 5324W        W24178   4.546   1.829  13.837  0.3141 -0.0315 -0.2765
 5325W        W24179  11.331  17.551   2.391 -0.0163 -0.1557  0.0424
 5326W        W24180   6.944  14.416  13.374 -0.0068 -0.1024 -0.1159
 5327W        W24181  12.396   6.212  10.452 -0.1410  0.0740  0.1902
 5328W        W24182  14.402   2.682  10.908  0.0488  0.2423 -0.1138
 5329W        W24183   1.684  10.181   3.485 -0.1507  0.3211 -0.0718
 5330W        W24184   6.990   7.073   3.291  0.2220 -0.1523  0.0655
 5331W        W24185   9.467  13.411  12.873 -0.1463 -0.1289  0.1622
 5332W        W24186   0.243  14.958  13.290 -0.0662 -0.0014 -0.0496
 5333W        W24187   0.487  12.266  14.403 -0.0205 -0.0245  0.3178
 5334W        W24188   2.269   1.584  14.284  0.1553  0.2787 -0.0759
 5335W        W24189  14.167  18.075   0.644 -0.4645  0.3483 -0.0195
 5336W        W24190   5.942  13.440  13.189  0.2862  0.1208 -0.0014
 5337W        W24191   9.158  15.397   1.965  0.1384 -0.0234 -0.3052
 5338W        W24192  18.739  13.570  11.950  0.2755  0.0609 -0.0526
 5339W        W24193   4.444  12.191   0.613  0.0130  0.2230 -0.0967
 5340W        W24194  12.474   4.265  13.059  0.3009  0.1975 -0.0455
 5341W        W24195   6.828   8.152   0.651 -0.1886 -0.0477  0.0735
 5342W        W24196   5.209  15.775  10.859 -0.1097  0.3700 -0.0024
 5343W        W24197   9.007   4.851  10.339 -0.1050 -0.2366  0.0770
 5344W        W24198   9.040  13.053  10.841 -0.2442 -0.1541  0.0928
 5345W        W24199  10.908  11.310  13.304 -0.0125 -0.0993  0.1467
 5346W        W24200   5.114  13.217  12.296 -0.2411 -0.4166 -0.0098
 5347W        W24201   7.959   7.234  13.905 -0.3066  0.1626  0.1918
 5348W        W24202  12.959  12.755  12.614  0.1762 -0.2148 -0.1287
 5349W        W24203   9.356   5.204  13.307  0.1717 -0.0519 -0.2944
 5350W        W24204   6.123   4.759  14.112  0.1281 -0.1893  0.0991
 5351W        W24205  15.036   9.309   1.478  0.1766  0.1551 -0.1201
 5352W        W24206   6.622  10.504  14.187 -0.0354  0.2594 -0.1359
 5353W        W24207   7.120  14.369  11.984  0.3441 -0.0611  0.0939
 5354W        W24208   2.849   5.540   3.712  0.0574  0.1913  0.0855
 5355W        W24209   3.951   8.462   2.002 -0.1131 -0.0370 -0.1533
 5356W        W24210   3.287   5.173  12.018  0.2053 -0.0723 -0.2415
 5357W        W24211   7.707   0.421   2.238 -0.1411 -0.0127 -0.0283
 5358W        W24212   1.996   0.693  13.182  0.0596  0.2166 -0.1584
 5359W        W24213   8.398   5.277  13.462 -0.0843 -0.0545  0.4730
 5360W        W24214   3.845  11.942   2.729 -0.0686  0.1342 -0.0394
 5361W        W24215  15.692  15.740   1.676 -0.1077  0.1074  0.0266
 5362W        W24216  16.310  13.837  11.366  0.0469  0.2906  0.0500
 5363W        W24217  12.977   7.248   0.737  0.1157  0.3101  0.0221
 5364W        W24218  17.670   6.085  10.447  0.3782 -0.0538  0.0449
 5365W        W24219   5.462  18.259  12.851 -0.1342 -0.2128  0.1625
 5366W        W24220  18.153  13.324  13.536  0.1545  0.0867 -0.3340
 5367W        W24221   4.643  16.895   4.442  0.0992  0.3453 -0.0489
 5368W        W24222  16.985   5.787  11.216  0.0552  0.0710  0.1034
 5369W        W24223  11.631  13.412   3.219 -0.1872  0.1196 -0.1797
 5370W        W24224   7.743  18.805  10.225 -0.1945 -0.0073 -0.0417
 5371W        W24225  11.611   5.067   1.878 -0.0183  0.0787  0.0110
 5372W        W24226  10.889  15.544   3.839 -0.0132 -0.2374  0.4105
 5373W        W24227  18.120  14.979  12.838  0.3078 -0.1438  0.3133
 5374W        W24228   3.095  11.194  10.429 -0.3734 -0.1415 -0.0254
 5375W        W24229  10.680   3.329   2.776  0.1896 -0.1209  0.2069
 5376W        W24230   2.559  11.768  13.901 -0.3136  0.1184  0.0630
 5377W        W24231  13.893   0.094  13.386 -0.2109 -0.3561 -0.3078
 5378W        W24232  10.978  17.615  13.473  0.0092  0.1890 -0.1578
 5379W        W24233   4.916  11.229   3.027  0.0575  0.2301 -0.3268
 5380W        W24234  10.367   3.596   2.452  0.3855  0.0332  0.0314
 5381W        W24235   6.117   7.493   1.161  0.0156  0.1840  0.2142
 5382W        W24236  15.653   3.411   0.586 -0.3268 -0.0312  0.2243
 5383W        W24237   5.209  18.819   2.266 -0.2086 -0.2615 -0.1963
 5384W        W24238   5.209   2.615   2.869 -0.4231  0.0926 -0.2438
 5385W        W24239  13.331  18.875  11.067  0.3464 -0.3883 -0.2877
 5386W        W24240  16.127   8.610  12.390  0.1241  0.1066 -0.1410
 5387W        W24241  16.977  16.718  10.934  0.2315  0.0389 -0.2036
 5388W        W24242   6.105   6.894   3.082  0.1755 -0.0520  0.0023
 5389W        W24243  17.056  12.467  10.807 -0.2434 -0.1185  0.2973
 5390W        W24244  14.253  12.728   2.414  0.1069 -0.0178 -0.1496
 5391W        W24245  14.500   1.703  13.834 -0.2545 -0.1668  0.1434
 5392W        W24246   3.119  15.657   0.954  0.0216  0.2130 -0.0394
 5393W        W24247  13.721  17.019  10.830 -0.2759  0.0545 -0.2366
 5394W        W24248  13.573   8.207  11.341  0.3673 -0.0347  0.0939
 5395W        W24249  18.078  16.696  13.069 -0.0204  0.1226 -0.1039
 5396W        W24250   4.999   4.972  10.974  0.3457  0.1397 -0.2736
 5397W        W24251  13.590  15.782   1.510 -0.0010  0.0815  0.0743
 5398W        W24252   2.740  10.404   3.945  0.0866  0.0525 -0.0502
 5399W        W24253  17.167   8.113   2.085 -0.1540 -0.0709 -0.0923
 5400W        W24254   4.048   2.704   4.089 -0.0324  0.2750  0.2238
 5401W        W24255  12.116  13.964  14.354 -0.1036 -0.3222 -0.0179
 5402W        W24256  14.424   7.859   0.348  0.1009  0.3268  0.1902
 5403W        W24257  15.526  14.593   0.870  0.0021 -0.3571  0.0519
 5404W        W24258   0.957  11.239   3.096  0.0378 -0.0222 -0.0289
 5405W        W24259  11.304  19.191  10.690 -0.0175  0.0344 -0.1346
 5406W        W24260   5.996  13.675  11.980  0.0560  0.0631  0.0866
 5407W        W24261  12.367  18.342   3.293 -0.2710 -0.1434  0.1381
 5408W        W24262   8.531   9.570  10.461  0.2017 -0.4242  0.0410
 5409W        W24263   7.442   0.682   1.314  0.1236 -0.2296  0.1098
 5410W        W24264   8.257  12.079  10.808  0.1075  0.2358 -0.3882
 5411W        W24265  11.876  18.455   3.435  0.2660 -0.0292  0.2145
 5412W        W24266   8.327  12.242   2.646 -0.0403  0.0421  0.0072
 5413W        W24267  14.980  11.071  11.077  0.0819 -0.1792 -0.2852
 5414W        W24268  14.175   9.627  11.011  0.0951  0.1616 -0.0257
 5415W        W24269  19.190   6.579  11.788  0.1980  0.0937 -0.0634
 5416W        W24270  17.787  12.979   9.960 -0.1453 -0.0470  0.1946
 5417W        W24271  12.345  12.393  14.321 -0.0724  0.0267  0.0408
 5418W        W24272  15.006  16.302   3.298  0.1682 -0.1900  0.1125
 5419W        W24273  18.441  12.725  12.011 -0.3406  0.0304  0.0993
 5420W        W24274   6.309  11.733   1.422 -0.0528  0.2708  0.1082
 5421W        W24275   6.837   7.287  11.116 -0.1973  0.3336  0.0690
 5422W        W24276   4.072   7.331   2.630 -0.2898  0.2890 -0.2400
 5423W        W24277   1.706  10.821   1.383 -0.0082 -0.2418  0.2006
 5424W        W24278   8.856  11.730  14.134  0.3342 -0.0222 -0.1758
 5425W        W24279   0.813  17.665  14.626  0.1828 -0.2441  0.2677
 5426W        W24280  14.727   4.615   0.724  0.1631  0.0627 -0.4729
 5427W        W24281  15.890  15.206  13.944  0.3935  0.1467  0.1767
 5428W        W24282   9.599   0.365   3.573  0.1479 -0.0587 -0.3027
 5429W        W24283  12.329  16.467  11.773 -0.0400 -0.1486 -0.0623
 5430W        W24284  11.782   3.599  12.320  0.0770  0.1273 -0.1981
 5431W        W24285   9.524  17.650  12.049  0.1155  0.0361 -0.0829
 5432W        W24286   9.308   3.553  12.964  0.1209 -0.0850  0.1996
 5433W        W24287  14.506   0.408  14.581  0.0756 -0.0230 -0.0882
 5434W        W24288  16.203   7.760  10.629  0.0635  0.1008  0.0975
 5435W        W24289   7.113  14.145   5.354 -0.1371  0.1221  0.1287
 5436W        W24290   2.690  15.310   0.647 -0.1649  0.3323  0.1218
 5437W        W24291  17.389  12.324   1.861 -0.2127  0.2187  0.1854
 5438W        W24292  12.556   6.161   1.316  0.4363 -0.3018  0.3478
 5439W        W24293   2.514  14.330  12.422  0.2324 -0.3136  0.2790
 5440W        W24294   0.487  12.325   2.102 -0.3195  0.0895 -0.0963
 5441W        W24295   5.291   8.716  14.363 -0.0729  0.3078  0.0785
 5442W        W24296   6.954   6.574  12.825  0.1483  0.0160  0.0392
 5443W        W24297   6.393  12.786   2.873 -0.0199 -0.2117  0.2037
 5444W        W24298  11.196  11.254  10.434  0.1242  0.2348  0.0594
 5445W        W24299   2.789  17.912   1.237  0.2001 -0.0805  0.3783
 5446W        W24300   8.197   9.539  13.717  0.2113 -0.1080  0.2087
 5447W        W24301   0.528   4.940  11.565  0.2664  0.1353 -0.3972
 5448W        W24302   2.714   2.280   3.967  0.0362  0.1445 -0.2569
 5449W        W24303   0.144  17.929  13.460  0.0580  0.1372  0.2935
 5450W        W24304  11.618   1.767   0.196  0.0226 -0.0654  0.0057
 5451W        W24305  17.362  15.092   1.101 -0.2671  0.1567  0.2575
 5452W        W24306   8.662  19.141   3.251  0.1610 -0.0116  0.1389
 5453W        W24307   8.799   3.933   2.504  0.1813  0.0445 -0.3792
 5454W        W24308  18.700   4.561   3.147  0.0645 -0.2035  0.1877
 5455W        W24309  14.785   1.834   3.496 -0.0610 -0.0380 -0.0061
 5456W        W24310  11.281  16.087   1.856 -0.0736 -0.2337  0.1387
 5457W        W24311   4.708  13.695   0.607  0.0991  0.1623 -0.1743
 5458W        W24312  12.656  16.936  11.746  0.1982 -0.0931  0.1509
 5459W        W24313  11.956   7.293   2.145 -0.2329  0.0136  0.1124
 5460W        W24314  16.891   7.162  12.049 -0.3263 -0.1738  0.0704
 5461W        W24315   2.870  10.468  12.550  0.2440 -0.2858  0.0835
 5462W        W24316  13.849   7.899  10.692  0.0116  0.1840 -0.0388
 5463W        W24317   3.303   6.058   0.519  0.3803 -0.2768 -0.0492
 5464W        W24318  13.806   9.341   4.771  0.0233 -0.1163 -0.0090
 5465W        W24319  18.393  12.284  14.155 -0.1602 -0.1015  0.1493
 5466W        W24320   7.795  16.436   1.832 -0.4328  0.0903 -0.0795
 5467W        W24321   1.792   9.101   1.027  0.2139  0.2389  0.2219
 5468W        W24322   7.120  15.444  11.266  0.1449 -0.0509 -0.2737
 5469W        W24323   3.779  11.772  14.232 -0.1722  0.0848 -0.1965
 5470W        W24324   5.039   5.462  12.935 -0.2600  0.1553 -0.1142
 5471W        W24325   6.031  11.373   1.644  0.1932  0.3108  0.3409
 5472W        W24326   2.408  10.309   5.244 -0.0309 -0.0795  0.0195
 5473W        W24327   9.337  14.716   3.600 -0.0166  0.1228  0.0724
 5474W        W24328   9.861   1.005  13.655 -0.1000 -0.2831  0.0489
 5475W        W24329   9.025  16.675   4.312 -0.1405 -0.2117 -0.0023
 5476W        W24330   3.650   8.489  13.917  0.0839  0.0287  0.2292
 5477W        W24331   0.694  18.438   4.489  0.0066 -0.1276  0.0662
 5478W        W24332  12.107   6.910   1.576 -0.0663 -0.0747 -0.0207
 5479W        W24333   9.664   9.716  10.805 -0.2663 -0.0156 -0.2458
 5480W        W24334  12.721  16.781  13.748  0.2997  0.2263  0.0372
 5481W        W24335   7.933   8.110  11.850 -0.0429 -0.0883  0.4082
 5482W        W24336  17.498   6.086   0.372  0.0541  0.3333  0.0640
 5483W        W24337  17.573  10.950  12.763 -0.3053 -0.1614 -0.0503
 5484W        W24338   1.400   6.720  13.941  0.1048 -0.3564 -0.0703
 5485W        W24339   0.068   9.688  13.069 -0.0381  0.0760  0.1477
 5486W        W24340  12.816   2.323  14.218  0.0323 -0.1233 -0.0673
 5487W        W24341  15.299   7.623  14.627 -0.2535 -0.1667 -0.1697
 5488W        W24342   4.572  12.531   0.262 -0.1115 -0.1289  0.0583
 5489W        W24343  16.282  10.985   0.461  0.3029 -0.0665  0.0573
 5490W        W24344  13.959  17.393  11.058  0.0358  0.0837  0.0552
 5491W        W24345   7.270  10.059   1.607 -0.0019 -0.1476 -0.1624
 5492W        W24346  18.537  17.424   0.225  0.2223  0.0642  0.0258
 5493W        W24347  11.177  15.313   9.700 -0.2732  0.4430 -0.1242
 5494W        W24348   4.788  10.873   0.736 -0.3692  0.4194  0.1550
 5495W        W24349   5.080   7.316  13.252  0.0870 -0.1024 -0.0976
 5496W        W24350   5.960  17.361   2.653 -0.1892 -0.0750 -0.1658
 5497W        W24351   7.923  12.676  10.177 -0.3174 -0.1360 -0.0673
 5498W        W24352  16.414   9.737  12.351 -0.0350 -0.0620  0.2082
 5499W        W24353   4.791   1.780  12.129 -0.0460  0.3799  0.1796
 5500W        W24354   8.252  14.257  14.307  0.0009 -0.1711 -0.1703
 5501W        W24355  13.001  10.952   0.788  0.0681 -0.1903 -0.1370
 5502W        W24356  16.721   2.464   3.802 -0.1267 -0.2095  0.2575
 5503W        W24357  13.975   9.957  12.833 -0.1768  0.0112 -0.1190
 5504W        W24358  14.697  11.929   0.946 -0.1050 -0.0339  0.0272
 5505W        W24359  12.788  12.178  14.619  0.0895 -0.3538 -0.2297
 5506W        W24360  14.984  11.826  14.694 -0.1601 -0.1633 -0.3698
 5507W        W24361  12.346   9.314  10.324  0.0722  0.3098  0.0556
 5508W        W24362   6.724  10.282  11.617  0.0535 -0.0922  0.2726
 5509W        W24363  16.157   3.314  13.146  0.1987 -0.0069  0.0523
 5510W        W24364  10.329   6.804   1.688  0.4402 -0.1545 -0.0866
 5511W        W24365   9.389  18.166  11.799  0.1253  0.3408 -0.0486
 5512W        W24366   8.026   7.806   2.892  0.0683 -0.0618 -0.1325
 5513W        W24367  10.994   7.958  12.197  0.1086  0.2814  0.2350
 5514W        W24368   7.925  13.213  12.946  0.0594 -0.1712  0.0013
 5515W        W24369  11.644   5.293  13.609 -0.2424  0.0397  0.0259
 5516W        W24370  12.307   3.221  10.947 -0.1870  0.0190 -0.2998
 5517W        W24371  11.311  10.897  10.805 -0.0064 -0.1229 -0.3774
 5518W        W24372   6.883   9.117   0.180 -0.1817 -0.1735  0.0810
 5519W        W24373   1.529  12.604  10.195  0.1762  0.0754 -0.0953
 5520W        W24374  11.721  15.660  12.840  0.1568 -0.1954  0.0717
 5521W        W24375   7.057  18.143  13.540  0.2318  0.2626  0.1516
 5522W        W24376  13.087   8.388  12.222  0.0439  0.3426  0.3124
 5523W        W24377   3.384   7.968   3.085 -0.0969  0.0964 -0.0845
 5524W        W24378   2.988   0.852   3.762 -0.2486  0.1536  0.2093
 5525W        W24379  16.025   7.634  13.608  0.1511 -0.1736  0.0519
 5526W        W24380   3.762  15.591   3.017 -0.0990  0.1579 -0.2293
 5527W        W24381  12.600  14.003   2.151 -0.1286  0.3695  0.0037
 5528W        W24382   2.043  19.154   3.022 -0.1476 -0.1195  0.0994
 5529W        W24383   6.844  16.598   2.706  0.0201 -0.0602 -0.0263
 5530W        W24384   9.565  11.662  12.602 -0.1347  0.1083 -0.2610
 5531W        W24385   0.278   3.396   3.990 -0.0214 -0.0226 -0.2049
 5532W        W24386  10.478  12.181   2.947  0.0728 -0.0868  0.1352
 5533W        W24387  13.689   9.080   1.174  0.3372 -0.3590 -0.1298
 5534W        W24388  16.684   9.421  10.817  0.0545 -0.0057 -0.1487
 5535W        W24389   2.840   9.737  11.519  0.0066 -0.1524  0.0347
 5536W        W24390   2.267   8.575  10.753 -0.1643  0.0788 -0.0460
 5537W        W24391   4.088   8.012  13.340  0.4543  0.1412 -0.1704
 5538W        W24392  16.773  11.325   2.013 -0.3743  0.2070  0.1012
 5539W        W24393   0.993   8.641   1.514 -0.0695 -0.1394 -0.2011
 5540W        W24394  13.653   4.185  12.735 -0.3044 -0.0183 -0.0270
 5541W        W24395  17.339  16.443   3.454  0.2295 -0.2011 -0.2823
 5542W        W24396   2.491   6.474   2.191  0.1674  0.1479  0.0554
 5543W        W24397   0.797   3.883   1.077  0.0200 -0.1906 -0.0760
 5544W        W24398   2.465  15.688   2.638  0.0355  0.2178 -0.0384
 5545W        W24399   2.821   8.457   0.787  0.0579 -0.1569 -0.1566
 5546W        W24400  15.532   6.450   1.561  0.1708  0.1224 -0.2661
 5547W        W24401  13.606  18.525   3.972  0.1549  0.0117  0.4397
 5548W        W24402   0.580   1.156  12.207 -0.2613  0.2501 -0.1484
 5549W        W24403  15.874   0.480   2.244  0.2181 -0.1539  0.2195
 5550W        W24404  16.364  17.546  13.461 -0.0224  0.0211 -0.5061
 5551W        W24405  12.796   1.619   4.235 -0.0902 -0.1939 -0.0262
 5552W        W24406   7.790   4.853   3.903 -0.1526 -0.0706  0.0072
 5553W        W24407  11.673   7.567   4.079 -0.0871  0.0789 -0.2539
 5554W        W24408  17.871   5.954   1.491  0.2158  0.2602  0.0950
 5555W        W24409  19.173  17.040  12.272 -0.1699  0.0908 -0.0383
 5556W        W24410   5.233   2.801   4.045 -0.0546  0.2219  0.1939
 5557W        W24411   6.242  13.865   3.939 -0.0624 -0.0834  0.2613
 5558W        W24412   9.920  11.545  10.517  0.2934  0.0712 -0.1758
 5559W        W24413  13.713  13.194   3.330  0.0425  0.2758  0.0472
 5560W        W24414  12.589   6.347  14.577 -0.1660 -0.1526 -0.1909
 5561W        W24415   4.691  10.820   2.841 -0.1068  0.0857  0.1422
 5562W        W24416   3.533   3.313   2.651  0.2150  0.3505  0.0729
 5563W        W24417   4.971   2.998  12.615  0.0333  0.2476  0.1230
 5564W        W24418  15.987  14.310   0.885  0.0477  0.3226 -0.2763
 5565W        W24419  16.585  15.848  11.151  0.2538  0.2399  0.3047
 5566W        W24420  18.676   9.169   2.216  0.1909 -0.1530 -0.0650
 5567W        W24421   1.276  13.323  13.782  0.0814 -0.0951 -0.1449
 5568W        W24422   3.615   8.845   0.542 -0.0938 -0.0838 -0.0514
 5569W        W24423   0.773   0.313   0.983 -0.1175  0.1298 -0.1546
 5570W        W24424   9.753   0.296  11.705  0.3231  0.2548  0.4382
 5571W        W24425   9.474  17.953   3.731 -0.0057  0.1450  0.0673
 5572W        W24426  14.505   1.631   5.229  0.0134 -0.0013 -0.0512
 5573W        W24427   7.978  12.651   5.219 -0.0057 -0.2145 -0.1463
 5574W        W24428   5.758   0.574   1.128  0.2163  0.2431 -0.2653
 5575W        W24429  10.544   2.447  14.461 -0.4617  0.0666 -0.1084
 5576W        W24430   1.082   6.472   2.479 -0.0283  0.0590  0.1076
 5577W        W24431   5.833   1.831  10.857 -0.0722  0.0509 -0.0168
 5578W        W24432  11.267  16.592   2.030  0.2544  0.2535 -0.0346
 5579W        W24433  13.923   1.700  14.511 -0.2114  0.1772 -0.2834
 5580W        W24434  12.042  18.011   3.119 -0.0372 -0.3312  0.0431
 5581W        W24435  19.167  18.714   1.089 -0.4680 -0.0374  0.1033
 5582W        W24436   4.148   3.952  11.992 -0.0344 -0.0161  0.1985
 5583W        W24437  12.624   1.870   0.079  0.3197  0.1403 -0.3105
 5584W        W24438   8.955   8.449  11.319  0.1910 -0.2527  0.3710
 5585W        W24439  18.194   0.701   0.121  0.1745  0.2912  0.0737
 5586W        W24440  14.155   7.606  14.018 -0.1326  0.0101  0.2756
 5587W        W24441   2.889  13.054  13.150  0.0879 -0.0426  0.0543
 5588W        W24442   7.558   1.306   2.445  0.0479  0.3292 -0.3452
 5589W        W24443   5.492   9.918   3.017 -0.2381 -0.0168  0.0797
 5590W        W24444  12.737   6.698  13.499 -0.3287 -0.0191  0.2587
 5591W        W24445   1.659  12.664   3.422 -0.0556  0.1373 -0.1861
 5592W        W24446  18.871   3.211   1.311 -0.3580 -0.1059 -0.3745
 5593W        W24447   2.354  18.308  13.038  0.2967  0.0448 -0.1519
 5594W        W24448  16.712   5.029   3.168 -0.0498 -0.1153  0.0022
 5595W        W24449  16.724   3.843   4.361 -0.1428 -0.0353 -0.0788
 5596W        W24450   5.986  14.241   2.902  0.1763 -0.0931 -0.1627
 5597W        W24451   6.149   1.002  11.710 -0.1232  0.0040  0.1486
 5598W        W24452   4.808  10.672  11.602  0.1545 -0.2314 -0.1625
 5599W        W24453  12.740   9.792  13.030 -0.0917  0.1363 -0.0570
 5600W        W24454  11.525  14.763   3.358 -0.0282  0.2389 -0.4614
 5601W        W24455  18.461   8.364   1.716  0.1446  0.0435 -0.3879
 5602W        W24456   0.616  14.360   0.481  0.1610  0.0344 -0.0621
 5603W        W24457  10.989   4.323  12.936  0.0937  0.3632  0.1560
 5604W        W24458   4.102   9.636   1.092 -0.0354  0.0632 -0.0789
 5605W        W24459   5.731   7.717   1.679 -0.1564 -0.1727  0.0027
 5606W        W24460  16.450   0.789   0.136 -0.2571 -0.0117  0.1702
 5607W        W24461   7.679  14.732   0.202 -0.4189 -0.0489 -0.0084
 5608W        W24462   2.414   7.538   1.158  0.2188 -0.1489  0.3471
 5609W        W24463   7.983   1.311   0.151  0.1237 -0.0540 -0.0700
 5610W        W24464  14.739  10.442   2.780  0.2166 -0.2979  0.0742
 5611W        W24465   4.851   8.689   3.572  0.1309  0.1169  0.1563
 5612W        W24466   0.696  18.832  14.719  0.1129 -0.0361  0.4107
 5613W        W24467   2.305  12.300  11.035  0.0216 -0.1379 -0.1290
 5614W        W24468  16.058   3.018   2.926 -0.2677 -0.3118  0.0345
 5615W        W24469  18.163   4.306  12.811  0.1656 -0.1277 -0.1371
 5616W        W24470   2.258   9.166  12.884 -0.1850  0.0034 -0.1463
 5617W        W24471  16.525  13.935   0.047 -0.1096  0.1189 -0.0779
 5618W        W24472  12.241  15.699  11.147  0.0168 -0.2939  0.0294
 5619W        W24473   6.142  10.215  13.474  0.2207 -0.1087 -0.2605
 5620W        W24474  13.613   8.200   0.056 -0.0705  0.0064 -0.1782
 5621W        W24475   2.439   3.337  11.826  0.0283 -0.3072 -0.2278
 5622W        W24476   7.589   2.952   2.869 -0.2060 -0.0771 -0.1276
 5623W        W24477   3.254   3.492  14.411 -0.1974  0.0323  0.3318
 5624W        W24478   5.279  18.190  13.579  0.0090 -0.1924  0.0148
 5625W        W24479  11.071  11.105  11.194  0.0565  0.0450 -0.1467
 5626W        W24480  13.215  12.067   3.396  0.0951 -0.0627 -0.2438
 5627W        W24481   2.438  17.672   4.007  0.1467  0.1331 -0.0596
 5628W        W24482   7.063   1.512   1.210 -0.1832 -0.3140 -0.0850
 5629W        W24483  16.886   4.228  12.515 -0.1370 -0.1894 -0.2886
 5630W        W24484   5.220   6.762   0.675  0.0200 -0.0754  0.0432
 5631W        W24485  16.239  18.097  14.246  0.0133  0.0700  0.1644
 5632W        W24486  13.428   1.313   1.689 -0.1567  0.0017 -0.0297
 5633W        W24487   5.305   9.016   3.550  0.0115 -0.0045 -0.1831
 5634W        W24488  15.864  13.715   3.381 -0.1816  0.0483 -0.2653
 5635W        W24489   2.523  18.869  14.721  0.3633 -0.1107  0.2021
 5636W        W24490   7.654  16.412   2.346 -0.0113 -0.2181  0.0614
 5637W        W24491  16.398   6.308   2.645  0.2138 -0.2439  0.0513
 5638W        W24492   8.381  12.054  13.181 -0.1066 -0.2098 -0.1071
 5639W        W24493  11.354  18.662  12.736  0.1732 -0.2974  0.0721
 5640W        W24494   9.534   9.505  12.533 -0.2035  0.2965 -0.3935
 5641W        W24495   9.147   4.002  13.177 -0.0841  0.2311  0.1728
 5642W        W24496   2.974  11.330  12.644 -0.3428 -0.1499 -0.2061
 5643W        W24497  16.149  18.485  12.908  0.1170  0.0125  0.2853
 5644W        W24498  17.716  18.030   0.648  0.2603 -0.2039 -0.1567
 5645W        W24499  18.422  15.386   3.525  0.0329  0.0432  0.0187
 5646W        W24500  14.316  10.935  12.530  0.0742  0.0441  0.1124
 5647W        W24501   0.141  17.077  11.141 -0.1661  0.3266  0.3928
 5648W        W24502   5.917  11.968  14.293 -0.1276  0.0719  0.0769
 5649W        W24503  12.359   1.856  12.983 -0.2143  0.0951  0.1515
 5650W        W24504  18.898   5.565   3.697  0.2795  0.0099 -0.3125
 5651W        W24505  15.486  17.698  13.064 -0.0567 -0.0231 -0.1520
 5652W        W24506   9.001   0.136   0.677  0.0508 -0.2943  0.2670
 5653W        W24507  18.480   7.247   3.116 -0.1167  0.2713 -0.2417
 5654W        W24508  15.792  12.615   4.172 -0.1859  0.0743 -0.3260
 5655W        W24509   6.686  13.735   3.200  0.0508  0.3510  0.2113
 5656W        W24510   7.631   8.629   3.841  0.0163 -0.2046  0.2608
 5657W        W24511   0.456  17.460   4.551 -0.0296 -0.2547  0.0583
 5658W        W24512  11.692  17.767   2.796  0.2771 -0.1324  0.0626
 5659W        W24513   3.718  12.980  13.391 -0.1629 -0.0377  0.1652
 5660W        W24514   5.239   6.276  10.367  0.1637 -0.1117 -0.0093
 5661W        W24515   7.191   4.117  11.862  0.2300 -0.1608 -0.0526
 5662W        W24516   7.406   8.209   4.050  0.1304  0.0552  0.1673
 5663W        W24517  18.647   0.332   9.516  0.0863 -0.2264 -0.1240
 5664W        W24518   6.080   0.772   4.305 -0.0431  0.0041  0.0159
 5665W        W24519  12.358  18.088   2.240 -0.0410  0.1749 -0.2116
 5666W        W24520  14.123   3.425  14.284 -0.0005  0.1072 -0.1120
 5667W        W24521   0.286   0.335   0.467  0.0451  0.3256  0.2846
 5668W        W24522  17.608   2.106   0.759  0.0900 -0.0230 -0.4267
 5669W        W24523  14.395  16.155  14.467 -0.3532  0.0956 -0.2258
 5670W        W24524   2.940   2.640   3.717 -0.0307  0.3219  0.0160
 5671W        W24525   6.383  11.592  10.523 -0.0635 -0.0339 -0.1380
 5672W        W24526   9.999  12.788  14.513  0.0761  0.1059  0.0088
 5673W        W24527  10.056   2.509  14.320 -0.1084 -0.2779 -0.0691
 5674W        W24528  10.417  14.249  10.140  0.2057 -0.0593  0.1432
 5675W        W24529   5.656   9.668  10.358 -0.0474 -0.1871 -0.0322
 5676W        W24530  10.418  10.367   9.795 -0.1500  0.1457 -0.1588
 5677W        W24531  13.124   1.201  12.534  0.0835 -0.0482 -0.0306
 5678W        W24532   5.959   8.574   3.158  0.1467 -0.0728 -0.2562
 5679W        W24533  17.143  12.669  11.639  0.3474  0.0286 -0.2899
 5680W        W24534  12.541  14.821   4.337 -0.2099 -0.0242  0.5704
 5681W        W24535   8.063  14.566   2.891 -0.1374 -0.3609 -0.2145
 5682W        W24536   2.484  17.029   3.215 -0.0981  0.2824  0.4953
 5683W        W24537   7.034   0.055  12.636 -0.2534 -0.1938  0.1229
 5684W        W24538  13.678  14.512   2.582  0.2632 -0.0218  0.2726
 5685W        W24539   7.864   6.569   2.390  0.0959  0.1888  0.3495
 5686W        W24540  11.311  11.977  12.254 -0.0597 -0.1549  0.0819
 5687W        W24541   9.258  17.922  10.781 -0.2744 -0.1077  0.2196
 5688W        W24542  14.537   8.033  10.433  0.3024  0.2577 -0.2359
 5689W        W24543   0.852   1.362   5.077 -0.0102 -0.1979  0.2053
 5690W        W24544  18.875  17.929  13.224  0.2711  0.0555  0.1127
 5691W        W24545   7.634  15.268  13.850 -0.1118  0.0375 -0.0175
 5692W        W24546  16.136   5.096  10.309  0.2558 -0.1341  0.0154
 5693W        W24547  10.425  11.998  12.212  0.0417  0.1272  0.2768
 5694W        W24548  15.923   7.139   9.682 -0.0454 -0.1485 -0.0903
 5695W        W24549  14.121  11.365  12.640 -0.0650  0.3078  0.1529
 5696W        W24550  10.524  10.962  13.225 -0.1038 -0.1394  0.0224
 5697W        W24551   2.643   7.850   3.948 -0.3729 -0.0964 -0.1312
 5698W        W24552   0.740   0.849   1.076 -0.0300 -0.1084 -0.1487
 5699W        W24553  12.418  16.313  14.280  0.2436  0.2223  0.2289
 5700W        W24554   2.938   6.014   3.498  0.1886 -0.0791  0.3422
 5701W        W24555   4.100   6.188   9.362 -0.0332  0.2628 -0.1542
 5702W        W24556  10.573   1.766  12.983  0.1681 -0.1951  0.3503
 5703W        W24557  16.307  12.004  14.712 -0.1135 -0.0813  0.1675
 5704W        W24558   7.433   9.380   2.160  0.1575 -0.0316  0.1663
 5705W        W24559   9.187   4.040  10.886 -0.4853 -0.0967 -0.2181
 5706W        W24560   0.460  10.164  10.908 -0.0649 -0.0693 -0.1405
 5707W        W24561   6.205   2.961  11.575  0.1558  0.1024  0.0156
 5708W        W24562  18.463  11.016   1.530 -0.1557  0.0987  0.1067
 5709W        W24563   1.518   1.279  13.676  0.2496  0.1025 -0.0766
 5710W        W24564  12.202   8.587   3.485 -0.0000  0.4140  0.0542
 5711W        W24565  11.077   8.164  11.299 -0.1087  0.3854 -0.3433
 5712W        W24566  10.690  11.683   2.639 -0.0310 -0.0032  0.0121
 5713W        W24567   4.786  17.860   2.955  0.1254  0.0854 -0.4677
 5714W        W24568   3.752   0.102  11.956 -0.0143  0.1151  0.0428
 5715W        W24569   7.277  11.638  11.113  0.0668 -0.0414 -0.4054
 5716W        W24570   0.767   1.279   1.979  0.3904 -0.1523  0.2189
 5717W        W24571   0.647   4.409   3.124  0.1551  0.1877 -0.0452
 5718W        W24572  13.938  18.716   1.616  0.0285  0.0416 -0.0122
 5719W        W24573   4.215   1.805  11.271 -0.1157 -0.1511  0.0377
 5720W        W24574  18.981   7.052  11.625  0.5860 -0.0582 -0.1207
 5721W        W24575   3.868  16.532   3.324 -0.1734  0.0906  0.1738
 5722W        W24576   8.136  13.419   1.665 -0.0753  0.4433  0.1168
 5723W        W24577   5.476  13.882  12.076  0.1014  0.1425 -0.1047
 5724W        W24578  18.464   1.915   9.707 -0.1461  0.0472 -0.3439
 5725W        W24579   8.934   3.559  14.657  0.2400 -0.4739 -0.3513
 5726W        W24580  11.397  17.678   4.466 -0.1155 -0.1386  0.0253
 5727W        W24581  12.494   4.025  10.760  0.0227  0.2522 -0.2059
 5728W        W24582  16.967  17.849   4.312  0.1621  0.0931 -0.3260
 5729W        W24583   7.235   9.590  14.689  0.0906 -0.0793  0.0351
 5730W        W24584   9.839  12.916   1.240 -0.3074  0.1259 -0.0603
 5731W        W24585   1.709   8.737  14.645 -0.2265  0.1767 -0.0091
 5732W        W24586   7.986  13.569   2.219  0.3597 -0.1103  0.2274
 5733W        W24587   2.856  11.336   1.232 -0.1677 -0.1318 -0.3043
 5734W        W24588  10.018   6.547  11.462 -0.2495 -0.2006 -0.4427
 5735W        W24589  18.683  12.844  12.386 -0.1061 -0.0353 -0.1734
 5736W        W24590  19.060   7.385  13.049  0.1257 -0.1557  0.0640
 5737W        W24591  10.664   5.340   2.705 -0.0068  0.0863 -0.1912
 5738W        W24592  14.621   4.849   3.101 -0.3418  0.0808 -0.2256
 5739W        W24593  10.673   1.694   0.530  0.0094 -0.3469 -0.0215
 5740W        W24594   7.200  18.176   3.229  0.1764  0.1838  0.1984
 5741W        W24595  10.645  17.248  14.121 -0.3004  0.2167  0.1510
 5742W        W24596   8.496  19.108   1.638  0.0582  0.3138 -0.0062
 5743W        W24597  12.010   2.780   4.075 -0.1898 -0.2353 -0.0269
 5744W        W24598   6.641  13.647   3.773 -0.0341 -0.3015 -0.1557
 5745W        W24599  11.810  14.481   3.821 -0.1552  0.1404  0.2360
 5746W        W24600  14.631   1.702   1.643  0.1949 -0.0196  0.2511
 5747W        W24601   7.273   4.795   3.708  0.0128 -0.1766 -0.2982
 5748W        W24602  16.077   6.139  11.155  0.0053  0.0753 -0.0772
 5749W        W24603   0.249  12.250   0.565 -0.2465 -0.0262 -0.0660
 5750W        W24604   7.000   8.374  11.796  0.1789 -0.1642  0.2336
 5751W        W24605   1.454   7.996   0.580  0.1511 -0.0520 -0.1542
 5752W        W24606   7.254  11.860   0.043 -0.1743  0.1361 -0.0400
 5753W        W24607   7.852  11.653  10.406 -0.0070 -0.1845 -0.2317
 5754W        W24608  16.756  15.689  10.677  0.0708  0.0396 -0.3163
 5755W        W24609   3.532   0.690  11.455 -0.0030 -0.0434 -0.0553
 5756W        W24610   6.120   5.949  12.826 -0.1824 -0.0621 -0.4872
 5757W        W24611   9.576  12.552  13.123  0.0896 -0.1363 -0.1765
 5758W        W24612   3.650  13.272   3.985  0.2253  0.0306 -0.0140
 5759W        W24613   7.952   7.363   3.673  0.0004 -0.1960  0.1543
 5760W        W24614  13.359   8.899  14.612 -0.0212 -0.1438  0.1806
 5761W        W24615   4.040  18.685  14.007  0.1433 -0.1362  0.0808
 5762W        W24616   3.661   8.020   4.765  0.1125  0.2171  0.1984
 5763W        W24617   4.258  15.105   1.823  0.1802  0.2953  0.0960
 5764W        W24618   3.963  15.860  13.718  0.1474  0.3087 -0.1755
 5765W        W24619  12.685  13.958  11.585 -0.1053 -0.1913  0.0338
 5766W        W24620  17.531  16.511  12.489 -0.1011  0.2960  0.1254
 5767W        W24621   4.029   2.573   1.565  0.0636 -0.3223  0.0027
 5768W        W24622  14.831   2.227   1.026  0.0155  0.1662  0.2585
 5769W        W24623   7.948   1.215   4.394  0.0328 -0.3452 -0.5549
 5770W        W24624  10.173  13.641  13.407  0.0497  0.0130  0.1818
 5771W        W24625   0.172  11.232   1.211  0.1159 -0.0575 -0.0592
 5772W        W24626   3.614  14.294  13.062 -0.0409 -0.0748  0.1100
 5773W        W24627  11.278  10.683   1.871 -0.1180  0.2779  0.3455
 5774W        W24628   7.155  11.054   0.301  0.1828  0.0303  0.0328
 5775W        W24629  17.880   3.051   4.893 -0.1314 -0.1391 -0.5304
 5776W        W24630  16.521  11.679   3.047 -0.0050 -0.0326 -0.1946
 5777W        W24631  11.678  15.666   1.518  0.1081 -0.2553  0.3638
 5778W        W24632   2.192  16.274   4.194  0.0607 -0.1262  0.2890
 5779W        W24633  17.587  15.934   4.765 -0.2632  0.0455 -0.0791
 5780W        W24634   2.042   8.850  12.128  0.1103  0.1457  0.1945
 5781W        W24635   7.396  11.540   3.794  0.0718  0.0131  0.3431
 5782W        W24636  14.528   7.383  10.846  0.1077  0.0590 -0.2051
 5783W        W24637  12.112  14.102  10.973  0.1607 -0.3946 -0.1243
 5784W        W24638   3.001   2.549   0.409 -0.1420 -0.3248 -0.1889
 5785W        W24639  17.597   4.808  12.702 -0.1633 -0.3617  0.1102
 5786W        W24640   4.213   8.924  10.982 -0.2209  0.1686 -0.4634
 5787W        W24641  10.020   4.506   2.511  0.0476 -0.1836  0.1007
 5788W        W24642   1.277  13.791  12.868  0.0289 -0.3017  0.2747
 5789W        W24643   1.055   6.707   3.344  0.0156 -0.0826  0.3300
 5790W        W24644   9.406   2.739  13.653 -0.0124  0.0041  0.0555
 5791W        W24645  18.547  12.293  12.654  0.0964  0.3091 -0.2451
 5792W        W24646   5.190  15.538  13.991 -0.0115 -0.0676  0.5051
 5793W        W24647  12.144  10.933  12.971 -0.1537 -0.2489 -0.3224
 5794W        W24648   6.799  17.474  12.249  0.1114 -0.1929  0.3268
 5795W        W24649  18.851  16.229  13.974 -0.1436  0.3383 -0.1751
 5796W        W24650   7.452   9.087  14.241  0.1161  0.0287  0.0501
 5797W        W24651  16.109   1.352  11.186  0.2441  0.2827  0.0858
 5798W        W24652   6.912   1.156   0.819 -0.2482  0.2063  0.1896
 5799W        W24653   0.691   0.593  13.151  0.0878 -0.3987 -0.0488
 5800W        W24654  16.528   6.859  12.889 -0.2608 -0.2221 -0.0264
 5801W        W24655   5.518   7.865   0.766 -0.0873 -0.0111  0.0204
 5802W        W24656   5.615  13.952   1.926 -0.3814  0.0921  0.0510
 5803W        W24657   5.323   6.347   3.144 -0.0815 -0.1239 -0.2298
 5804W        W24658  13.820  18.760  12.706 -0.1824  0.0083 -0.0121
 5805W        W24659   2.329  19.033   3.414  0.0062  0.0115 -0.2374
 5806W        W24660   7.187   6.188   0.856  0.0937 -0.0979 -0.2953
 5807W        W24661   0.994   7.735   0.339 -0.0094  0.0614 -0.0891
 5808W        W24662   1.353  10.059  13.734  0.4298  0.0178  0.1229
 5809W        W24663  14.670   0.698  12.735 -0.0888 -0.1759  0.0250
 5810W        W24664   1.778  11.443  13.006 -0.2626  0.1067 -0.1735
 5811W        W24665   7.066  18.671  13.680 -0.1759 -0.1889  0.0019
 5812W        W24666  18.067   6.417   0.591 -0.0948  0.0454  0.3786
 5813W        W24667  19.091  13.180   1.005  0.0734 -0.1694 -0.0389
 5814W        W24668   4.070  12.387   3.071 -0.1944  0.0062 -0.1041
 5815W        W24669   3.000  15.840   4.471  0.1868  0.0514  0.1874
 5816W        W24670  17.123  16.308   0.101 -0.1890 -0.1389 -0.2780
 5817W        W24671  15.478   5.018   0.961  0.0410  0.2019  0.0458
 5818W        W24672  18.340   1.470   3.337  0.2415 -0.0075 -0.1726
 5819W        W24673   3.356  15.719   4.093 -0.1269  0.3377  0.0769
 5820W        W24674  14.071   4.602   1.769  0.0530 -0.2623  0.1805
 5821W        W24675   0.690   8.332   9.630  0.0981  0.1955 -0.0458
 5822W        W24676   5.190   4.557  13.370  0.0205  0.0470  0.1343
 5823W        W24677  10.540  17.149  11.537 -0.0459  0.4055 -0.0145
 5824W        W24678   9.809  12.156  13.899  0.1133  0.1053  0.0283
 5825W        W24679   6.791  16.135   3.917 -0.1651 -0.4275  0.1120
 5826W        W24680   4.653   6.464   1.338 -0.4352  0.0847  0.1607
 5827W        W24681  11.550   8.942  10.752  0.0033 -0.1638 -0.1200
 5828W        W24682  15.238   5.111  14.635 -0.2896  0.0776 -0.2239
 5829W        W24683   4.414   9.101   2.400 -0.5483  0.0558  0.3434
 5830W        W24684   9.901  19.156   3.399  0.0709  0.0973  0.1997
 5831W        W24685   8.900   6.491   0.391 -0.2328 -0.0560  0.0975
 5832W        W24686  17.051   7.982  12.667  0.3490  0.1455  0.3443
 5833W        W24687   9.697   0.891   3.532 -0.0102  0.0866 -0.0326
 5834W        W24688   6.662   4.367   1.645  0.1991  0.0986 -0.0793
 5835W        W24689   8.676   1.069  12.992 -0.0686 -0.0821 -0.0245
 5836W        W24690  13.144  16.986  13.471 -0.2801 -0.0132 -0.0346
 5837W        W24691   8.436   3.362   1.765  0.0224 -0.3219 -0.0400
 5838W        W24692   2.731   5.005   1.537  0.0008  0.0129 -0.1804
 5839W        W24693   7.823   9.849  10.631  0.2208  0.0116  0.1437
 5840W        W24694   4.974   4.060  11.082 -0.2644  0.1784 -0.1678
 5841W        W24695   7.493   4.593   4.275  0.2055 -0.1144  0.0754
 5842W        W24696   5.179  18.501   5.657  0.2117  0.1633  0.0564
 5843W        W24697   5.161  13.787   0.488 -0.1246 -0.1828  0.3152
 5844W        W24698  16.909   9.014  12.595  0.3697  0.0864  0.0038
 5845W        W24699  16.142   5.719  13.743 -0.1406  0.1654  0.1417
 5846W        W24700  10.288   1.469   3.973  0.0394  0.2131 -0.1378
 5847W        W24701   1.935  12.334  11.416 -0.0345  0.0052  0.3105
 5848W        W24702  12.429   7.192   2.877 -0.3878  0.1188  0.0710
 5849W        W24703  17.302  17.865  13.377 -0.0416  0.0547 -0.2392
 5850W        W24704  14.750   3.565   1.239  0.0139 -0.2191 -0.2331
 5851W        W24705   0.728  18.758   2.056 -0.0762  0.0797  0.1927
 5852W        W24706  11.299   7.165  13.265 -0.1211 -0.2061  0.4934
 5853W        W24707   9.396   0.198   5.461  0.1547 -0.0394 -0.0364
 5854W        W24708  18.943   8.438   1.750 -0.1999 -0.0843 -0.0899
 5855W        W24709   8.130  12.526  14.239 -0.1289  0.0447 -0.4109
 5856W        W24710   9.839   8.273  13.189 -0.0670  0.1991 -0.1412
 5857W        W24711   4.529  13.563   0.002 -0.1455 -0.2302 -0.4146
 5858W        W24712   3.862   5.103  10.339  0.3408 -0.2924  0.0814
 5859W        W24713   6.457  13.555  14.209 -0.3326 -0.0079  0.3458
 5860W        W24714   5.416   5.565  10.628 -0.0489 -0.2416  0.1615
 5861W        W24715  12.187  19.154   4.515  0.2078  0.0222  0.1437
 5862W        W24716   6.860  14.507  12.369  0.1645 -0.2171 -0.1640
 5863W        W24717   6.589   8.823  14.414 -0.2706  0.0733  0.1012
 5864W        W24718   8.239  18.231   2.492 -0.1300 -0.2910  0.0841
 5865W        W24719   4.138   1.341   0.809 -0.0989  0.0324  0.0672
 5866W        W24720  17.187  11.863   3.700  0.4609  0.0592  0.2586
 5867W        W24721  15.087  14.144   2.429 -0.1967  0.0000 -0.3737
 5868W        W24722   0.673   1.996  13.591 -0.0230  0.0552  0.0824
 5869W        W24723  11.487   8.347  12.041  0.5645  0.1934  0.1241
 5870W        W24724  11.369  10.590  11.250 -0.1913  0.2311  0.0901
 5871W        W24725  10.201  15.779  11.016  0.1382  0.1386 -0.0524
 5872W        W24726  11.636  12.829   1.270  0.0222 -0.1630  0.2835
 5873W        W24727   2.327  16.043   1.486  0.2315  0.2981 -0.0089
 5874W        W24728  10.704   0.914  12.302 -0.1670  0.1398 -0.3411
 5875W        W24729  18.510  17.377   2.263 -0.1383  0.3356  0.1790
 5876W        W24730   8.567   9.890  14.458 -0.4504  0.1200 -0.2546
 5877W        W24731  13.989  10.526   4.025  0.1330  0.3309  0.3334
 5878W        W24732   3.731  15.492   0.186 -0.0074  0.1131 -0.0396
 5879W        W24733   5.029  14.022  13.427 -0.0008  0.1568 -0.1540
 5880W        W24734   4.642  17.468  11.703  0.0582 -0.1615  0.0578
 5881W        W24735   5.246  14.361  11.561 -0.1053  0.0320  0.0239
 5882W        W24736  10.379  11.320   2.862  0.0971  0.1079  0.0422
 5883W        W24737  10.023  12.987  11.434  0.0048  0.0291  0.0148
 5884W        W24738  11.310   6.896   0.089  0.0091 -0.2057  0.1761
 5885W        W24739  14.424  18.702   1.558 -0.4016  0.0690  0.0289
 5886W        W24740   7.948   1.767   0.354 -0.2196 -0.1566  0.1393
 5887W        W24741   0.132  16.800   0.759  0.0259  0.2240  0.1651
 5888W        W24742   7.251  13.594  11.353 -0.1240 -0.0459 -0.0704
 5889W        W24743  14.959   9.010   3.304  0.0072  0.4224  0.0294
 5890W        W24744   1.010  11.775   4.155  0.1550  0.0863  0.0906
 5891W        W24745  14.356  12.011  12.341 -0.3415  0.1139 -0.0041
 5892W        W24746  15.020   4.612   3.289 -0.0655  0.1084  0.0692
 5893W        W24747  15.021   0.693  10.453 -0.0988  0.1241 -0.0831
 5894W        W24748   3.758   4.378  11.362 -0.0435  0.2359 -0.1053
 5895W        W24749  12.754   5.294   3.684  0.0088 -0.3055  0.2765
 5896W        W24750   9.649  13.718   5.253  0.0008  0.1672 -0.2127
 5897W        W24751  11.489   9.824  12.557  0.0219 -0.2468  0.1618
 5898W        W24752   4.545   9.322  13.575 -0.0701  0.3406 -0.1095
 5899W        W24753   9.382  13.703   2.301  0.1694 -0.0299  0.0698
 5900W        W24754   6.158   3.201  11.162 -0.0186  0.2663 -0.2296
 5901W        W24755   0.589   5.989  13.872  0.1438 -0.1936  0.2167
 5902W        W24756  11.362  15.952   2.951  0.2961  0.5703  0.1465
 5903W        W24757  14.585  15.369   2.992  0.1896  0.0233  0.2714
 5904W        W24758   7.864   3.961  13.844 -0.0043  0.2773  0.2673
 5905W        W24759   3.568  18.024  11.089  0.0576  0.1810  0.1797
 5906W        W24760  11.434  11.756   2.052  0.1151  0.2216  0.0306
 5907W        W24761  15.832  16.792  11.657 -0.0944 -0.1287 -0.0070
 5908W        W24762   6.437   1.489   1.886  0.2157 -0.1006 -0.0112
 5909W        W24763  13.281   7.298  12.730  0.1639 -0.1423 -0.1240
 5910W        W24764  16.001   3.304   4.723 -0.0189 -0.0167 -0.1747
 5911W        W24765   5.533  16.675  10.762  0.0323 -0.0601 -0.1673
 5912W        W24766  12.169  17.303   4.866  0.0442 -0.1324  0.2761
 5913W        W24767  11.408  12.848   2.489  0.2202 -0.1347 -0.3017
 5914W        W24768   1.451  12.677  11.550  0.0511  0.0015  0.4706
 5915W        W24769  11.836  17.604   1.816 -0.3124 -0.0787 -0.3000
 5916W        W24770  10.097   6.070   2.501 -0.1174  0.1016  0.3230
 5917W        W24771  18.206  17.388   1.458  0.1958 -0.3410  0.1929
 5918W        W24772   7.162  16.224   1.161  0.1702  0.0668  0.2401
 5919W        W24773  14.982  19.154   2.753 -0.1057  0.0208 -0.1081
 5920W        W24774   5.481  17.366   0.436 -0.0156 -0.1041 -0.2344
 5921W        W24775   3.868   7.214  12.854  0.0111  0.1369  0.2435
 5922W        W24776  13.660  17.335  14.173  0.3607 -0.0883 -0.2080
 5923W        W24777   5.579  14.530   4.233  0.0142  0.1652 -0.2292
 5924W        W24778   4.889   5.896  14.595  0.2241  0.0434  0.1179
 5925W        W24779  18.255  15.009   2.641 -0.1849 -0.0927  0.0455
 5926W        W24780  14.471   9.628  14.572 -0.0033 -0.1268 -0.4659
 5927W        W24781  10.737  18.048  11.071 -0.0583 -0.1547  0.0820
 5928W        W24782   0.564  11.898  11.031  0.0770 -0.1787 -0.3905
 5929W        W24783  15.833  14.685   3.390  0.0611  0.1818 -0.0612
 5930W        W24784   6.897  12.519   1.775 -0.0490 -0.1781 -0.0348
 5931W        W24785   4.047  15.627   3.433  0.3700 -0.3296 -0.0229
 5932W        W24786  13.989   2.816  13.125  0.2163  0.0804  0.1902
 5933W        W24787   7.130   9.361  10.371 -0.1638 -0.0225  0.0182
 5934W        W24788   2.127  12.458   2.057 -0.0605  0.0316  0.3078
 5935W        W24789  15.191   6.465  12.917 -0.3871 -0.2814 -0.0144
 5936W        W24790   6.683  12.457   3.651  0.0106  0.1506 -0.0846
 5937W        W24791   6.456  14.779   3.698  0.1806 -0.3171 -0.0595
 5938W        W24792  11.414  15.359  11.543 -0.0954  0.0711 -0.2413
 5939W        W24793  12.481  12.055   1.913  0.4029  0.1472  0.3213
 5940W        W24794   0.166  18.628  13.950 -0.0986  0.3061 -0.2454
 5941W        W24795  11.382   3.834   2.189 -0.1705  0.0541  0.0257
 5942W        W24796   8.718  16.255   2.109  0.3486 -0.1701  0.0482
 5943W        W24797  15.750   3.776  10.528 -0.4123  0.2309 -0.1677
 5944W        W24798  11.363   0.355  12.220  0.0598 -0.0632 -0.2700
 5945W        W24799  18.778   3.775  14.333 -0.0664  0.2486  0.1137
 5946W        W24800  12.921   1.656   2.699 -0.1341 -0.0482  0.0977
 5947W        W24801   4.192   0.427  13.596  0.0386 -0.0969 -0.1929
 5948W        W24802   6.760  12.518  14.475 -0.0124  0.3064  0.0488
 5949W        W24803  18.004   5.255  10.748 -0.1980  0.2072  0.1040
 5950W        W24804   6.532  14.326  12.952 -0.0583  0.1648 -0.1009
 5951W        W24805   3.485  17.555   9.791 -0.1225  0.2572  0.2152
 5952W        W24806  13.926   7.943  12.665 -0.1895  0.1064 -0.0181
 5953W        W24807  15.991  16.061  13.730  0.4482 -0.0467  0.0495
 5954W        W24808   1.980  17.759  12.277  0.0301 -0.3379 -0.0727
 5955W        W24809   9.247  14.281   1.172 -0.1475 -0.1748 -0.1749
 5956W        W24810  12.979  11.452   0.669 -0.1450 -0.0581  0.1589
 5957W        W24811  17.842   0.660  12.220 -0.0621 -0.0438 -0.0731
 5958W        W24812  16.711  16.840   2.838 -0.1910  0.1735 -0.0119
 5959W        W24813  17.481  14.627   2.606 -0.1062 -0.1676 -0.0454
 5960W        W24814  11.288  13.460   1.972  0.3909 -0.0793 -0.3034
 5961W        W24815   8.519  13.222   3.983  0.1391  0.1172  0.0839
 5962W        W24816   2.730   0.434   3.894 -0.1822 -0.1938 -0.2698
 5963W        W24817  15.246  11.821  14.277 -0.1941 -0.0556  0.1167
 5964W        W24818   9.518  11.174  11.922  0.0142 -0.2285  0.2209
 5965W        W24819  15.796   7.599   1.991  0.2208  0.0154 -0.4326
 5966W        W24820   1.184  14.479  11.585  0.4204  0.0435 -0.2070
 5967W        W24821   1.216   3.117   2.633 -0.1653  0.0193 -0.1884
 5968W        W24822  11.165   5.612  10.566  0.0463  0.0282  0.2893
 5969W        W24823   9.767   7.323  10.295  0.0973 -0.0107  0.0769
 5970W        W24824   9.248  11.665  14.468  0.0681 -0.1406  0.1107
 5971W        W24825   6.429   6.674  11.483  0.1548 -0.1970 -0.2738
 5972W        W24826   3.616  14.410  12.147 -0.0943  0.1193  0.3630
 5973W        W24827  16.571   3.363   0.855  0.0792 -0.0003 -0.0101
 5974W        W24828  10.659   2.206   1.595 -0.0863  0.5128  0.3531
 5975W        W24829   5.957   9.026   2.309 -0.3637 -0.1634  0.1035
 5976W        W24830   8.226   6.104  13.427 -0.0810  0.3369 -0.0073
 5977W        W24831  17.102   8.410  12.395 -0.0322  0.0979 -0.1060
 5978W        W24832  19.117  10.368   1.439 -0.0925 -0.1164  0.0298
 5979W        W24833   9.693  17.542   0.265  0.2048  0.5055  0.1670
 5980W        W24834   7.202  12.320   3.916 -0.3479  0.0581  0.2164
 5981W        W24835  18.039  14.794  11.627 -0.0472  0.0291  0.3578
 5982W        W24836   2.156   3.299  12.959 -0.0778 -0.0627 -0.2035
 5983W        W24837   9.698  16.447   1.808 -0.1176 -0.1389  0.1508
 5984W        W24838  13.993   8.661  11.957  0.1627  0.4318  0.0951
 5985W        W24839   1.044  17.358  12.202 -0.0788  0.1727  0.2343
 5986W        W24840   5.511   2.214   2.742  0.1241 -0.1174 -0.2122
 5987W        W24841   1.274  10.890   2.301 -0.1633  0.0453  0.0035
 5988W        W24842  15.852  18.871  14.311  0.1213 -0.0150  0.0242
 5989W        W24843  16.404   5.732  11.035 -0.3077  0.0177 -0.0079
 5990W        W24844  14.105  12.446  14.637 -0.1903  0.1075 -0.1702
 5991W        W24845  18.537  14.068   0.901  0.1345  0.1679 -0.0796
 5992W        W24846  13.721  12.773  10.534 -0.0129  0.2742 -0.3575
 5993W        W24847   5.049   5.735   2.018 -0.0615 -0.2196 -0.3163
 5994W        W24848  15.714  13.005   3.873 -0.0979  0.4569 -0.1720
 5995W        W24849   1.463  15.806  10.964  0.0846 -0.0429 -0.2441
 5996W        W24850  16.274  18.144  12.460 -0.0538  0.0365 -0.1681
 5997W        W24851  14.346   1.326  12.202  0.0805 -0.1345 -0.2265
 5998W        W24852   5.222  14.635  12.316  0.1074  0.0451  0.2582
 5999W        W24853   6.425   6.767  12.763 -0.1311 -0.1637 -0.1522
 6000W        W24854   9.296  11.390   4.874  0.0855  0.0804 -0.0586
 6001W        W24855   0.505  14.072   1.376 -0.1803 -0.1238  0.1521
 6002W        W24856  17.374  13.040   3.362  0.1898  0.2461  0.0200
 6003W        W24857  13.119   5.227   0.329  0.2053 -0.0625  0.1611
 6004W        W24858   3.098   2.666  11.668  0.0016  0.1042 -0.0687
 6005W        W24859  18.985  18.353   0.132  0.0308  0.2028 -0.2586
 6006W        W24860  14.235   8.068   1.211  0.0937  0.0304  0.0673
 6007W        W24861  10.145  14.540  14.461  0.1822 -0.2308  0.0152
 6008W        W24862  10.900  17.324   4.188  0.0450  0.3098  0.2825
 6009W        W24863   2.105   5.120  10.341  0.1911  0.4798  0.0232
 6010W        W24864   7.929  17.071  13.971  0.1190  0.0862  0.0276
 6011W        W24865   7.214   2.927   1.546  0.0507  0.2121  0.0537
 6012W        W24866   8.985  12.007  13.679 -0.0597  0.2242  0.0903
 6013W        W24867  11.187   5.077  10.699 -0.1531 -0.1401  0.2173
 6014W        W24868  14.871  13.037  12.847  0.2631  0.0843  0.0894
 6015W        W24869  10.740   5.718   5.122 -0.0322 -0.2922  0.2058
 6016W        W24870  13.616   7.780  11.686  0.0583 -0.0294  0.1521
 6017W        W24871  12.384   3.146   1.360  0.1017  0.1989 -0.0042
 6018W        W24872   0.918   2.638   0.961  0.0575 -0.0415  0.0133
 6019W        W24873  18.047  10.324  14.036 -0.0452  0.1225 -0.0475
 6020W        W24874   7.304  16.052   2.490 -0.1183 -0.2697 -0.1228
 6021W        W24875   7.709   4.707  13.918 -0.1073  0.0721 -0.0355
 6022W        W24876  10.884  12.472   1.903  0.1691  0.0998  0.0450
 6023W        W24877  15.793   7.764   0.488  0.0112 -0.0196  0.0877
 6024W        W24878   6.460  15.489   1.188  0.1563 -0.0387  0.0239
 6025W        W24879   2.189  14.843   1.444  0.2863 -0.0559 -0.6313
 6026W        W24880   4.036   0.336   2.646  0.0343 -0.1637  0.1843
 6027W        W24881  13.386   3.870   2.971  0.0529  0.2371  0.1328
 6028W        W24882   9.269  17.829  13.009  0.0246  0.1664  0.1941
 6029W        W24883  17.036   5.852   2.999 -0.0197  0.1050  0.1630
 6030W        W24884  15.341   7.445   3.267  0.0040 -0.2713 -0.0411
 6031W        W24885   8.143   1.256  14.062 -0.1221  0.1781  0.3359
 6032W        W24886   2.497   6.966   3.658  0.0616  0.1039  0.1381
 6033W        W24887  13.649   6.594   3.618  0.0411  0.2739  0.1450
 6034W        W24888  17.510   3.481  12.087  0.1294  0.0206 -0.0951
 6035W        W24889  15.457   0.355   1.716  0.2548  0.1416  0.2181
 6036W        W24890  18.754  19.016   2.665  0.1442 -0.1345  0.0411
 6037W        W24891  15.200  16.954  12.621 -0.0234  0.1926  0.2294
 6038W        W24892   7.241   8.508  12.578 -0.1557 -0.1192  0.2792
 6039W        W24893   1.098   3.705   1.845 -0.1950 -0.0830  0.0747
 6040W        W24894  14.987   6.561  12.138  0.0389 -0.0735 -0.1194
 6041W        W24895  18.750   6.017   4.913  0.2764  0.2618  0.3127
 6042W        W24896  15.215  16.546  13.044  0.1094 -0.2805  0.1051
 6043W        W24897  15.315   7.525   2.767  0.1020 -0.1618 -0.1263
 6044W        W24898  17.324  12.025   0.203 -0.1370  0.1652 -0.1961
 6045W        W24899  16.246   8.532   2.400 -0.0758 -0.1867 -0.0050
 6046W        W24900  14.611  16.189   2.369 -0.2801  0.0221  0.1227
 6047W        W24901  10.444  18.375   4.111  0.2760  0.0530  0.3133
 6048W        W24902  12.137   6.489   0.489  0.0228 -0.3038 -0.0008
 6049W        W24903  14.467  11.854   3.840 -0.0871 -0.3218  0.2515
 6050W        W24904   5.727   1.165   2.685  0.0874 -0.1484  0.2085
 6051W        W24905   2.025  16.029   1.028 -0.0028  0.1976  0.1919
 6052W        W24906  12.152   1.941  10.750  0.4169  0.3136 -0.1234
 6053W        W24907  15.027  13.269   2.084 -0.0799 -0.1479 -0.2338
 6054W        W24908  12.955   9.209  11.118 -0.1387  0.1042 -0.0996
 6055W        W24909   5.506  12.447  10.465  0.3703  0.0836 -0.0933
 6056W        W24910   3.172  13.387   4.936  0.1452  0.1413  0.2620
 6057W        W24911   4.325   4.458  11.408 -0.2607  0.2818 -0.3428
 6058W        W24912  17.893   2.505  12.568 -0.0217 -0.0902 -0.1806
 6059W        W24913  17.882  14.090   3.043 -0.3844  0.0179  0.1238
 6060W        W24914   6.878   1.106  11.059  0.0747  0.0795 -0.1498
 6061W        W24915  16.823  17.441   1.549 -0.1440  0.3374 -0.1550
 6062W        W24916   1.685  12.708   1.848  0.5205  0.1740 -0.0309
 6063W        W24917  12.169   8.142  13.418 -0.2849 -0.1152  0.1840
 6064W        W24918  18.104   7.252   0.379 -0.0739 -0.2989  0.1012
 6065W        W24919  10.168   2.774  11.783  0.1325  0.1619  0.3866
 6066W        W24920   9.887  16.927   1.860  0.3384  0.1744  0.0001
 6067W        W24921   3.586   3.168  13.149  0.0491  0.0596 -0.2561
 6068W        W24922   5.845  17.328   0.068 -0.3575 -0.1831 -0.0100
 6069W        W24923  17.831  18.680  13.372 -0.1337  0.1473 -0.2120
 6070W        W24924  13.013   2.276   0.007 -0.1159  0.1411  0.3258
 6071W        W24925   9.114  10.394  12.217 -0.0066  0.2807  0.0673
 6072W        W24926   4.296  18.776   3.343  0.0553  0.0684 -0.2295
 6073W        W24927  15.632  14.292   4.426  0.2220  0.0342 -0.0121
 6074W        W24928  11.615   4.003   0.367  0.0748 -0.3524  0.2363
 6075W        W24929   6.562   9.722   0.763 -0.2117 -0.1541  0.3719
 6076W        W24930   1.770   3.170  14.728  0.1315 -0.0377 -0.0372
 6077W        W24931   3.981   4.588  11.019 -0.3283 -0.2208  0.0296
 6078W        W24932  11.598  10.620   0.504 -0.1518  0.2630 -0.0744
 6079W        W24933  17.750  16.045  12.327 -0.2011 -0.0633  0.0982
 6080W        W24934   2.103   7.879   3.569  0.0695  0.1324 -0.3282
 6081W        W24935  12.087  11.517   0.370 -0.1749  0.2006  0.2528
 6082W        W24936   7.303  14.610  14.625 -0.2276 -0.2087 -0.1525
 6083W        W24937   7.285  15.024  14.155  0.0300  0.1177  0.0974
 6084W        W24938  10.726   9.625   3.108  0.2238 -0.1275  0.0047
 6085W        W24939   3.151  13.989   0.753  0.1639  0.1883 -0.2751
 6086W        W24940  10.745   9.837  10.933  0.1024 -0.0130  0.1285
 6087W        W24941  15.046   0.320  11.609  0.0337  0.0197  0.1258
 6088W        W24942  12.188   2.062  12.093  0.0480  0.1065  0.0269
 6089W        W24943  14.748  18.755  13.499  0.0512  0.2362 -0.2911
 6090W        W24944  18.548  16.505  12.108  0.3802 -0.3219  0.0466
 6091W        W24945  11.028  11.118   1.715 -0.1381  0.0690  0.0686
 6092W        W24946   6.255  18.749  12.020 -0.1000 -0.0152  0.3442
 6093W        W24947  12.887   0.842  14.670  0.0972  0.1100 -0.1766
 6094W        W24948  16.135   8.341   2.864  0.0662 -0.0975 -0.0106
 6095W        W24949   3.447  16.113  12.773  0.2258 -0.0745  0.1679
 6096W        W24950  12.771  18.989   4.456  0.1315  0.1956 -0.0693
 6097W        W24951  10.468  12.890  14.439  0.1297 -0.3107  0.4144
 6098W        W24952  11.367   3.535  10.675 -0.2686 -0.1647  0.4471
 6099W        W24953   0.959  11.110   9.861  0.1623  0.2829  0.0118
 6100W        W24954   8.046   5.878  11.171 -0.0729 -0.0676 -0.0234
 6101W        W24955  10.255  17.413   3.252  0.2160  0.1224 -0.2285
 6102W        W24956  17.568   4.483   1.565 -0.1757  0.0085  0.0103
 6103W        W24957   9.091   5.844   3.365  0.0838 -0.0640  0.0828
 6104W        W24958  16.728   8.462   1.125 -0.1138 -0.3766  0.1821
 6105W        W24959  15.297  18.266   1.888 -0.1372 -0.1040 -0.2859
 6106W        W24960   7.556  16.265  11.766 -0.1666  0.2187  0.0951
 6107W        W24961   7.834   3.253   0.277 -0.2783 -0.2335  0.0652
 6108W        W24962  13.931  12.614   0.949 -0.0285  0.0044 -0.0278
 6109W        W24963   9.380   3.750  12.162  0.3333  0.2681  0.2512
 6110W        W24964  14.275  12.102   1.815 -0.1178 -0.1420 -0.1157
 6111W        W24965  13.822   5.186   2.213  0.1185  0.0253 -0.1174
 6112W        W24966  16.928   2.980  13.247 -0.0506  0.1952 -0.0791
 6113W        W24967  18.892   4.385  11.408 -0.2114 -0.1212  0.1949
 6114W        W24968  18.930  16.428  12.874 -0.1788 -0.0736 -0.0424
 6115W        W24969   8.964  19.125  10.743 -0.2076  0.2073 -0.3429
 6116W        W24970   8.778   4.416  10.996 -0.1238  0.0273  0.2207
 6117W        W24971  17.345   6.962   2.281 -0.1925  0.0348 -0.0233
 6118W        W24972  17.689  17.323   4.283 -0.4153 -0.2015 -0.2653
 6119W        W24973   5.710   5.432   2.219  0.0257 -0.0735 -0.0885
 6120W        W24974  17.002   9.540   0.097  0.0024 -0.2285 -0.1063
 6121W        W24975   4.084  13.452  11.039  0.4617  0.0874 -0.2238
 6122W        W24976  12.928  12.367  11.903 -0.0902 -0.0940 -0.2653
 6123W        W24977  15.997  13.839   2.906  0.3085 -0.2969 -0.0137
 6124W        W24978   2.949  15.051  13.172  0.0566 -0.2755 -0.1515
 6125W        W24979  18.659  18.522   3.134  0.2737  0.1065 -0.0326
 6126W        W24980   6.080   3.456  11.599 -0.3890 -0.1146 -0.2694
 6127W        W24981   8.485   7.401  14.482  0.0388  0.2807 -0.1908
 6128W        W24982  18.638   2.389  13.864  0.1929 -0.0537  0.2199
 6129W        W24983   1.265   1.057  10.962  0.2655 -0.2943 -0.2938
 6130W        W24984  11.270  15.827  14.675 -0.1568 -0.2090 -0.3840
 6131W        W24985  15.687  15.295   2.595  0.3715  0.0994 -0.1126
 6132W        W24986  11.725  12.966  10.853 -0.0760 -0.1299 -0.0954
 6133W        W24987  10.245   8.075  11.873  0.4139 -0.2328 -0.1373
 6134W        W24988  15.488  12.281  12.481  0.0020  0.0133 -0.0212
 6135W        W24989  10.907   8.728   2.023  0.0615  0.1120  0.0865
 6136W        W24990  16.351  11.511  11.481  0.1042 -0.2453 -0.2450
 6137W        W24991   2.447   1.005   3.817 -0.4417  0.0134 -0.2761
 6138W        W24992   5.348  15.533   2.762  0.1155  0.0358 -0.0317
 6139W        W24993  15.723  10.402   2.362 -0.1649 -0.2322 -0.0009
 6140W        W24994  14.045   0.254  10.036  0.2869  0.2003 -0.1311
 6141W        W24995  14.960  17.603  13.223 -0.1229 -0.2952  0.1261
 6142W        W24996   6.530   4.282   3.465 -0.1429 -0.0707 -0.2992
 6143W        W24997   1.954  19.032  13.547 -0.1148  0.1933  0.1003
 6144W        W24998   0.924  15.859  14.421 -0.3402  0.1648  0.1784
 6145W        W24999  10.420   0.153  13.990  0.3764 -0.0713 -0.3495
 6146W        W25000   9.630   3.507   1.048  0.0152 -0.2140 -0.0330
 6147W        W25001  11.817  11.950   1.107  0.2835  0.2801 -0.0152
 6148W        W25002   4.605   2.226   2.226 -0.1201 -0.0634 -0.3261
 6149W        W25003  14.039   6.789   1.613  0.0951  0.0128 -0.2012
 6150W        W25004   6.117   1.633   2.892 -0.0862 -0.1909 -0.0432
 6151W        W25005   4.888  16.339  13.647  0.0774  0.5154  0.5379
 6152W        W25006   7.022   2.865  14.010 -0.1152  0.2455 -0.3971
 6153W        W25007   1.783   8.729   4.425  0.2946 -0.0506  0.0238
 6154W        W25008  17.377   1.306   1.847  0.0620  0.3466  0.0658
 6155W        W25009  12.467   8.542   0.706 -0.0982 -0.1647 -0.0934
 6156W        W25010   8.649  11.130   3.415  0.0909  0.0943 -0.2212
 6157W        W25011  15.299  12.927  10.362 -0.0610 -0.0670 -0.1320
 6158W        W25012   2.140  17.383   2.991 -0.0352 -0.0399  0.0467
 6159W        W25013   5.957   6.212  13.798  0.3285 -0.0234  0.1061
 6160W        W25014  18.943  16.247   0.258 -0.0645  0.0835 -0.2777
 6161W        W25015   5.791  14.733   2.842  0.2863  0.3216  0.0883
 6162W        W25016   9.657  13.390   0.912  0.0136 -0.3053 -0.0378
 6163W        W25017  18.663  12.423  13.624  0.1285  0.2222 -0.4429
 6164W        W25018   1.847  13.566  12.332  0.0778 -0.1744  0.0834
 6165W        W25019  13.987  15.460   3.773  0.1365  0.4752  0.0586
 6166W        W25020  10.655   2.113   3.396 -0.2002  0.0374  0.0521
 6167W        W25021  15.702   2.295   1.337 -0.1437  0.2276  0.0141
 6168W        W25022   9.364  13.311   4.338 -0.2572  0.0363  0.0995
 6169W        W25023  10.396   4.782   3.147  0.0436 -0.0487 -0.1453
 6170W        W25024  16.181   9.608   2.668 -0.0067 -0.0640  0.0862
 6171W        W25025  16.084  16.928   3.197 -0.2447 -0.1976 -0.0281
 6172W        W25026   5.933   5.471  13.012 -0.0627 -0.0717 -0.0991
 6173W        W25027  12.445   2.339   0.155  0.1959 -0.1625  0.1147
 6174W        W25028  10.255   2.239   1.269  0.1012  0.2073  0.1058
 6175W        W25029   1.284   2.774   0.624  0.2040 -0.2907 -0.2946
 6176W        W25030   2.796  18.530  11.543  0.0199  0.2330 -0.2241
 6177W        W25031  13.388  17.480  11.024 -0.2234  0.3658  0.1352
 6178W        W25032  13.607   6.785  13.045  0.2676  0.2327 -0.0790
 6179W        W25033   6.942  10.262  12.912  0.1914  0.0943 -0.2637
 6180W        W25034  16.584   4.053  11.463  0.0443  0.0049 -0.0727
 6181W        W25035  11.975  10.739  10.367  0.0493 -0.1277 -0.2008
 6182W        W25036  10.784  19.122   2.900 -0.0419 -0.0889 -0.1982
 6183W        W25037   7.920  12.439  10.677 -0.1110  0.1732  0.0421
 6184W        W25038   0.728  17.517   3.805 -0.2914 -0.0077 -0.3549
 6185W        W25039   7.949  13.646   0.376  0.1566 -0.0222 -0.1266
 6186W        W25040   4.840  17.532  14.177  0.1143 -0.2724  0.1992
 6187W        W25041   4.604  18.148   2.591  0.1043 -0.2960 -0.1417
 6188W        W25042   3.327  17.891  10.697  0.2002  0.0011  0.2230
 6189W        W25043   3.707  13.948   0.774 -0.2732 -0.3838  0.3674
 6190W        W25044  14.089  10.721   0.587 -0.1878  0.1391  0.3139
 6191W        W25045   3.621  14.936  12.071 -0.2925 -0.1438  0.1488
 6192W        W25046  11.457   2.837  13.552  0.1673 -0.1325  0.3126
 6193W        W25047  18.228   6.440  13.078  0.2331 -0.2622  0.0203
 6194W        W25048   1.936  18.269  13.947  0.0932 -0.3189  0.1828
 6195W        W25049  12.160   3.656  10.951  0.1284  0.1598  0.2866
 6196W        W25050  10.607   7.233  12.556  0.3158 -0.1671 -0.2357
 6197W        W25051  13.497   8.366  10.873 -0.1510 -0.4574 -0.0531
 6198W        W25052   7.536   3.281  11.259  0.0275 -0.0997 -0.0572
 6199W        W25053  17.106   2.292   0.968 -0.2539 -0.0366  0.3862
 6200W        W25054   0.614  10.525  13.671 -0.0127 -0.0415 -0.0592
 6201W        W25055  11.503   7.001  10.462 -0.0677  0.1608 -0.2899
 6202W        W25056   8.212  11.007  11.522  0.1187 -0.0113  0.0538
 6203W        W25057   1.600   4.364   2.080 -0.0398  0.0455 -0.3375
 6204W        W25058   3.732   6.362   3.904 -0.1329 -0.1800 -0.3306
 6205W        W25059   0.525   5.701   3.182  0.1714 -0.0945 -0.1374
 6206W        W25060   4.887  17.544   3.676 -0.1109  0.0528  0.0260
 6207W        W25061  13.532  16.451   5.146  0.1368  0.0956  0.0494
 6208W        W25062  15.617  18.495  12.802  0.1511 -0.2569 -0.2831
 6209W        W25063  15.049   6.879  14.324 -0.1223  0.2711 -0.2234
 6210W        W25064  17.775   4.910   2.582 -0.0447  0.1128  0.1166
 6211W        W25065   6.084  14.718  12.162  0.0766 -0.4399  0.0516
 6212W        W25066  11.132  13.330  12.571  0.0824 -0.3529  0.2636
 6213W        W25067   7.765  14.882   3.210 -0.0479 -0.1109  0.1720
 6214W        W25068   9.392  10.495  11.795  0.1328  0.1318 -0.0498
 6215W        W25069  18.436  13.288  10.346 -0.2398 -0.0769  0.1762
 6216W        W25070   8.614  18.679   0.048  0.0967 -0.0716 -0.0080
 6217W        W25071   2.436  17.073  12.461  0.3180  0.0534  0.1279
 6218W        W25072  17.103   8.693   0.755 -0.1235  0.1924 -0.2077
 6219W        W25073  18.713   5.952  11.948  0.0112  0.1742 -0.0537
 6220W        W25074  11.577   4.688  14.293  0.0774 -0.1480 -0.2988
 6221W        W25075   4.678  11.587  13.126  0.1022 -0.2911  0.2949
 6222W        W25076  11.762  13.848  10.595  0.0853  0.0620 -0.1452
 6223W        W25077   4.133  17.729  11.758  0.3292  0.0542 -0.1897
 6224W        W25078   8.358   4.116  10.968  0.0013 -0.1904  0.0744
 6225W        W25079  16.400  13.158   1.357 -0.1821 -0.0937 -0.1451
 6226W        W25080  15.787   8.316  10.373 -0.1279  0.1803 -0.3559
 6227W        W25081   4.883  15.933  12.468 -0.2349  0.2295 -0.2883
 6228W        W25082   9.036   2.667  11.562  0.1531  0.1296  0.0616
 6229W        W25083   0.257  18.375   3.825  0.2565  0.1952 -0.0422
 6230W        W25084   8.462  18.534  12.592 -0.0271 -0.0245 -0.0653
 6231W        W25085   7.864  14.733   0.830 -0.1658 -0.0873 -0.2749
 6232W        W25086   6.396   3.430   2.976  0.0147  0.1589 -0.0427
 6233W        W25087  11.071   1.723  10.955 -0.0508 -0.1483  0.1641
 6234W        W25088  13.891   8.347   1.516  0.2112  0.0025  0.4123
 6235W        W25089   2.584   8.889   0.626  0.0288 -0.1291 -0.1052
 6236W        W25090  18.201  18.316   1.847 -0.1991  0.2017 -0.0916
 6237W        W25091  12.998   0.649   4.646  0.3591  0.1551 -0.0251
 6238W        W25092  12.173   0.355  14.176 -0.0294 -0.0278  0.1695
 6239W        W25093   6.663  14.080   3.506  0.0068 -0.1926  0.1282
 6240W        W25094   6.277   4.375  10.786 -0.0300  0.3600 -0.4871
 6241W        W25095  11.703   9.909   2.153 -0.0250 -0.1646 -0.2825
 6242W        W25096   4.976   3.567  12.404  0.0113 -0.4636  0.0917
 6243W        W25097  19.130  12.323   9.596 -0.2563  0.0991 -0.0259
 6244W        W25098   7.206   5.095   1.284 -0.0269  0.0300  0.0873
 6245W        W25099   5.132   3.342  12.918 -0.0541  0.0203  0.0463
 6246W        W25100  18.380  10.151  12.702  0.0927  0.0194  0.1116
 6247W        W25101   9.816   7.498  13.263 -0.4986  0.0152 -0.0332
 6248W        W25102   5.534   2.105  11.523  0.2512  0.1013  0.0948
 6249W        W25103   8.837   5.644   3.716 -0.1125 -0.3056  0.0177
 6250W        W25104   0.006  17.984   2.477  0.4379  0.0789 -0.2225
 6251W        W25105   9.602  13.595   9.713  0.1023  0.2565 -0.2243
 6252W        W25106  13.192   9.855   3.109 -0.0179  0.0088  0.0796
 6253W        W25107  15.365   1.382  11.376  0.0389  0.0731 -0.2988
 6254W        W25108   5.724  18.202   2.030 -0.3429  0.1477 -0.1570
 6255W        W25109  17.522   2.722  11.716  0.2867 -0.3542  0.0009
 6256W        W25110   6.455   4.816   2.603  0.1800  0.1855 -0.1315
 6257W        W25111  10.952  18.824  11.748  0.0465  0.1602 -0.0899
 6258W        W25112   9.367  13.417  11.396 -0.1315  0.1261  0.1090
 6259W        W25113  13.812   2.196  14.342  0.2699 -0.1670  0.1703
 6260W        W25114  15.872  14.963   1.792 -0.2133  0.1231  0.1988
 6261W        W25115  16.670   0.606  13.098 -0.0718 -0.0777 -0.1708
 6262W        W25116   6.996   9.999   0.234 -0.2398  0.0623  0.0802
 6263W        W25117   5.288   2.852  10.621 -0.0071 -0.0939 -0.3913
 6264W        W25118   8.141   4.570   0.382  0.3569 -0.0536  0.1489
 6265W        W25119   9.763   5.266   3.276 -0.3123 -0.0935  0.0348
 6266W        W25120  11.008  14.144   0.553  0.1150  0.1393 -0.0357
 6267W        W25121  16.405   4.308   1.533 -0.0116 -0.0350  0.3121
 6268W        W25122   2.721   7.826  11.996  0.1225  0.1303 -0.2075
 6269W        W25123  12.464  16.655   4.447  0.0927 -0.3614  0.3189
 6270W        W25124   8.080   5.823  12.950 -0.2547  0.0393  0.1701
 6271W        W25125  14.409   3.205  10.326 -0.1845  0.3235  0.1102
 6272W        W25126   2.165  10.925   3.187  0.1108  0.0264 -0.1659
 6273W        W25127  12.213  16.667   3.168  0.2256  0.0022  0.3263
 6274W        W25128   4.459  14.664   1.596  0.1175  0.0226  0.0134
 6275W        W25129   6.956   9.990  12.425 -0.1763  0.2346 -0.1263
 6276W        W25130   9.763   8.349  11.893  0.2139 -0.0305  0.0286
 6277W        W25131   7.011   1.582   4.635 -0.3923 -0.0302 -0.3518
 6278W        W25132  12.562   0.618  12.267  0.3132 -0.0286 -0.0969
 6279W        W25133  12.525   4.904  10.605  0.0266  0.3201  0.2743
 6280W        W25134   7.436  16.235  11.276 -0.0730  0.1741  0.3674
 6281W        W25135  17.097  15.891  11.010 -0.1600 -0.0506 -0.1354
 6282W        W25136  17.047   8.305  13.914 -0.0532  0.0278  0.0878
 6283W        W25137   5.323   7.408  12.706 -0.2066 -0.1631 -0.1292
 6284W        W25138   8.948  15.915  12.982 -0.5287 -0.0080 -0.2596
 6285W        W25139  11.600   4.990   0.661 -0.0106 -0.3601 -0.2423
 6286W        W25140   0.404   5.849  12.192  0.0311 -0.1624 -0.1667
 6287W        W25141  11.366   7.217  12.312  0.0805 -0.1217 -0.1251
 6288W        W25142  12.927   0.048   9.907  0.0120 -0.0306  0.1073
 6289W        W25143   9.482  10.567   1.861 -0.1104 -0.3706 -0.1007
 6290W        W25144  17.156   3.909   3.149  0.1310  0.0297  0.0874
 6291W        W25145  18.824   3.366   3.795  0.2386 -0.0808 -0.0521
 6292W        W25146   6.085  14.738  10.706  0.1889 -0.1586 -0.1640
 6293W        W25147  14.187  16.465   3.608  0.1653  0.0682 -0.0503
 6294W        W25148   6.181  15.002   1.999  0.2135  0.0007  0.1360
 6295W        W25149   3.510  13.404  13.873  0.3340 -0.0828  0.1494
 6296W        W25150  15.344  15.526  12.050 -0.1136  0.0290  0.1198
 6297W        W25151   6.421   1.344   3.189 -0.0341  0.1776  0.3166
 6298W        W25152   8.528  14.244   1.837 -0.0398 -0.1528 -0.1056
 6299W        W25153   8.007   3.218  13.269  0.0412  0.3251  0.0223
 6300W        W25154  13.832  13.562  10.842 -0.0883  0.2368  0.0123
 6301W        W25155  15.652   6.493   4.351 -0.0642  0.0368 -0.2792
 6302W        W25156  12.475   2.152   2.195  0.0319 -0.0918 -0.0550
 6303W        W25157   3.589   7.150   0.609 -0.1518  0.0253  0.0615
 6304W        W25158   5.483   8.475   0.429 -0.0323 -0.0799  0.1319
 6305W        W25159   0.808  19.196  14.193 -0.2472 -0.1355  0.0617
 6306W        W25160  15.376   5.855  14.172  0.0139  0.0102  0.1288
 6307W        W25161  12.404   0.508  11.439  0.0132  0.0992 -0.1380
 6308W        W25162   9.693   0.929   4.305  0.0010  0.0608  0.2385
 6309W        W25163   4.132  17.724  12.639  0.5384 -0.2140 -0.1654
 6310W        W25164  18.909   4.832  10.987  0.0208 -0.4477  0.2335
 6311W        W25165   0.308   0.328  14.171  0.2377  0.1623  0.1491
 6312W        W25166  19.000   4.147  12.286  0.1173  0.0728  0.0586
 6313W        W25167   7.440   8.549   3.331 -0.0591 -0.0365  0.0518
 6314W        W25168  11.050  16.304  11.219 -0.1926  0.0048  0.0790
 6315W        W25169  16.416  16.177   2.822  0.2180 -0.0589 -0.2529
 6316W        W25170  18.957  16.571  11.621 -0.4069  0.1754 -0.1655
 6317W        W25171  11.851  15.645   0.592 -0.0923 -0.0958  0.1106
 6318W        W25172   4.616  10.634  10.872 -0.2138 -0.0581  0.1785
 6319W        W25173  10.873   9.424   4.215  0.2301 -0.2769  0.0443
 6320W        W25174  11.118  14.945  11.133  0.0804  0.2989  0.0647
 6321W        W25175  10.483  15.646   4.633  0.1233  0.2526 -0.0121
 6322W        W25176   0.847  10.601  10.773 -0.0528 -0.1170  0.0476
 6323W        W25177   4.081   2.168   2.484  0.0169 -0.1777 -0.1852
 6324W        W25178   0.498   9.509  10.960  0.0773 -0.2924 -0.0481
 6325W        W25179  15.734  15.433   3.228  0.0110  0.0730 -0.0371
 6326W        W25180  16.961  18.710   0.579  0.1213 -0.0118 -0.1055
 6327W        W25181  18.574   9.580  12.782  0.0903  0.1085 -0.1129
 6328W        W25182  10.298   0.812  13.341  0.1529 -0.1722  0.0225
 6329W        W25183   4.661  19.030  11.607 -0.1265  0.0445 -0.1268
 6330W        W25184   4.682   3.695  13.998  0.2108  0.2089 -0.1167
 6331W        W25185  17.382   7.814   0.603 -0.3162  0.3804 -0.0425
 6332W        W25186   9.656   9.653   2.850  0.0162 -0.3813  0.0788
 6333W        W25187   9.710   3.887  13.088  0.3900 -0.0310  0.4046
 6334W        W25188  11.635   1.338  14.002  0.0370  0.1680  0.3532
 6335W        W25189  17.496  11.918   2.312  0.1518  0.2378  0.0475
 6336W        W25190  15.560  10.419  14.498 -0.3519  0.0761 -0.1620
 6337W        W25191   8.848   3.182  13.046 -0.1176  0.0227  0.1536
 6338W        W25192  14.980   8.435   3.557  0.2160 -0.0900  0.0168
 6339W        W25193  10.795  15.344   1.547  0.2243  0.0838 -0.2154
 6340W        W25194   2.137   7.370  10.885 -0.0585  0.1879 -0.0746
 6341W        W25195  17.694  10.266  14.402 -0.0415  0.1300 -0.2669
 6342W        W25196  15.583   2.226  14.707  0.1233 -0.0625  0.1076
 6343W        W25197   0.287   4.700   2.180 -0.1946  0.2920 -0.1585
 6344W        W25198  17.532   7.320   2.670 -0.2514  0.1961  0.0730
 6345W        W25199  10.650   7.321   9.405  0.2560 -0.0007 -0.1195
 6346W        W25200  11.117  15.232  13.256 -0.2844  0.0750  0.0095
 6347W        W25201   9.281   3.287   0.128  0.3407  0.3933  0.2217
 6348W        W25202   3.082   4.340  14.139 -0.1950  0.2461  0.0414
 6349W        W25203   7.069   4.377   4.029  0.2272 -0.0116 -0.0036
 6350W        W25204   5.692  13.198   1.342  0.5003 -0.2643 -0.0080
 6351W        W25205   1.052   6.873  13.170  0.0099 -0.5150 -0.2859
 6352W        W25206   0.507   1.147  13.978  0.3882 -0.2403 -0.2371
 6353W        W25207   7.793  11.982   1.785 -0.4243 -0.0468 -0.0370
 6354W        W25208  11.964  15.497   0.047  0.0734 -0.1632 -0.0884
 6355W        W25209  15.641  17.020   2.053 -0.2526  0.0060 -0.4428
 6356W        W25210  12.632  12.991  13.920 -0.1650 -0.3128  0.2232
 6357W        W25211  15.642  10.942  11.803 -0.2481 -0.2236 -0.0243
 6358W        W25212  18.183  18.794  12.051 -0.4329  0.1231 -0.4214
 6359W        W25213  14.326   6.940  11.119 -0.2022 -0.0724  0.2169
 6360W        W25214  10.762  13.986  11.515 -0.1979  0.3047 -0.0283
 6361W        W25215   0.804  10.346   2.842  0.1741  0.3109  0.0558
 6362W        W25216  10.980  10.177   3.666 -0.0783 -0.2182  0.0166
 6363W        W25217   0.064  15.604   1.320  0.1213  0.1318  0.0396
 6364W        W25218   7.815  15.967  13.217 -0.1063 -0.3695  0.1894
 6365W        W25219  11.706  18.780   0.400 -0.0234  0.1523 -0.0324
 6366W        W25220  10.336  14.294   1.114 -0.2101 -0.0447 -0.0698
 6367W        W25221  10.413  16.342  14.572 -0.0646  0.0587  0.3695
 6368W        W25222  16.422   4.070  13.697  0.0320  0.1455  0.0346
 6369W        W25223   9.014  17.756   2.928  0.0130 -0.0230  0.5333
 6370W        W25224  11.105   2.843  10.302 -0.1174  0.0436  0.0027
 6371W        W25225  12.446   8.603  13.500  0.2045 -0.3034 -0.2121
 6372W        W25226   0.798  12.177   0.645  0.4061  0.2561  0.0519
 6373W        W25227   6.386  10.437  11.951  0.0549 -0.2687 -0.1219
 6374W        W25228  12.082   3.465   1.105  0.3155  0.1381 -0.0507
 6375W        W25229   5.272   0.652   0.319  0.1228 -0.0513 -0.0715
 6376W        W25230   1.672   8.271   4.508  0.1122  0.1604  0.0027
 6377W        W25231   6.998  11.507   1.767  0.0218  0.2463  0.0091
 6378W        W25232   6.405  14.416  10.437 -0.2194 -0.0746 -0.1034
 6379W        W25233   7.153  18.952   1.271 -0.0649 -0.0814 -0.1745
 6380W        W25234  16.411   5.737  14.432 -0.3419  0.0938  0.3127
 6381W        W25235  10.629  14.968  11.299  0.2998 -0.3254 -0.1147
 6382W        W25236   7.066  15.265   3.852 -0.0758  0.3382 -0.3285
 6383W        W25237  16.026   9.304   1.423 -0.1307  0.0182  0.0231
 6384W        W25238   8.817  10.126   1.530 -0.0564  0.1586  0.0128
 6385W        W25239  13.210   8.250   2.109 -0.3495 -0.2637  0.3816
 6386W        W25240  17.530  18.959   1.181 -0.1764  0.2424  0.1567
 6387W        W25241   3.781  10.825   4.213  0.2617  0.2347 -0.2564
 6388W        W25242   1.818  17.574   3.346  0.2894 -0.2689  0.0070
 6389W        W25243  16.036  16.899   1.313  0.2722  0.1209 -0.2065
 6390W        W25244  14.448  17.417  11.120 -0.1250 -0.2168  0.0769
 6391W        W25245   2.647  13.919  10.878 -0.1200 -0.2547  0.3002
 6392W        W25246   1.688   4.182   3.515 -0.2736 -0.0948  0.0807
 6393W        W25247  14.504   2.670  12.331  0.1281  0.1074  0.3040
 6394W        W25248   3.728   2.576  13.192  0.0268 -0.1708 -0.0068
 6395W        W25249  13.365   9.333  13.297  0.0999  0.2232 -0.0724
 6396W        W25250  16.607   7.518   5.125 -0.0543 -0.2650 -0.1591
 6397W        W25251   3.914   9.263   0.825 -0.0484  0.2534  0.1858
 6398W        W25252  12.658  18.346  11.647  0.1510 -0.1672 -0.1266
 6399W        W25253  10.606   3.891   2.826 -0.0586  0.1285  0.0491
 6400W        W25254   5.761  18.222  10.388  0.1269 -0.0051  0.0275
 6401W        W25255   8.651   9.534  14.114  0.1977 -0.1429  0.3379
 6402W        W25256  15.267  10.988  12.314  0.2368  0.0995  0.1956
 6403W        W25257  18.894  18.934   0.283 -0.1091 -0.2220  0.0623
 6404W        W25258   2.554   2.184   1.285 -0.3137 -0.0527 -0.2010
 6405W        W25259   6.356   5.966   4.050  0.1217  0.1440  0.3863
 6406W        W25260   6.977   7.670  14.608 -0.4091  0.0854 -0.1952
 6407W        W25261   6.941  17.698   4.532  0.1841  0.4847  0.2288
 6408W        W25262  13.694   7.234   1.237 -0.1815 -0.0301 -0.0586
 6409W        W25263  18.678  10.995   0.084  0.1468  0.1275  0.1648
 6410W        W25264   6.980   7.215  12.930  0.1172 -0.1501  0.0579
 6411W        W25265  11.699   1.827  13.829  0.1566 -0.2530  0.0679
 6412W        W25266   5.121  14.863  13.334 -0.1663 -0.2385  0.2141
 6413W        W25267   5.866   2.639   2.665 -0.1799  0.0539 -0.0572
 6414W        W25268  18.507   1.751   0.966 -0.1790 -0.3945  0.0061
 6415W        W25269   4.862  14.513   2.293 -0.0571 -0.1105 -0.0391
 6416W        W25270   7.754   6.492   3.401 -0.3191  0.3558  0.3124
 6417W        W25271   6.442  18.549   1.545  0.0141 -0.1182  0.0115
 6418W        W25272   1.614   5.117   1.973  0.1228  0.1254 -0.0288
 6419W        W25273  16.835  12.128   1.366  0.1455 -0.0023  0.2804
 6420W        W25274  12.225   8.833   1.648  0.0555 -0.1350  0.2161
 6421W        W25275  17.450   9.761   1.470  0.0169 -0.0375 -0.1185
 6422W        W25276   8.401  13.568  14.730 -0.0746  0.1142  0.1877
 6423W        W25277  10.353  13.316  13.873  0.1795 -0.0793  0.1542
 6424W        W25278   5.385   0.807  11.230 -0.0166 -0.1609 -0.1003
 6425W        W25279   7.740  10.578   3.635 -0.2641  0.1390  0.1293
 6426W        W25280  15.734   5.630   2.688  0.1118  0.0441  0.2358
 6427W        W25281  16.390   7.538   0.768  0.0276  0.0210 -0.4224
 6428W        W25282   8.307   3.008  12.803 -0.1529 -0.0259 -0.0407
 6429W        W25283   6.795  15.633   2.552 -0.1540  0.0501 -0.2747
 6430W        W25284   6.521  14.815   4.277 -0.0039  0.0214  0.2582
 6431W        W25285  15.048  13.985  13.159 -0.0928  0.4217 -0.2852
 6432W        W25286  18.145   4.314  10.447  0.1367  0.1344  0.0455
 6433W        W25287   9.939   8.786   4.660  0.0702 -0.1812  0.2602
 6434W        W25288   3.252   5.298   4.700 -0.0486 -0.1727 -0.0653
 6435W        W25289  17.168  15.243   9.817 -0.1505  0.0712 -0.0271
 6436W        W25290  17.344   3.286   4.049 -0.2371  0.0367  0.1411
 6437W        W25291  17.573  16.817   5.090 -0.0390 -0.0313  0.0285
 6438W        W25292   0.806   4.340  14.629  0.0205 -0.0139  0.2095
 6439W        W25293  13.731  17.669  14.556  0.1786  0.0061 -0.5167
 6440W        W25294  14.885   1.498  13.079 -0.0874 -0.0225 -0.1034
 6441W        W25295   6.157   5.847   0.199 -0.3096 -0.1561 -0.1202
 6442W        W25296   9.925  11.762  13.060 -0.1274  0.1736 -0.2332
 6443W        W25297  18.704  12.444  14.602  0.0531  0.2835 -0.1532
 6444W        W25298  11.434  14.397   1.435  0.1318 -0.1544 -0.2818
 6445W        W25299   5.618   5.378   4.213 -0.2391 -0.1042  0.0725
 6446W        W25300  16.589  15.946  11.901  0.0242  0.2300  0.2971
 6447W        W25301  11.234  12.158   1.719  0.0592  0.1850  0.2911
 6448W        W25302   4.077   1.249  11.683 -0.0392 -0.2918 -0.1164
 6449W        W25303   9.936  11.360   4.120  0.2524  0.1269 -0.1612
 6450W        W25304  18.968  11.108   3.214 -0.1212  0.2059 -0.0348
 6451W        W25305   3.956  14.815   3.385  0.0490  0.4223 -0.1377
 6452W        W25306  10.211   9.282   0.073  0.0274 -0.0055 -0.1884
 6453W        W25307   1.198   6.622  12.122  0.0488 -0.0376 -0.1190
 6454W        W25308  10.652   7.995  14.187 -0.1741 -0.2689  0.0113
 6455W        W25309  18.103   1.505   0.648  0.0427 -0.2386 -0.4579
 6456W        W25310   8.551  16.546   4.375 -0.0335  0.2154  0.2121
 6457W        W25311  13.307  10.443   0.503  0.3566  0.2829  0.3914
 6458W        W25312  15.833   3.316   9.487 -0.2098 -0.1436 -0.0039
 6459W        W25313  12.936   9.184   3.189 -0.3306 -0.1308  0.0707
 6460W        W25314   9.345   0.779   4.036  0.1921 -0.1514 -0.0540
 6461W        W25315   5.174   8.677  13.784 -0.3398 -0.1148 -0.4739
 6462W        W25316  10.981  12.772  12.103  0.0814 -0.0170  0.1257
 6463W        W25317  17.816   7.989   1.529 -0.0158 -0.0660 -0.2978
 6464W        W25318   6.237   0.678   1.333 -0.1264 -0.0088  0.1251
 6465W        W25319   5.791  16.742   1.382 -0.1840 -0.2746 -0.1302
 6466W        W25320   9.876  13.975  10.800 -0.3736  0.2366  0.1640
 6467W        W25321   3.937  10.818   1.104  0.3929 -0.0625 -0.0787
 6468W        W25322  17.185   0.667   0.809  0.1563 -0.3144 -0.3716
 6469W        W25323   9.624  15.920  12.254  0.1228 -0.0721  0.4900
 6470W        W25324  16.269  10.551   2.227  0.0100 -0.1485 -0.0162
 6471W        W25325   4.260   8.076   4.106  0.0313 -0.0689  0.0345
 6472W        W25326  13.478   5.702   4.258  0.2685 -0.0294 -0.3278
 6473W        W25327   6.659   5.741  12.988  0.0376 -0.2955  0.1549
 6474W        W25328   7.429   0.247   3.025  0.1221 -0.1296 -0.1293
 6475W        W25329   4.696   2.281  13.012 -0.1574  0.3123 -0.0928
 6476W        W25330  19.188   9.375   4.272 -0.2050  0.2448  0.2002
 6477W        W25331  17.004  10.705  11.999 -0.1868 -0.2618 -0.0081
 6478W        W25332   7.262   8.074   3.543 -0.0962 -0.0028 -0.2124
 6479W        W25333  12.841  10.834   4.385  0.1252 -0.0160  0.1035
 6480W        W25334   1.873  14.419   0.480 -0.0190  0.0279 -0.1107
 6481W        W25335   5.496   0.195   1.528 -0.1395 -0.3002 -0.1304
 6482W        W25336  10.128   4.376  13.667 -0.1816 -0.0074 -0.2860
 6483W        W25337  15.515  15.236   2.061 -0.0948  0.3276 -0.1690
 6484W        W25338   2.183  15.296   3.625 -0.0964 -0.2687 -0.3174
 6485W        W25339  13.523   3.776  11.539  0.2043 -0.1245  0.1063
 6486W        W25340   7.331   8.391  10.259  0.0911  0.5520 -0.1663
 6487W        W25341  16.124   0.288  13.619  0.2963 -0.2027 -0.1053
 6488W        W25342   6.143   1.167  13.185 -0.0673  0.0337 -0.5078
 6489W        W25343  10.481  16.806  14.262 -0.0495  0.1193  0.0981
 6490W        W25344   2.889   9.921   3.031  0.1368 -0.1108 -0.1651
 6491W        W25345   9.307  11.119  14.444 -0.0143  0.1525 -0.1377
 6492W        W25346   0.567  10.937   1.015  0.0792  0.0467  0.1704
 6493W        W25347  16.737   1.736   2.306  0.1382 -0.0124 -0.2398
 6494W        W25348   4.286  17.048   9.725  0.1494 -0.0672 -0.2862
 6495W        W25349  13.620  12.641   3.065 -0.1216 -0.1018 -0.1106
 6496W        W25350  11.866  13.131  12.567 -0.1430 -0.2039 -0.1601
 6497W        W25351   6.942   1.704   1.817  0.1330 -0.0198 -0.0619
 6498W        W25352  11.979   9.540   1.951 -0.2233 -0.0928 -0.2650
 6499W        W25353   8.737   9.663   3.210  0.1727  0.0775 -0.1416
 6500W        W25354  16.024   6.667  14.123 -0.1969  0.0172 -0.0548
 6501W        W25355   5.420  10.439  10.289  0.1465  0.1492 -0.4119
 6502W        W25356  16.633  14.488   0.674 -0.3238  0.0999 -0.0061
 6503W        W25357  16.896   3.065   2.612 -0.1448 -0.0134 -0.2284
 6504W        W25358   2.633  10.894   1.089 -0.3534 -0.3005  0.1145
 6505W        W25359  12.932  14.188  14.713 -0.0533 -0.0995 -0.0935
 6506W        W25360   5.235  15.326   4.871  0.1416  0.0919 -0.3990
 6507W        W25361  16.987  12.270   0.707  0.1540 -0.0724 -0.0217
 6508W        W25362   4.031   7.802   1.248  0.0672  0.3206 -0.2382
 6509W        W25363   7.632  19.016   3.083 -0.2823 -0.0131  0.5262
 6510W        W25364   0.955   0.113   3.772 -0.2979  0.0628  0.4680
 6511W        W25365  10.285  11.107   1.802 -0.0159  0.0725 -0.2969
 6512W        W25366   8.423  15.368  13.164  0.1487 -0.0425 -0.0392
 6513W        W25367  16.789  10.201  13.221  0.1939 -0.2377 -0.0982
 6514W        W25368   1.911   7.007   3.838 -0.3521 -0.0893 -0.1509
 6515W        W25369   2.034   3.923  14.050 -0.3336  0.0090  0.2199
 6516W        W25370   0.953   7.850  10.925  0.1124  0.0634 -0.2283
 6517W        W25371  16.237   6.043   0.096  0.4107 -0.0401  0.0798
 6518W        W25372  10.374   0.237   0.299 -0.1998  0.1161  0.1042
 6519W        W25373  13.022   7.820   2.552 -0.1887  0.2256  0.0019
 6520W        W25374   0.064  12.702   1.079  0.4265  0.2009  0.2558
 6521W        W25375   5.861  17.420   3.698 -0.2419 -0.1414 -0.3022
 6522W        W25376  11.116   7.361   3.417  0.1659 -0.0901 -0.0157
 6523W        W25377  19.194  12.502  14.462 -0.0977  0.0633 -0.0509
 6524W        W25378   7.274  16.947   2.477  0.0064 -0.4182  0.0234
 6525W        W25379  10.724   7.692   3.621 -0.0372  0.1509 -0.1932
 6526W        W25380   5.326   3.211   1.092  0.1646  0.3552 -0.1671
 6527W        W25381   6.605   0.035   3.461 -0.0431  0.1052 -0.1077
 6528W        W25382  10.964   7.207  14.619  0.1927  0.0370  0.0943
 6529W        W25383   3.498   3.917   2.049  0.2514  0.0056 -0.5068
 6530W        W25384  17.677  11.610  11.082  0.0184  0.0705  0.0279
 6531W        W25385   9.242   1.279   2.063 -0.4456  0.1548  0.2012
 6532W        W25386   9.519   0.093   0.672  0.4232 -0.1910  0.2304
 6533W        W25387   6.101  11.749  11.921 -0.1408 -0.1811  0.2198
 6534W        W25388   2.178   8.078  11.177  0.0732  0.0888  0.2458
 6535W        W25389  13.610  18.619  14.089  0.2594 -0.1038 -0.0510
 6536W        W25390  17.624   4.951   0.579 -0.2942  0.0993 -0.0912
 6537W        W25391  14.373   8.246  12.647 -0.0734  0.0607 -0.0817
 6538W        W25392   9.999   1.169   1.216 -0.1463 -0.0920  0.0465
 6539W        W25393  11.429  18.306  12.351  0.1064  0.0959  0.0001
 6540W        W25394  10.326  18.427   2.869 -0.2990  0.1588 -0.1355
 6541W        W25395  10.475   0.423   3.833  0.1437  0.2462  0.0985
 6542W        W25396  11.132   2.154   1.925  0.2119  0.3614  0.0573
 6543W        W25397  15.629  13.484   2.784 -0.2682  0.0817  0.1272
 6544W        W25398  13.312  14.216  12.640  0.3376 -0.1034  0.1430
 6545W        W25399   1.744   2.960   4.045  0.1743  0.0451 -0.0013
 6546W        W25400   6.938   9.182   1.901 -0.1581 -0.0188  0.1787
 6547W        W25401   8.506  16.020   4.104  0.0826  0.1129 -0.1882
 6548W        W25402   5.472   8.774   0.064  0.1127  0.0456 -0.0409
 6549W        W25403  16.834  11.544  11.162  0.3145  0.1306 -0.2671
 6550W        W25404  17.599   1.292   0.243  0.0785  0.1509 -0.2694
 6551W        W25405  12.389  14.535  13.901 -0.0369  0.2546  0.1102
 6552W        W25406  17.495   8.981  11.249 -0.1284 -0.0153  0.1256
 6553W        W25407  15.775   2.373   1.905  0.1688  0.2021 -0.1608
 6554W        W25408   1.031   5.255  12.408 -0.2083 -0.2945 -0.1645
 6555W        W25409  11.390  10.193  12.195  0.1538  0.2101  0.1727
 6556W        W25410   8.071  15.102  14.202  0.0731 -0.3031  0.2609
 6557W        W25411  16.331   4.001   0.157 -0.1038  0.0866  0.0820
 6558W        W25412   0.792   5.399  11.903  0.1694  0.0075 -0.0020
 6559W        W25413   2.904   7.578  12.418  0.0377 -0.0149  0.0591
 6560W        W25414   2.139  14.727   2.248  0.0644  0.2254  0.1654
 6561W        W25415   5.053  17.248  13.030  0.1143 -0.2000  0.0740
 6562W        W25416  17.923  13.521  12.027  0.0503 -0.0032  0.0788
 6563W        W25417  15.985   7.589  11.668 -0.2299 -0.0002  0.2328
 6564W        W25418  17.320  15.744   1.937 -0.3170 -0.1148  0.1605
 6565W        W25419   0.361  12.533  12.705 -0.0028  0.0513  0.0622
 6566W        W25420  15.321  15.049  12.875 -0.2427  0.0907  0.0054
 6567W        W25421  12.915   8.574  13.678 -0.2212 -0.1584 -0.0030
 6568W        W25422  17.226  12.313   1.144  0.1430  0.0897  0.1770
 6569W        W25423   1.793  18.877   3.377  0.0476  0.0517 -0.1219
 6570W        W25424  11.385  15.471   2.579  0.0055  0.1241  0.1348
 6571W        W25425  11.680   5.395   4.240 -0.1969 -0.1027 -0.0753
 6572W        W25426   4.741   2.867   3.965 -0.1814 -0.0881 -0.2496
 6573W        W25427  15.862   8.765  10.751  0.1927 -0.0855 -0.0802
 6574W        W25428   6.622   3.499  12.865  0.3208  0.0989 -0.1338
 6575W        W25429   1.091   7.701  10.367  0.1181  0.2430 -0.0790
 6576W        W25430  19.016  10.241  11.497  0.1412  0.1557  0.3165
 6577W        W25431   9.474  13.786  12.451  0.0538  0.2409 -0.1347
 6578W        W25432   1.835   7.099  11.176 -0.0740 -0.0970 -0.0476
 6579W        W25433   9.482   8.910   1.752 -0.2006  0.1841 -0.0726
 6580W        W25434   3.003  17.915   1.738  0.1047  0.0124 -0.0253
 6581W        W25435  13.887  12.991   4.225  0.0124  0.1742  0.0788
 6582W        W25436  11.599  18.241   4.837  0.1065 -0.0576  0.1149
 6583W        W25437   6.464   6.361  11.017  0.1413  0.1235 -0.0148
 6584W        W25438  14.653   2.522   4.120  0.2950  0.1804 -0.2287
 6585W        W25439  13.776  17.604  10.560  0.0089 -0.0687  0.0142
 6586W        W25440  18.146   6.909  12.745  0.1834  0.3967  0.0228
 6587W        W25441  10.779   6.243   2.993 -0.0330  0.1514  0.0911
 6588W        W25442   5.331   6.676  11.902 -0.0497  0.0338 -0.0971
 6589W        W25443  13.236   6.143   1.986  0.0723 -0.1058 -0.0164
 6590W        W25444   5.294   3.510  10.718 -0.1288 -0.0004 -0.0299
 6591W        W25445  11.658  10.211  11.743  0.0571 -0.0506 -0.0776
 6592W        W25446  15.307  14.229  12.785 -0.0001 -0.0153 -0.4671
 6593W        W25447  14.690   5.272  14.155 -0.0487 -0.0864  0.0910
 6594W        W25448  14.428  10.182  11.864 -0.0647 -0.0588  0.2971
 6595W        W25449   3.854   2.458  11.804  0.0749  0.1311  0.1535
 6596W        W25450  10.575   2.938   4.039 -0.1779 -0.1642 -0.0554
 6597W        W25451  15.032  16.421   0.487 -0.3055 -0.0090  0.0940
 6598W        W25452  17.581   9.790   2.860 -0.0046 -0.0157  0.5296
 6599W        W25453  18.585   7.459   4.125 -0.1331  0.1033  0.0366
 6600W        W25454   4.913   8.916   0.965  0.1713  0.1120 -0.0633
 6601W        W25455  18.138   2.852   3.431 -0.0026 -0.0878 -0.2434
 6602W        W25456   8.605  18.181  10.770  0.0009  0.0364 -0.2155
 6603W        W25457  13.908   7.886  12.068  0.0485  0.0766 -0.0193
 6604W        W25458  17.946  15.875  14.305 -0.1224 -0.2695  0.0002
 6605W        W25459  18.387  11.515  12.650  0.0677 -0.2118 -0.1101
 6606W        W25460   1.522   9.136  12.188 -0.3236  0.0783  0.0290
 6607W        W25461  15.993   0.255  14.264  0.0060 -0.1201 -0.3004
 6608W        W25462  18.570   7.545  14.011 -0.1080 -0.2584  0.1894
 6609W        W25463  10.690  18.074   3.738  0.0637 -0.0087 -0.0338
 6610W        W25464   5.132   7.827  13.057  0.2102 -0.1766 -0.1490
 6611W        W25465  14.986  18.819   0.653  0.0200 -0.0109  0.1361
 6612W        W25466   4.419   5.201  14.570  0.1846  0.2604  0.4049
 6613W        W25467  13.100   8.509  14.141  0.2053 -0.0293 -0.1326
 6614W        W25468  18.145  14.338  11.938 -0.1852 -0.0980  0.0247
 6615W        W25469   7.918  17.595  11.295 -0.1859  0.1807 -0.0398
 6616W        W25470  14.124  16.844  13.889 -0.0382 -0.1294 -0.2716
 6617W        W25471  17.806   6.880  10.820  0.3813  0.0591 -0.2746
 6618W        W25472  17.904  11.715   1.436  0.3047  0.0381 -0.1443
 6619W        W25473  15.772   2.676  12.867  0.1103  0.0911  0.1137
 6620W        W25474  14.341  11.606   0.903 -0.0052 -0.1900  0.0081
 6621W        W25475   7.412  16.415  14.496 -0.2147 -0.0069  0.0174
 6622W        W25476  17.498   2.763  14.282  0.0807  0.0172 -0.0287
 6623W        W25477   6.576   6.921   0.026  0.1029 -0.0777  0.3131
 6624W        W25478  15.730   0.003   2.615  0.2739  0.1014  0.4209
 6625W        W25479  15.669  17.682  13.791 -0.0617 -0.1815 -0.0759
 6626W        W25480  10.806  13.141  11.054  0.3667 -0.0946  0.0083
 6627W        W25481  14.249  16.510   0.663  0.2578 -0.1540  0.0032
 6628W        W25482  11.081   8.939  10.988  0.1112  0.0811 -0.1236
 6629W        W25483   1.076   6.639  12.621 -0.0018 -0.2731 -0.0514
 6630W        W25484  13.818  16.642   0.173  0.1228  0.0554 -0.1087
 6631W        W25485   9.281   8.043  10.626  0.0935 -0.2958 -0.2155
 6632W        W25486   8.091   3.067   3.560 -0.2626 -0.2359 -0.2583
 6633W        W25487  17.242  10.478   1.160  0.0659 -0.0230  0.0106
 6634W        W25488   9.481  17.079  11.658  0.1266 -0.2122  0.0625
 6635W        W25489   1.445   1.430  12.228  0.1398 -0.0729 -0.1039
 6636W        W25490  13.686   8.535   4.386  0.3606 -0.4093  0.1333
 6637W        W25491   2.987   9.328   1.874 -0.0473 -0.0657 -0.0413
 6638W        W25492   0.460  12.772  13.623 -0.1494 -0.2225 -0.2722
 6639W        W25493  15.716  11.981   3.684 -0.0643  0.1733  0.0117
 6640W        W25494  12.395  12.917   3.364 -0.1875 -0.2761 -0.1059
 6641W        W25495   3.010  11.258   1.675  0.0121  0.0158 -0.1586
 6642W        W25496   7.412   3.855   3.197 -0.2462  0.0346  0.0157
 6643W        W25497   2.586   1.712  14.626 -0.1818  0.2513  0.0033
 6644W        W25498   0.435  18.650  12.440 -0.2775  0.1008  0.0159
 6645W        W25499   5.579   3.328   4.638 -0.1196  0.0587 -0.2693
 6646W        W25500  13.574  18.843  13.621  0.0800 -0.0549  0.3890
 6647W        W25501   7.257   4.969  12.832 -0.2002  0.2002 -0.1783
 6648W        W25502   0.424   3.959  13.593  0.1656  0.2178  0.1102
 6649W        W25503  11.806   5.712  14.517 -0.1721 -0.0604 -0.3437
 6650W        W25504   5.727   2.305  11.076  0.1188  0.0471 -0.0823
 6651W        W25505  12.443  19.118  14.326  0.0806 -0.1223  0.2560
 6652W        W25506  12.138   0.720   2.167 -0.1525 -0.5023  0.2268
 6653W        W25507  13.976   8.796  13.520  0.3634  0.2456  0.3508
 6654W        W25508  13.644   6.625  12.036  0.1251  0.1305  0.1053
 6655W        W25509  10.047  10.056   4.055  0.0030 -0.3489  0.0938
 6656W        W25510   8.035   1.649  11.367 -0.1962 -0.0666 -0.0208
 6657W        W25511  15.979   2.684   1.576 -0.1964  0.0430  0.0632
 6658W        W25512   0.914  11.350  14.475  0.0961 -0.2570 -0.2245
 6659W        W25513  16.153  13.598  10.939  0.2978 -0.0498 -0.3459
 6660W        W25514   0.376  19.117  13.910 -0.2389 -0.2607 -0.0470
 6661W        W25515  13.370  19.152   2.036  0.0646  0.0196 -0.2328
 6662W        W25516   0.100  15.820   0.145 -0.0322  0.2857 -0.0490
 6663W        W25517  10.903   4.272   2.709 -0.1315 -0.3761  0.2400
 6664W        W25518   5.914   2.621  10.582 -0.2516  0.0066  0.0139
 6665W        W25519   9.810   8.560  14.335  0.0528 -0.0274 -0.1119
 6666W        W25520  18.235  16.632   1.860  0.2193 -0.0581  0.0622
 6667W        W25521  19.011   0.632  12.631 -0.0640 -0.0129  0.0745
 6668W        W25522   4.972  12.572   3.380  0.0681  0.0860 -0.1020
 6669W        W25523   6.414  11.697   3.762  0.2168  0.3661 -0.0826
 6670W        W25524  11.144   9.050  10.515  0.3501  0.1412 -0.1737
 6671W        W25525  16.627  16.437   3.643  0.0993 -0.2476  0.0923
 6672W        W25526   7.535   3.990  12.612 -0.1408  0.2072  0.2707
 6673W        W25527   2.212   2.459   0.489  0.2075  0.0952 -0.3011
 6674W        W25528  17.776   6.946   4.052 -0.0839  0.1550 -0.0471
 6675W        W25529  10.230  17.657  11.682 -0.0441  0.0273 -0.0493
 6676W        W25530   3.307   1.978  13.359 -0.1068  0.4895 -0.0602
 6677W        W25531   7.332   2.250  11.064 -0.0674  0.1831  0.1041
 6678W        W25532   3.590  13.791   4.884 -0.0856 -0.1801 -0.0341
 6679W        W25533  16.194   0.765   0.574  0.1002 -0.2364 -0.0254
 6680W        W25534  14.913  17.145  10.917 -0.1484 -0.2265  0.2380
 6681W        W25535  14.152   1.553   1.529  0.2916  0.1083  0.1457
 6682W        W25536  12.339   4.500   0.552 -0.1200  0.1503  0.0368
 6683W        W25537   5.298   0.935   1.989 -0.2862  0.0848  0.0775
 6684W        W25538   7.519  17.008  12.939  0.2656 -0.2942  0.0228
 6685W        W25539  13.941   8.076   3.094 -0.1614  0.2980  0.1232
 6686W        W25540  15.772  15.791  13.420  0.0602  0.1004  0.1295
 6687W        W25541   1.077   5.746   0.330  0.0487 -0.2917 -0.1871
 6688W        W25542   8.278  16.260   2.478  0.1923  0.0344  0.1832
 6689W        W25543   7.899  19.058   0.442 -0.1903 -0.0263  0.3543
 6690W        W25544  17.458   5.993  11.856  0.1570 -0.3561 -0.3289
 6691W        W25545   1.717  11.707   0.192  0.0918 -0.0272  0.3584
 6692W        W25546  15.591   6.899   3.426 -0.0595 -0.3469  0.2164
 6693W        W25547  12.746  16.550   3.986  0.0790  0.0230 -0.0439
 6694W        W25548   3.996  12.915   3.257 -0.2540  0.0022  0.0347
 6695W        W25549   5.997   6.760  13.703 -0.1842  0.0768 -0.1451
 6696W        W25550  18.442  18.180  13.067 -0.0927  0.1004  0.2140
 6697W        W25551  16.033  10.275  11.992  0.3441  0.2284  0.3344
 6698W        W25552  19.040  10.822   4.717  0.0678 -0.2863  0.1555
 6699W        W25553   8.237   9.836  13.339 -0.1018 -0.0519 -0.0080
 6700W        W25554   6.419  10.095  10.330 -0.4227 -0.1875 -0.4249
 6701W        W25555  18.059   5.820   3.768  0.2025 -0.1875  0.0409
 6702W        W25556   0.999  11.795  12.580  0.4545  0.1829 -0.1472
 6703W        W25557   0.110   6.242   1.683  0.1919  0.2844  0.1227
 6704W        W25558   3.774   5.981  13.528  0.1555 -0.0086 -0.0715
 6705W        W25559  10.929   5.409  11.508 -0.0821  0.2317 -0.0601
 6706W        W25560  15.526  18.899   0.540  0.4243 -0.0905 -0.0225
 6707W        W25561   7.344   9.365   2.641 -0.1523  0.0706 -0.1520
 6708W        W25562   8.846   6.421   0.912 -0.0238  0.0425  0.2137
 6709W        W25563  12.968  12.134   2.579  0.2629 -0.0703  0.1588
 6710W        W25564  11.618  17.857   0.948 -0.1822 -0.2454 -0.1055
 6711W        W25565   7.402   0.070  14.489  0.0127  0.2047  0.1960
 6712W        W25566  14.747  15.245   2.006  0.1355 -0.3660  0.1085
 6713W        W25567  11.079  11.931  14.643  0.0386 -0.0687 -0.0892
 6714W        W25568   5.027   2.537  12.717  0.3402 -0.1307 -0.0809
 6715W        W25569  14.356   2.240   0.828  0.0289 -0.2318  0.0027
 6716W        W25570   6.139   1.148   3.671 -0.0050  0.1653  0.3365
 6717W        W25571  14.808  13.212  11.267  0.1340 -0.0614 -0.0298
 6718W        W25572  15.239   1.842  12.111  0.1434 -0.3060  0.0980
 6719W        W25573  18.761  13.831  12.344 -0.0053  0.0270 -0.2156
 6720W        W25574  13.270  12.866  12.954  0.4530 -0.1033  0.0000
 6721W        W25575  13.291   9.940   1.772 -0.2048  0.0436  0.2281
 6722W        W25576   5.653  10.450  13.267 -0.1317 -0.2545  0.0171
 6723W        W25577  15.321  14.557   1.510 -0.0146  0.2488 -0.1506
 6724W        W25578  13.597  12.337   2.697 -0.2908  0.0880  0.2023
 6725W        W25579   3.248   7.774   1.725  0.1374  0.1811  0.0784
 6726W        W25580   4.193  10.052   1.995 -0.0403 -0.0919  0.2990
 6727W        W25581  15.789   3.446  12.672  0.0672 -0.0506  0.0099
 6728W        W25582   7.851  11.823   0.885  0.2429  0.2576 -0.0261
 6729W        W25583   8.228   4.168   2.116 -0.1329  0.0140 -0.0068
 6730W        W25584   9.969  13.347   0.458 -0.1150 -0.3226 -0.2525
 6731W        W25585   3.718   8.920   1.638 -0.1466 -0.0170 -0.1813
 6732W        W25586  16.821  12.463   4.374 -0.0755 -0.0500  0.0541
 6733W        W25587   6.885   5.033  10.121  0.3328  0.2170 -0.0921
 6734W        W25588   1.257   5.390   3.913  0.1748 -0.0692 -0.0669
 6735W        W25589   3.404  14.330  14.378  0.2043 -0.0848 -0.0729
 6736W        W25590   2.813   2.385   0.944  0.0490 -0.0795 -0.0089
 6737W        W25591   5.833   4.899   4.375 -0.0514  0.0959 -0.0000
 6738W        W25592   5.398  11.856   4.129  0.2713  0.3795  0.0766
 6739W        W25593  12.956   6.297   2.838  0.0599 -0.0222  0.1285
 6740W        W25594   4.093  13.366  11.610 -0.0380  0.1639  0.0318
 6741W        W25595   7.010  15.996   0.731  0.0468  0.2807 -0.1479
 6742W        W25596   9.490   5.780  11.505  0.3183 -0.0381 -0.0304
 6743W        W25597   1.282   8.437   3.001 -0.2159  0.0974 -0.1592
 6744W        W25598   2.054  11.180   1.703 -0.0689 -0.0249 -0.0606
 6745W        W25599  16.995  13.624   2.710  0.1776 -0.0779  0.0227
 6746W        W25600  15.849   3.576   4.333  0.1582  0.1918 -0.2311
 6747W        W25601   1.306   7.199  11.651 -0.1740 -0.2485  0.1515
 6748W        W25602  10.441   0.840   2.538 -0.1668 -0.0363 -0.0753
 6749W        W25603  17.252  14.578  10.757 -0.0644 -0.0660 -0.1363
 6750W        W25604  10.383  16.030  11.422 -0.0910 -0.3690 -0.0619
 6751W        W25605  18.058   5.534   4.899  0.2223  0.3000 -0.3293
 6752W        W25606  12.579   7.314  10.411 -0.0096 -0.2855  0.1993
 6753W        W25607   4.254   2.572  10.560  0.0742  0.4256  0.0106
 6754W        W25608  12.506  10.204  14.535 -0.0314 -0.0662  0.0197
 6755W        W25609   4.572  13.004   1.175  0.0887 -0.1374  0.1689
 6756W        W25610   9.584  14.935  12.557  0.1704 -0.0234  0.4892
 6757W        W25611   1.190  16.832  11.025 -0.0273  0.0661 -0.1046
 6758W        W25612  13.676   3.465  10.818  0.2206 -0.2668 -0.2163
 6759W        W25613   5.434   2.705   2.414 -0.0515  0.2310 -0.1475
 6760W        W25614   4.008   2.157   0.323 -0.1756  0.5723 -0.0361
 6761W        W25615  16.205   9.995   3.632 -0.1421  0.0946  0.2457
 6762W        W25616   6.326   9.493   0.269 -0.0828 -0.0277  0.3751
 6763W        W25617  12.540   5.602  12.085 -0.1549  0.1550 -0.2864
 6764W        W25618   6.011  17.321   0.570 -0.1091  0.0500  0.0158
 6765W        W25619   7.866   9.202   3.875 -0.2387 -0.1655 -0.0496
 6766W        W25620  16.485  18.092   0.071  0.3331 -0.0466 -0.0959
 6767W        W25621  11.566  16.365   2.423  0.0116  0.0271 -0.3383
 6768W        W25622  16.474  11.442   3.591 -0.0633 -0.0235  0.1275
 6769W        W25623   6.282  16.939  11.666  0.0539 -0.0061 -0.0232
 6770W        W25624   5.905  10.539   2.855 -0.2622  0.0373  0.1621
 6771W        W25625  14.290  19.038  14.130  0.2265  0.0946  0.0652
 6772W        W25626   0.122  11.201   4.778  0.1250  0.0481 -0.0077
 6773W        W25627   3.237   9.478  12.348  0.0556 -0.0710  0.0040
 6774W        W25628  19.170   6.393   0.192 -0.0777  0.6750  0.0902
 6775W        W25629  14.663  17.117   1.034  0.2430  0.2628  0.3223
 6776W        W25630   5.955  19.152  11.852 -0.3297  0.0350  0.1395
 6777W        W25631   9.290   3.054  12.911  0.0031 -0.0658  0.2452
 6778W        W25632  17.522   1.686   2.860 -0.0491  0.1326  0.4282
 6779W        W25633  12.644   3.880  12.624 -0.1393 -0.0721  0.1832
 6780W        W25634  14.481   9.709  14.070 -0.2410 -0.2482  0.1405
 6781W        W25635   3.148   1.053   3.348 -0.0044 -0.1810  0.0790
 6782W        W25636  18.869  18.334  12.739 -0.1012  0.0108  0.4822
 6783W        W25637   9.735   1.944   0.415  0.0145  0.2203 -0.1890
 6784W        W25638   8.632  17.308   2.300 -0.0421 -0.3022  0.1312
 6785W        W25639  18.670  12.521   3.547 -0.2103  0.2850 -0.1190
 6786W        W25640   0.152  11.615  10.914 -0.0873 -0.1290 -0.1934
 6787W        W25641  14.717  13.913   1.765  0.1224 -0.0909  0.3582
 6788W        W25642   5.645  14.183  11.130  0.0134 -0.1956 -0.0768
 6789W        W25643   7.568   0.185   1.332  0.0651 -0.1004  0.1030
 6790W        W25644   1.823   5.042   0.309 -0.3028  0.3231  0.2585
 6791W        W25645   9.309  12.340  11.214 -0.2007  0.1672  0.0828
 6792W        W25646   9.920   6.352   0.042  0.0820 -0.0149  0.1002
 6793W        W25647   3.488  10.938  11.207  0.0493 -0.0098 -0.2560
 6794W        W25648   3.195   0.541   2.174 -0.0884  0.0903 -0.0939
 6795W        W25649  19.166  12.538  13.643  0.4368 -0.0030  0.1498
 6796W        W25650   4.632  12.480   2.909 -0.0073 -0.0441  0.0004
 6797W        W25651  15.190   3.901  11.633 -0.0066 -0.2775  0.0057
 6798W        W25652  10.584  13.873   0.933  0.1700  0.1149  0.1607
 6799W        W25653   0.571   6.373   1.395 -0.0332  0.2979  0.1398
 6800W        W25654   4.482   6.745  12.641 -0.0968 -0.0943 -0.2774
 6801W        W25655  18.693  12.079   0.188 -0.0463  0.2224  0.0797
 6802W        W25656   9.114   6.176  11.271  0.2053 -0.2696  0.0354
 6803W        W25657  15.356   8.692  11.459  0.0277 -0.2678  0.2549
 6804W        W25658  15.264  10.746  13.379  0.1638 -0.0411  0.1067
 6805W        W25659   5.713  11.275   3.629 -0.3072 -0.0538 -0.2350
 6806W        W25660  10.891  10.820   0.690 -0.0241 -0.1926 -0.2663
 6807W        W25661  11.187  13.795  14.393  0.3205  0.0335 -0.4423
 6808W        W25662   3.444  16.175  11.366  0.1692 -0.2870  0.0629
 6809W        W25663  13.646  10.542  10.847 -0.1746 -0.3622  0.0274
 6810W        W25664  14.491  15.844   0.084  0.1630  0.1640 -0.1089
 6811W        W25665   0.345   2.526   4.080 -0.3593  0.0020 -0.0459
 6812W        W25666   1.533   3.893  13.000 -0.2303 -0.4257  0.2505
 6813W        W25667   7.379   4.020   2.759  0.0723 -0.1938  0.1316
 6814W        W25668   7.648  13.355   0.651 -0.1191  0.1930  0.1890
 6815W        W25669   0.727  10.599   2.347  0.1960 -0.3048  0.0582
 6816W        W25670  17.708   2.402   4.014 -0.0955 -0.3786 -0.2436
 6817W        W25671  11.655  12.150  10.516 -0.2370 -0.3808  0.2461
 6818W        W25672   6.976  18.940  13.111  0.3263  0.1590  0.1724
 6819W        W25673  18.468  14.777  14.315 -0.1150  0.0456 -0.1630
 6820W        W25674  11.691  11.661  11.916 -0.1005 -0.0105  0.2649
 6821W        W25675  12.266  16.728   5.668  0.0325 -0.1631 -0.0063
 6822W        W25676   5.387  18.882  14.221  0.0451 -0.2098  0.0109
 6823W        W25677  10.284   0.993  11.267 -0.2579  0.1342  0.0308
 6824W        W25678  18.478  10.790  14.424 -0.1541 -0.2303  0.2268
 6825W        W25679   7.734   4.548   0.707 -0.1480 -0.1586  0.0732
 6826W        W25680   6.558  19.148  12.808  0.1003  0.1340  0.0268
 6827W        W25681  15.833  15.214   3.676 -0.0575  0.1456 -0.1750
 6828W        W25682  12.377  11.960   0.102 -0.0821  0.0588 -0.0148
 6829W        W25683   7.774  17.627   3.699 -0.1270 -0.2391 -0.0097
 6830W        W25684   6.949  16.344   4.985  0.2450 -0.0077 -0.3436
 6831W        W25685  13.886   3.126  11.740 -0.2990 -0.1419  0.2115
 6832W        W25686  15.725   7.926   9.460 -0.2107  0.0637  0.1821
 6833W        W25687   2.266   6.445   3.991 -0.1171  0.2991  0.1572
 6834W        W25688   5.154  17.028   0.708 -0.0011 -0.0824 -0.0799
 6835W        W25689   6.651  15.182   1.534 -0.3288 -0.0146 -0.0768
 6836W        W25690   1.408  12.989  10.992 -0.4597  0.3270  0.1818
 6837W        W25691  16.473   1.302  12.574  0.1976 -0.5095  0.0347
 6838W        W25692   7.954   2.720  12.073  0.3216 -0.0952  0.2683
 6839W        W25693  19.128   6.859  13.886 -0.1184  0.2877  0.1694
 6840W        W25694  11.696  11.120  10.580  0.2197 -0.1686  0.0407
 6841W        W25695   6.061   7.180   3.478 -0.3242 -0.1066  0.3016
 6842W        W25696   3.901   8.065   0.228 -0.0601  0.0966  0.2003
 6843W        W25697   7.084  14.107   0.636  0.3391 -0.0961  0.0226
 6844W        W25698   9.911   2.086   0.874 -0.0563 -0.0602 -0.0059
 6845W        W25699   4.671  11.536   2.381 -0.2498 -0.1496  0.1830
 6846W        W25700   4.967   5.316  10.450  0.3186  0.0286 -0.0250
 6847W        W25701  13.588   1.958   0.340  0.0668 -0.1744  0.2170
 6848W        W25702   9.682   4.439   3.524  0.1274 -0.1353  0.0112
 6849W        W25703   2.175   0.468  14.486  0.0327  0.0554 -0.0301
 6850W        W25704  12.132  13.426   0.018  0.0144  0.0525  0.2162
 6851W        W25705  14.588   5.276   1.315  0.0010  0.0078 -0.0969
 6852W        W25706  18.839  18.875  10.138 -0.0093  0.0535  0.0133
 6853W        W25707  17.768   3.684  14.109 -0.1394 -0.0772 -0.2442
 6854W        W25708  18.296  14.609   4.225 -0.0923 -0.1343 -0.1456
 6855W        W25709  12.832  18.611  12.356 -0.4141  0.4971  0.4343
 6856W        W25710   8.903  17.411  14.344 -0.3160  0.1510  0.0167
 6857W        W25711  12.444  14.485   2.775  0.3435 -0.0743 -0.0920
 6858W        W25712  12.150  17.594  11.620  0.0312 -0.0657 -0.0040
 6859W        W25713  16.442   3.033  11.723 -0.1460  0.0128  0.0906
 6860W        W25714  17.887  12.522   4.106  0.0350 -0.0718 -0.2657
 6861W        W25715   2.443  16.921   2.734 -0.2036  0.5337 -0.2351
 6862W        W25716   7.216  17.765   1.820 -0.1409 -0.1442 -0.0765
 6863W        W25717   8.465   5.937   2.340  0.1032 -0.2235 -0.3339
 6864W        W25718  10.850  16.423   1.873  0.1181  0.2240 -0.0275
 6865W        W25719   6.117  17.328  12.938 -0.2891 -0.0697  0.1185
 6866W        W25720  18.058  14.805  13.296 -0.0101 -0.1463  0.0891
 6867W        W25721  16.501   3.861   0.651  0.1871  0.0716  0.0407
 6868W        W25722   0.727  15.513  13.422 -0.2411  0.1478  0.0083
 6869W        W25723   3.010  15.501  12.954  0.0019 -0.0286  0.1408
 6870W        W25724   6.325  12.696  11.620  0.0165 -0.1412  0.6312
 6871W        W25725   3.300  11.375   0.039 -0.0498  0.0540 -0.2068
 6872W        W25726   1.511  10.406   0.102  0.0543 -0.0118  0.0371
 6873W        W25727   7.320   5.073  13.959  0.2003 -0.1617 -0.1901
 6874W        W25728  17.764  16.558  13.506 -0.1065 -0.0582  0.0411
 6875W        W25729  14.760  16.945  12.701  0.0971  0.0573  0.1213
 6876W        W25730   7.709  15.782   1.667  0.0782 -0.0713 -0.0422
 6877W        W25731  17.311   4.227  10.559 -0.0677  0.1264 -0.4016
 6878W        W25732  14.167  12.507  14.031  0.1884 -0.1834  0.1147
 6879W        W25733  15.569   6.947   0.864  0.1659  0.2280 -0.0614
 6880W        W25734   0.431  17.912   2.747 -0.2511 -0.2010  0.0824
 6881W        W25735  13.256   3.405  11.081 -0.4993 -0.0250 -0.0482
 6882W        W25736  10.980  12.604  10.778  0.0663  0.1253 -0.2949
 6883W        W25737  11.840  14.367   3.342  0.1013  0.2449  0.0964
 6884W        W25738  14.708   9.916  13.431  0.2041  0.1158  0.1208
 6885W        W25739   3.404   6.781   3.882  0.0722  0.4816  0.2542
 6886W        W25740   1.213  14.421   3.370  0.0947  0.1648 -0.0159
 6887W        W25741   2.607   2.558  13.134  0.1882 -0.2208  0.1945
 6888W        W25742   3.018  18.868   3.477  0.2332 -0.0136  0.1701
 6889W        W25743   1.568   9.280  10.221  0.1085 -0.0708 -0.1849
 6890W        W25744   4.670  10.223  11.399 -0.1602  0.0279  0.0708
 6891W        W25745   5.319  16.967   2.306 -0.1610 -0.4131 -0.1226
 6892W        W25746  13.943  13.370   3.746 -0.0255 -0.0849 -0.1852
 6893W        W25747   7.064  18.615  10.446  0.0682  0.0516 -0.2425
 6894W        W25748   6.023   5.122  14.492  0.1504  0.0660  0.2270
 6895W        W25749   6.509  14.195  13.471  0.2178 -0.0173  0.1063
 6896W        W25750  12.345   2.489  14.154 -0.3100  0.1043 -0.1153
 6897W        W25751  13.765   7.974  13.979 -0.1554  0.0217 -0.3107
 6898W        W25752  16.259  14.724   0.905 -0.3478 -0.4072  0.0976
 6899W        W25753   5.614   8.763   1.059  0.0838 -0.0179  0.0358
 6900W        W25754   5.515   0.628  13.393 -0.0744 -0.2026  0.1458
 6901W        W25755   8.356  15.572   0.023  0.1154 -0.0688 -0.1420
 6902W        W25756   9.140   2.294   4.911 -0.3289 -0.2206 -0.1128
 6903W        W25757  16.388   0.987   2.001 -0.1155 -0.5314 -0.2127
 6904W        W25758   0.383   4.825  12.933  0.2402 -0.0284 -0.0757
 6905W        W25759   3.773  18.590   9.545 -0.1960 -0.4328  0.0862
 6906W        W25760   3.948  18.718   2.431  0.0444 -0.1833  0.0755
 6907W        W25761  13.803  14.030  12.263  0.2754  0.1095  0.1923
 6908W        W25762   0.418  18.456   2.808  0.1108 -0.0384  0.0063
 6909W        W25763  11.229  16.196  14.348  0.1904  0.4807  0.1726
 6910W        W25764   7.896   5.594  14.263 -0.1750  0.1039 -0.0746
 6911W        W25765   0.138  18.681  11.492 -0.2837 -0.2499  0.1626
 6912W        W25766  12.185   0.828  13.167 -0.2757  0.1096 -0.0383
 6913W        W25767   8.466   2.441   0.575  0.0536  0.0606  0.2194
 6914W        W25768   5.631  13.898   0.673  0.0503 -0.0361 -0.3375
 6915W        W25769   4.367  18.980   4.127 -0.0741  0.1103  0.0490
 6916W        W25770   5.564   9.350   2.172 -0.0398 -0.1109 -0.4341
 6917W        W25771  11.941   1.823  12.540 -0.1096 -0.1473  0.1262
 6918W        W25772   1.570  14.559  11.317 -0.1868  0.0536 -0.1414
 6919W        W25773  11.248  15.639   4.095 -0.2310  0.1564 -0.0207
 6920W        W25774   3.358  18.006  12.050 -0.2339  0.1380 -0.0900
 6921W        W25775   8.573  13.120  14.671 -0.2487  0.1588  0.0508
 6922W        W25776   3.675  17.584   1.085  0.0712  0.0388 -0.1088
 6923W        W25777  14.455  11.132   0.709 -0.2321 -0.2829  0.0658
 6924W        W25778   8.865   5.696   2.011 -0.1267 -0.0473  0.1512
 6925W        W25779   6.909   2.058  13.512  0.1238  0.0284  0.2744
 6926W        W25780  14.362   6.275  11.173 -0.3593  0.1552  0.0430
 6927W        W25781  14.500  13.387  12.083  0.2874 -0.2684 -0.1474
 6928W        W25782  13.578  14.655   3.238  0.1918 -0.0852 -0.0494
 6929W        W25783  16.113  13.174  14.672 -0.4124 -0.1234 -0.0246
 6930W        W25784   6.915   0.601  11.340  0.0077  0.1836 -0.3583
 6931W        W25785  12.222   5.678  12.633 -0.0772  0.0804  0.0303
 6932W        W25786   8.718   8.912   3.467 -0.3773  0.2450  0.2679
 6933W        W25787   5.524   6.137  14.057 -0.0738 -0.0010  0.2460
 6934W        W25788   8.610   0.493   0.378 -0.1975  0.0385  0.2357
 6935W        W25789   3.192  13.754  12.573  0.2000 -0.2298 -0.0998
 6936W        W25790  14.893  13.262  13.338  0.0566  0.4700  0.1215
 6937W        W25791  11.298   4.679   4.414 -0.1625  0.0799 -0.1163
 6938W        W25792  16.734   2.574  12.542  0.0721 -0.0879 -0.0037
 6939W        W25793   0.134  16.551  10.610 -0.0091  0.1101 -0.1982
 6940W        W25794   7.325   2.154  14.605  0.2427 -0.3113 -0.2437
 6941W        W25795  14.567  18.963   1.964 -0.4368  0.0457 -0.1378
 6942W        W25796  17.774  18.152   0.185  0.1254 -0.1473 -0.0161
 6943W        W25797   2.099   7.085   1.846 -0.2680  0.1601  0.0227
 6944W        W25798  13.398   7.161  11.977 -0.0990 -0.0530 -0.0924
 6945W        W25799   6.580  11.421   3.259 -0.3848  0.0726 -0.0832
 6946W        W25800  13.783  14.265   3.508  0.1499  0.1562  0.1427
 6947W        W25801  11.176   1.506   0.557 -0.3598  0.1755  0.2558
 6948W        W25802  15.261   5.291  12.735 -0.1009  0.0395 -0.0242
 6949W        W25803   7.961   1.291  11.892 -0.0415  0.2122  0.1146
 6950W        W25804  14.898  12.575   9.502 -0.1152 -0.1922  0.0440
 6951W        W25805   8.580   3.877   0.740  0.0796  0.2033  0.1868
 6952W        W25806   5.829   6.795   1.866 -0.0455 -0.1385 -0.0835
 6953W        W25807  16.535  10.255   3.354 -0.1922  0.1952  0.0463
 6954W        W25808   0.304   2.925  12.454  0.0199 -0.0762 -0.1643
 6955W        W25809  10.451   3.041   0.962  0.1141 -0.1140  0.0188
 6956W        W25810  14.072   2.003  11.105  0.2303  0.2328  0.0596
 6957W        W25811  17.388   2.306   0.094 -0.2855  0.0336  0.2030
 6958W        W25812  10.210   1.061   3.040  0.0345  0.1733  0.1510
 6959W        W25813   2.669  10.436  12.077 -0.1860  0.0881  0.2416
 6960W        W25814   8.846   8.085  11.832  0.1444 -0.2908 -0.1147
 6961W        W25815  16.430  15.656  13.127  0.2917 -0.2232 -0.3233
 6962W        W25816  12.150  14.854   0.703  0.0790  0.1821 -0.1419
 6963W        W25817  17.975   1.059   2.428 -0.0843 -0.1487  0.0517
 6964W        W25818   0.818  17.098  14.720  0.0064 -0.0008 -0.2789
 6965W        W25819   2.192   2.236   3.823 -0.0025  0.4433  0.0127
 6966W        W25820  15.213   6.779   4.333  0.2573  0.0363  0.2115
 6967W        W25821   6.771   3.214  14.478  0.1544 -0.1905  0.0259
 6968W        W25822  17.911  16.763   0.436  0.0658 -0.0469  0.4685
 6969W        W25823  14.018   1.294  14.032  0.0205  0.1043  0.3181
 6970W        W25824   4.049   6.516   3.117  0.0205  0.1569  0.3543
 6971W        W25825   3.212  16.942   0.909 -0.0167  0.1496 -0.2543
 6972W        W25826   9.159   6.943   4.615 -0.2087  0.1477 -0.2941
 6973W        W25827   8.666   8.541  10.390  0.0034  0.6342  0.0877
 6974W        W25828  12.890   3.785   9.354 -0.1907 -0.0122  0.0157
 6975W        W25829   9.946   7.006   2.032  0.0021 -0.0770  0.1633
 6976W        W25830  15.572  12.598   2.421 -0.0251 -0.3828 -0.0253
 6977W        W25831  17.959   1.924   2.027 -0.0690 -0.0151 -0.2162
 6978W        W25832   4.043  13.295   2.910 -0.4902  0.0755 -0.2685
 6979W        W25833   1.900  16.009   3.690  0.1904  0.0118  0.2597
 6980W        W25834   1.070   9.701   0.841 -0.0561 -0.1537  0.1136
 6981W        W25835  10.702   0.182  11.768 -0.1162  0.0945 -0.1351
 6982W        W25836   2.835   9.905  10.315 -0.0636 -0.2236  0.0592
 6983W        W25837   5.892  11.632  11.478  0.1235 -0.0522 -0.0197
 6984W        W25838  10.193  14.311  10.605 -0.2716  0.2472 -0.0114
 6985W        W25839  15.049  15.864   4.505  0.2082 -0.1447  0.0521
 6986W        W25840   2.349   9.909   2.992 -0.0132  0.4093  0.0278
 6987W        W25841  16.501   8.543  10.750  0.1459 -0.0267  0.2469
 6988W        W25842  17.460   6.474   0.717  0.0217  0.1325 -0.4157
 6989W        W25843  17.077  15.258  13.921  0.0795  0.0262 -0.0122
 6990W        W25844   8.440  14.088  12.780 -0.0082 -0.0110 -0.3669
 6991W        W25845  14.809   0.353  10.795 -0.0064 -0.1502  0.2040
 6992W        W25846  16.198  13.693   4.339  0.0269  0.1168  0.1711
 6993W        W25847  11.153  15.696  12.906 -0.1282 -0.0774 -0.0766
 6994W        W25848   9.198  18.048   2.196 -0.1281  0.0955  0.1283
 6995W        W25849   0.436  11.649   1.235 -0.2514 -0.1711  0.1968
 6996W        W25850   9.495  10.052  12.983  0.0618 -0.2566  0.1387
 6997W        W25851   9.139  14.277   3.815  0.2376  0.1044 -0.2956
 6998W        W25852  15.547  10.657  12.746  0.0323  0.2414 -0.0891
 6999W        W25853  15.242  12.485  13.497  0.1256 -0.3551 -0.1742
 7000W        W25854   9.716   7.459   3.657 -0.6156 -0.1804 -0.1984
 7001W        W25855  10.499   7.355   0.794 -0.0892  0.1942  0.0211
 7002W        W25856  11.811  10.632  10.830  0.2571 -0.2601 -0.1627
 7003W        W25857   6.295  19.107  13.318  0.1594 -0.0256  0.0747
 7004W        W25858  14.097  18.613  13.948  0.1582  0.2842 -0.2030
 7005W        W25859  17.919   7.900  11.177  0.0597 -0.0124 -0.2825
 7006W        W25860   1.404   8.656  11.321  0.0290 -0.3651  0.0023
 7007W        W25861  13.234  18.257  13.970 -0.3211 -0.0880 -0.0171
 7008W        W25862   8.426   2.908  13.333  0.1888 -0.1464 -0.2264
 7009W        W25863   4.884  10.944  11.122 -0.1833 -0.0728 -0.1306
 7010W        W25864   1.086  11.343   2.524  0.2504 -0.2171 -0.1664
 7011W        W25865   1.986  10.518  12.228 -0.1223  0.0556 -0.0430
 7012W        W25866   0.435  15.933  13.940  0.0470  0.1507  0.1042
 7013W        W25867   3.319   5.676  13.469 -0.2422  0.4300 -0.1370
 7014W        W25868   8.586  13.176   1.745 -0.0416  0.1147  0.1335
 7015W        W25869  12.693   4.454   3.408 -0.0832 -0.0259 -0.2403
 7016W        W25870  17.277   8.258  13.003 -0.0132 -0.0920  0.0408
 7017W        W25871   4.171   9.364  10.466 -0.3230  0.1699  0.1835
 7018W        W25872   0.870   1.894   0.320  0.1369  0.1093 -0.0170
 7019W        W25873   3.721   5.889   3.976 -0.0468 -0.2299  0.2116
 7020W        W25874   2.556  18.735  12.763 -0.3258 -0.0853  0.1488
 7021W        W25875   9.161   6.131   0.651 -0.5990 -0.1092 -0.2369
 7022W        W25876   8.894  16.772   0.314 -0.0473  0.1908  0.3150
 7023W        W25877   5.766  15.080  14.612  0.1584  0.1901 -0.1687
 7024W        W25878  16.058  15.172  10.674 -0.0443 -0.0312  0.0601
 7025W        W25879  17.704  10.927   3.242 -0.2638 -0.4503 -0.2481
 7026W        W25880   3.628  12.817   2.179 -0.0920  0.1393  0.2813
 7027W        W25881  18.028  11.439   0.473  0.3688  0.4433  0.0787
 7028W        W25882  16.824  17.738   0.231  0.0726  0.0645  0.0801
 7029W        W25883   9.721   7.707   2.683 -0.2040  0.4349  0.0376
 7030W        W25884  10.760   4.541  14.152 -0.1933 -0.0365 -0.1756
 7031W        W25885   9.948  18.476  12.616  0.1961  0.0522 -0.0864
 7032W        W25886  15.817   3.506  14.694  0.0453 -0.0506  0.2689
 7033W        W25887  11.678  14.686   4.276  0.2007 -0.0484  0.1346
 7034W        W25888   4.767   4.399  10.606 -0.2014  0.1167  0.0887
 7035W        W25889  18.472  10.699  11.801  0.0123 -0.0803 -0.0914
 7036W        W25890   9.983  18.117   0.893  0.3553  0.1032  0.1037
 7037W        W25891   4.329   2.256  13.660 -0.3590  0.0914  0.1321
 7038W        W25892   8.183   8.464   1.774  0.1089  0.2273  0.1755
 7039W        W25893  15.572  12.850  10.824  0.0306 -0.0544  0.0703
 7040W        W25894   9.049   8.782   0.005 -0.0607  0.0017 -0.3353
 7041W        W25895   5.749  18.516  10.975 -0.0539  0.2479 -0.0398
 7042W        W25896  10.813   0.295   0.687  0.0743 -0.0323 -0.1043
 7043W        W25897   1.718  15.837  12.955 -0.0095 -0.1263  0.0062
 7044W        W25898   0.757  13.663  10.995  0.0728  0.0113 -0.0008
 7045W        W25899  18.228   3.593   2.822  0.2131 -0.0089  0.3886
 7046W        W25900  13.436   5.870   0.834  0.1292 -0.0688 -0.1755
 7047W        W25901   3.159   8.631   3.579 -0.1741 -0.1339 -0.1025
 7048W        W25902  11.648  18.037   3.644  0.1696  0.2213 -0.0185
 7049W        W25903   9.656  14.187   4.001 -0.0493 -0.1852  0.2169
 7050W        W25904   4.141   1.509  12.938 -0.2317 -0.1454  0.0701
 7051W        W25905  16.614  12.895   2.443  0.2223 -0.1258 -0.0451
 7052W        W25906   5.342   4.345  13.913  0.1120 -0.2288  0.0008
 7053W        W25907  12.196  12.480   1.913  0.2119 -0.0464 -0.0376
 7054W        W25908  13.906  16.502   4.815 -0.1887  0.0799  0.2319
 7055W        W25909  13.592  15.091   3.695  0.2163  0.0854 -0.0555
 7056W        W25910  17.968  15.071  14.166  0.2514  0.2915 -0.0980
 7057W        W25911  18.672   3.586   0.943  0.0455 -0.0936 -0.1430
 7058W        W25912  16.445  11.644   0.455 -0.2981  0.3523  0.2664
 7059W        W25913  16.459  12.900  10.356 -0.1644  0.0364  0.1768
 7060W        W25914   0.651  16.282   4.905 -0.1441 -0.4797 -0.1267
 7061W        W25915   6.034  10.713  13.470 -0.2322  0.3793  0.1365
 7062W        W25916  14.365   1.601   2.047 -0.1154 -0.2071 -0.0856
 7063W        W25917   1.707  16.325   4.085 -0.1138  0.0695 -0.1209
 7064W        W25918  18.436   7.049   0.737 -0.0070 -0.0291 -0.2464
 7065W        W25919  13.964  14.553   0.556 -0.0875  0.0519  0.1200
 7066W        W25920  18.292   9.509  13.155  0.4696  0.1312 -0.1996
 7067W        W25921  13.442  12.803   4.115 -0.0704  0.0912  0.3234
 7068W        W25922   9.482  17.033   3.449  0.0294 -0.1760 -0.2645
 7069W        W25923   6.242   8.182   2.270 -0.5499 -0.3758 -0.5085
 7070W        W25924  13.459   4.928   1.311  0.3162 -0.0903  0.1130
 7071W        W25925   3.477  17.784  13.207  0.0699  0.0953  0.1154
 7072W        W25926   5.325  17.865   2.064 -0.0731  0.0934  0.0291
 7073W        W25927   6.945  16.582  11.968 -0.0158  0.3416 -0.2721
 7074W        W25928   2.788  14.764  12.168 -0.1393 -0.2162  0.2290
 7075W        W25929   9.460   7.062   1.367  0.0163  0.1964 -0.2243
 7076W        W25930   3.057   3.734   0.591 -0.1351  0.0157 -0.0457
 7077W        W25931  12.455  15.186   1.437 -0.0458  0.2511  0.0410
 7078W        W25932   2.088   1.228  11.643  0.0714 -0.1458 -0.1501
 7079W        W25933   9.910  16.574  14.704 -0.0437  0.1346  0.0109
 7080W        W25934   8.946   6.903   1.689 -0.0542  0.0251  0.1396
 7081W        W25935   2.935   8.972  14.647  0.0224 -0.0632  0.4446
 7082W        W25936  17.786   1.109   3.251  0.0282  0.2958  0.0099
 7083W        W25937   4.523  17.784   3.363 -0.0435  0.3545 -0.1177
 7084W        W25938   6.327   6.820   3.808 -0.1603  0.2848 -0.0202
 7085W        W25939  12.670   6.013  14.195 -0.0518 -0.0090  0.1500
 7086W        W25940  19.040  14.235   4.408  0.0050 -0.2284 -0.0275
 7087W        W25941  11.903   1.406   3.334 -0.1131  0.1421 -0.2960
 7088W        W25942  10.783  17.696  11.801 -0.2696  0.4264  0.0640
 7089W        W25943  17.856   1.475  13.232  0.0635  0.0272  0.0207
 7090W        W25944  11.557  13.719  11.500 -0.0101 -0.1173  0.2124
 7091W        W25945   2.778  12.773   0.549 -0.0330  0.1694  0.1653
 7092W        W25946   9.217  17.513  10.448 -0.0397 -0.0144 -0.2173
 7093W        W25947  11.200   6.557   2.952  0.0578  0.0507 -0.2967
 7094W        W25948  12.361  10.902  13.549  0.1368 -0.1476  0.1894
 7095W        W25949   6.411   6.276  13.058  0.3018  0.0097  0.0311
 7096W        W25950   2.004  17.720  14.218 -0.1300 -0.6531  0.0849
 7097W        W25951   2.879   2.278  13.558  0.1270  0.1409 -0.0300
 7098W        W25952  13.133  13.597   0.521 -0.1547  0.1802 -0.3132
 7099W        W25953  16.613   2.801   1.491  0.0446 -0.5169  0.1079
 7100W        W25954  14.996  15.188   3.169 -0.1137 -0.1187 -0.0124
 7101W        W25955   3.031   7.214   3.157  0.1223 -0.2151  0.2678
 7102W        W25956  12.321   6.814   3.733 -0.0456  0.1092  0.2791
 7103W        W25957   9.366   6.465  13.347  0.4273 -0.2680  0.2458
 7104W        W25958   8.541   0.389   4.218 -0.0326  0.4439 -0.2379
 7105W        W25959  11.409   6.771  12.521 -0.2691  0.1818 -0.0329
 7106W        W25960   7.922   1.433   1.199 -0.0176  0.2452 -0.6232
 7107W        W25961  10.212   2.781   2.787 -0.4675 -0.0352  0.0510
 7108W        W25962   7.207  10.888  12.213 -0.0026  0.1181  0.0346
 7109W        W25963   5.002  19.134  13.895 -0.2309 -0.0031  0.0022
 7110W        W25964   3.381   7.033  12.768  0.2125  0.0552  0.2874
 7111W        W25965   6.461  10.694   2.897  0.0564  0.0084 -0.2118
 7112W        W25966   5.021   1.564  10.810  0.1379  0.3179 -0.2445
 7113W        W25967  10.714  18.066  14.640 -0.3024  0.1124 -0.1054
 7114W        W25968   3.515  10.568   0.388  0.0069 -0.0546  0.2251
 7115W        W25969  14.001  15.813  14.545 -0.0511 -0.0520 -0.0098
 7116W        W25970   5.408   4.446   2.522 -0.0958 -0.1905 -0.0078
 7117W        W25971  17.645   9.450  10.688 -0.2768  0.0556 -0.1267
 7118W        W25972   4.940   9.625   1.433 -0.0473  0.0228 -0.0810
 7119W        W25973  17.100   6.624   1.929 -0.1257 -0.0431  0.2970
 7120W        W25974  16.992  11.661   0.361 -0.0165 -0.1120  0.0174
 7121W        W25975   8.447   9.060  10.487  0.1502 -0.0544 -0.0747
 7122W        W25976   8.133   4.364  11.313  0.2227  0.3619  0.1148
 7123W        W25977  16.608   0.096  10.687  0.0678  0.4151 -0.1380
 7124W        W25978   3.028  16.906   2.073  0.1832 -0.1941 -0.0021
 7125W        W25979  12.093  10.384  12.813  0.0360 -0.1883 -0.0633
 7126W        W25980  12.716  17.983  12.292 -0.3168  0.1286  0.1053
 7127W        W25981   8.696  17.724  12.344  0.0780 -0.1258 -0.0188
 7128W        W25982  11.184   1.163   3.202  0.0115 -0.1744  0.0393
 7129W        W25983   1.087  18.558  11.748  0.2612  0.3396 -0.1366
 7130W        W25984   1.532  17.030   4.268 -0.3437  0.2632 -0.0529
 7131W        W25985  18.800   5.103   3.913 -0.2464 -0.3333  0.1258
 7132W        W25986   3.859   5.865   4.529 -0.3037  0.0418  0.1186
 7133W        W25987   7.946  13.044   0.302  0.3898 -0.2841  0.0100
 7134W        W25988   6.777   1.714   3.225 -0.1201 -0.1343 -0.1101
 7135W        W25989  14.663   8.553   4.014  0.0210  0.3408  0.3226
 7136W        W25990  17.662   5.176  14.254 -0.0029  0.0759 -0.2953
 7137W        W25991   4.781   1.835  12.653  0.0712 -0.2222  0.2784
 7138W        W25992   1.545  11.489  11.319  0.1391  0.0845 -0.0672
 7139W        W25993  16.571  13.387   4.258  0.0690 -0.1032  0.0228
 7140W        W25994  16.287  10.534   1.559 -0.1510 -0.3079 -0.0420
 7141W        W25995   6.914  11.986   3.586 -0.2168 -0.2062 -0.0008
 7142W        W25996   7.538  12.736  10.963 -0.0555  0.0769  0.0420
 7143W        W25997   8.386   5.698  12.546 -0.2650 -0.3336 -0.0261
 7144W        W25998  17.235  14.626  11.764  0.0371 -0.1851 -0.2845
 7145W        W25999  11.257   4.701   2.706  0.0492 -0.0226  0.1649
 7146W        W26000   5.685   6.219   1.541 -0.2799  0.2845 -0.1123
 7147W        W26001   9.659   7.777   4.393  0.0003  0.0537  0.1938
 7148W        W26002  12.949  19.064  12.570  0.1437  0.2479 -0.1009
 7149W        W26003  17.693   9.614   3.784 -0.3938  0.1349 -0.1185
 7150W        W26004  14.124   1.907   0.489  0.0950  0.0832 -0.0048
 7151W        W26005   0.340  11.260   5.720 -0.0191  0.0924  0.1500
 7152W        W26006   2.246  13.903  11.620 -0.1064  0.0721  0.0593
 7153W        W26007   5.709   5.443   1.418 -0.1187  0.1300 -0.0838
 7154W        W26008  14.736   9.512   1.110  0.3049  0.0583  0.1654
 7155W        W26009  13.158  10.786   0.099  0.3862 -0.3292 -0.0671
 7156W        W26010   8.727   0.187  10.094 -0.1230 -0.3528 -0.0642
 7157W        W26011  14.606  11.670   1.395 -0.0834 -0.1468 -0.1578
 7158W        W26012   0.466   7.143  11.282  0.2736  0.3251  0.1347
 7159W        W26013   8.579   6.823   2.596 -0.1807 -0.2408  0.3031
 7160W        W26014   0.849   8.595  12.811  0.1034  0.1816 -0.2903
 7161W        W26015   3.127  17.260   2.955 -0.0008  0.0933  0.1609
 7162W        W26016   1.323  18.441  13.094  0.0624 -0.3730  0.2689
 7163W        W26017   3.430   9.780  14.614 -0.3175  0.0095 -0.4028
 7164W        W26018   9.889  17.963  10.755 -0.0263 -0.1007 -0.3266
 7165W        W26019   3.508  18.622  12.656 -0.0435  0.1375  0.0343
 7166W        W26020  11.402   6.104  11.336  0.4340  0.0623 -0.1544
 7167W        W26021  17.323   4.095   3.761 -0.1132  0.0502 -0.0600
 7168W        W26022   8.859  14.064   3.000  0.0119  0.0905 -0.0413
 7169W        W26023   7.084  14.993   4.233  0.1575  0.1013  0.0159
 7170W        W26024   9.507  10.002  11.859 -0.1664 -0.1388  0.1670
 7171W        W26025   1.487   1.235  12.707  0.2437  0.0869  0.1337
 7172W        W26026   1.685   8.910   2.306  0.1169  0.0899 -0.2252
 7173W        W26027   5.149   3.678  14.211 -0.1503 -0.3427  0.1174
 7174W        W26028   6.882   4.441   0.715  0.1460 -0.1640 -0.2400
 7175W        W26029  15.122  16.323  14.188  0.1544  0.1078  0.2873
 7176W        W26030  13.744  18.149  13.999  0.0403 -0.0914 -0.0936
 7177W        W26031  15.423   4.799  12.668 -0.2933  0.0613  0.0453
 7178W        W26032   1.767  13.598   5.663  0.0712  0.1498 -0.3826
 7179W        W26033   5.484   6.936   4.787  0.1064 -0.1115  0.3705
 7180W        W26034   8.369  13.169   1.265 -0.0801 -0.3819 -0.1634
 7181W        W26035   3.756   5.325   3.854  0.5036  0.1338 -0.1214
 7182W        W26036   8.773  14.352   2.383  0.0948  0.0766 -0.0806
 7183W        W26037  15.181   6.943  13.210 -0.0403  0.1321  0.1506
 7184W        W26038  15.948  11.410   1.395 -0.0953  0.0056  0.0586
 7185W        W26039  14.253   7.106  12.554  0.0323  0.2436  0.1296
 7186W        W26040  13.956  14.766   4.039 -0.1053 -0.3990  0.1887
 7187W        W26041   2.509   1.525   2.673 -0.0390 -0.0842 -0.1086
 7188W        W26042   4.841   9.600  10.663 -0.0614  0.0305 -0.0357
 7189W        W26043   2.872  10.546   5.239  0.1689  0.2451  0.1421
 7190W        W26044   5.080  17.760  13.798 -0.2017  0.0788 -0.0343
 7191W        W26045  14.828   6.875   4.798  0.3303  0.0301 -0.3645
 7192W        W26046   5.838   4.359   2.174  0.0610 -0.2865  0.2049
 7193W        W26047  18.947   1.180  13.230  0.0258 -0.1863 -0.0199
 7194W        W26048   8.021   3.998  14.305 -0.0174  0.0665  0.0544
 7195W        W26049   5.063  12.022  12.536  0.0429  0.1562  0.0637
 7196W        W26050  15.135   4.021  13.864  0.1450  0.0265  0.3369
 7197W        W26051   2.362  18.072  14.229  0.1369 -0.2977 -0.2030
 7198W        W26052   8.653  16.093   5.148  0.5085 -0.2649  0.2890
 7199W        W26053  18.566   7.835  12.539  0.2244  0.3709 -0.0516
 7200W        W26054  13.286   5.508   1.715 -0.0112  0.0135 -0.1711
 7201W        W26055  15.273  15.503  13.100  0.2820 -0.1636 -0.1310
 7202W        W26056   3.094  16.538  14.436 -0.1281  0.2565 -0.1317
 7203W        W26057   5.657   4.512   1.562  0.3468  0.1511 -0.0683
 7204W        W26058   6.040  12.454   2.631  0.1283  0.3057 -0.2759
 7205W        W26059  14.612   4.428   1.177 -0.0565 -0.3313 -0.3082
 7206W        W26060  17.270   4.958   3.144  0.1164  0.0772 -0.4788
 7207W        W26061  11.830  17.793   2.292  0.1106  0.1840  0.0726
 7208W        W26062  17.516   1.201  14.505 -0.4342  0.1104  0.2185
 7209W        W26063  14.765  16.510   5.494  0.1499 -0.0088 -0.1460
 7210W        W26064   2.885   9.357  13.772 -0.2424  0.0024 -0.1085
 7211W        W26065  18.887   0.264   2.114  0.1723 -0.1607  0.4450
 7212W        W26066  17.475   1.928  11.434 -0.0943  0.1057  0.0325
 7213W        W26067  13.884  12.450   4.035 -0.0305  0.0103  0.0188
 7214W        W26068  11.943   8.581  13.499  0.2713 -0.0409  0.0202
 7215W        W26069   9.252   0.338  14.165 -0.2972  0.3285  0.1829
 7216W        W26070  15.707   7.392  14.709  0.3139  0.0501 -0.0441
 7217W        W26071  16.259   6.283  14.356 -0.0029  0.1025 -0.2085
 7218W        W26072   0.518  11.457  11.423  0.1556  0.3361  0.0009
 7219W        W26073  10.675   0.597   1.496  0.1813 -0.0833  0.0225
 7220W        W26074  13.493   7.998  12.354 -0.1529 -0.1543 -0.0260
 7221W        W26075   4.651   0.063   4.394 -0.1043 -0.2317 -0.0245
 7222W        W26076  12.093   1.075   1.688  0.0496  0.3547 -0.1886
 7223W        W26077  11.077   3.405   1.462 -0.1449  0.1306 -0.1077
 7224W        W26078   5.025  16.835  12.350  0.3289  0.1132  0.1060
 7225W        W26079  12.094   1.723   0.906  0.1225  0.3696 -0.0369
 7226W        W26080  14.287  17.001  10.849  0.4093 -0.0868 -0.2147
 7227W        W26081   3.202   1.802  10.289 -0.0601 -0.0020 -0.1153
 7228W        W26082  19.025  16.696  14.488  0.2178 -0.0414  0.0518
 7229W        W26083   2.473  11.823   1.149 -0.0189  0.0725 -0.4077
 7230W        W26084  17.206   2.493   0.548  0.1534  0.1255 -0.2084
 7231W        W26085  11.396   8.615   1.308  0.0032 -0.0960  0.2412
 7232W        W26086   6.473   4.820  14.558  0.0363  0.1613 -0.1612
 7233W        W26087  14.574   2.224  11.100  0.0360  0.0812  0.0289
 7234W        W26088   0.631   8.708  10.514  0.1285  0.2300  0.0755
 7235W        W26089  10.685   3.238   0.241  0.0486  0.0149  0.3191
 7236W        W26090  18.590   0.754   0.852  0.0601 -0.3764 -0.0132
 7237W        W26091  14.273   2.875   0.566  0.0174 -0.0938  0.2066
 7238W        W26092  18.030  11.709  14.298 -0.2742 -0.3325 -0.3021
 7239W        W26093   8.748  17.337   1.584 -0.0973  0.1623 -0.1299
 7240W        W26094  14.801   1.269  11.372  0.0251 -0.2907  0.1592
 7241W        W26095   0.161   7.343   0.825  0.2114  0.0099 -0.1411
 7242W        W26096   0.903  10.751   1.447  0.4658 -0.1174 -0.2467
 7243W        W26097  10.173  15.368   0.385 -0.1595 -0.1085 -0.1966
 7244W        W26098   5.167  19.026   2.878 -0.0603  0.2944  0.0585
 7245W        W26099   6.037  19.014   2.163 -0.0870 -0.4234  0.0544
 7246W        W26100  14.228  15.282   5.571  0.4366  0.3582 -0.1701
 7247W        W26101   9.166  15.031   2.278 -0.0631  0.0657 -0.0378
 7248W        W26102  15.068  12.939  10.824 -0.1175 -0.2306  0.0977
 7249W        W26103  17.793  16.552   3.433  0.1120 -0.0871  0.0451
 7250W        W26104  16.702   7.645  10.352  0.2691  0.0378  0.1431
 7251W        W26105  15.455   0.572   2.536  0.3773  0.1368  0.0688
 7252W        W26106  14.888   1.669  14.140 -0.0841 -0.1572 -0.0057
 7253W        W26107  15.114  14.297   1.940 -0.2415  0.1078  0.0830
 7254W        W26108   8.381   8.446  13.527  0.1926 -0.0309 -0.4861
 7255W        W26109   4.018  15.402  12.909 -0.2579 -0.2937 -0.1097
 7256W        W26110  12.088  15.070   4.931 -0.2772 -0.0015 -0.1645
 7257W        W26111   8.697  15.138   1.792 -0.0374 -0.3466  0.0079
 7258W        W26112  15.488   8.389  14.620 -0.1172  0.1480  0.1480
 7259W        W26113  12.184  10.230  11.857  0.3315 -0.1308  0.1073
 7260W        W26114   3.437   3.078  11.466  0.1089  0.0594 -0.2060
 7261W        W26115  18.606  16.840  12.962 -0.0204  0.2663  0.0586
 7262W        W26116  11.642  13.703  14.580 -0.1800  0.1316 -0.0642
 7263W        W26117  10.409  17.135   2.045 -0.0845  0.1005  0.1664
 7264W        W26118  17.147   9.745   0.636 -0.3155 -0.1827 -0.0108
 7265W        W26119  18.447  17.226  13.347  0.1317  0.0494  0.1064
 7266W        W26120   4.648  18.728  14.735  0.1991 -0.1138  0.1857
 7267W        W26121   2.665  13.115   3.143  0.0500 -0.0440  0.0439
 7268W        W26122   8.048   5.939   1.238 -0.1654 -0.1905 -0.2913
 7269W        W26123  18.332  11.047  12.142  0.0606 -0.0453  0.0401
 7270W        W26124   2.899  16.528  12.020  0.0092 -0.1922 -0.0566
 7271W        W26125   8.311   8.026   4.203 -0.2373 -0.1618  0.0374
 7272W        W26126  10.094  12.849   0.296 -0.2214  0.1515  0.0858
 7273W        W26127  15.860   1.062   3.312 -0.1163  0.1061  0.0578
 7274W        W26128  17.232   2.563   2.251  0.0175 -0.2755 -0.0609
 7275W        W26129   9.740  14.640   0.096  0.2641  0.2662  0.0080
 7276W        W26130  15.838  15.018  12.726 -0.0470 -0.0439  0.1779
 7277W        W26131  13.831  16.176   0.701  0.1074 -0.0836  0.0297
 7278W        W26132  12.038  13.941   0.997 -0.0828 -0.2381 -0.0488
 7279W        W26133   8.957  13.474  11.108 -0.2908  0.1562 -0.1097
 7280W        W26134   7.883   2.448   1.392  0.1442  0.2706 -0.0103
 7281W        W26135   8.725   8.360   3.342  0.2746 -0.0406 -0.3441
 7282W        W26136  12.532  18.731  12.755  0.2310  0.3026 -0.1505
 7283W        W26137  16.295  12.535  11.339 -0.0651 -0.2641 -0.1651
 7284W        W26138  15.298  17.333   3.500 -0.2637 -0.1023 -0.4266
 7285W        W26139   7.677  13.555   1.793  0.1373  0.2939  0.0795
 7286W        W26140  13.969  10.259   2.567 -0.0389 -0.3979  0.2897
 7287W        W26141   3.539  16.678  10.388  0.3657  0.1586 -0.0510
 7288W        W26142   2.431  16.015   0.196 -0.3140  0.3194  0.2214
 7289W        W26143  19.054  13.794  13.887  0.0360 -0.3468  0.1423
 7290W        W26144  12.072   4.843   2.705 -0.0404 -0.0850  0.0653
 7291W        W26145   4.240  12.270   2.591 -0.1040  0.0107 -0.0022
 7292W        W26146  13.411   3.262   0.299 -0.0315  0.0294  0.1908
 7293W        W26147   8.254  11.853   0.188  0.0225 -0.1520 -0.0841
 7294W        W26148  15.345  14.665   4.336 -0.1044 -0.0866 -0.2018
 7295W        W26149   6.576   5.378  10.314  0.0520  0.3368  0.0607
 7296W        W26150  14.147   9.264  12.773  0.1017  0.1197  0.2403
 7297W        W26151   7.445   2.075   2.475 -0.1464  0.1797 -0.3659
 7298W        W26152   0.852  15.269   1.926  0.1029  0.0513  0.0278
 7299W        W26153  16.205  15.056   3.277  0.0433 -0.2861  0.0446
 7300W        W26154  11.316   5.494   1.938 -0.1012 -0.0143  0.1873
 7301W        W26155   7.682  16.783  14.613  0.2797 -0.1011  0.1600
 7302W        W26156   5.680   3.208  11.475 -0.1285 -0.2523  0.0905
 7303W        W26157  15.429  13.596   2.369 -0.3556  0.0216  0.1575
 7304W        W26158   7.204  14.854  12.112  0.3982  0.2458 -0.2168
 7305W        W26159  13.064   0.959   1.903  0.1678  0.0670 -0.0680
 7306W        W26160   9.916   4.875   4.101  0.0971 -0.1180  0.2137
 7307W        W26161   4.586  12.906   4.086  0.2693  0.1197  0.1248
 7308W        W26162  17.757  15.551   1.778  0.2866 -0.1468 -0.0175
 7309W        W26163  12.803   5.743  11.456  0.1625  0.0528 -0.0403
 7310W        W26164  12.801   1.770  12.262  0.0158 -0.0152 -0.2369
 7311W        W26165   7.607   3.658   0.562  0.0716  0.3237  0.1999
 7312W        W26166   8.336   6.397   2.492  0.0812 -0.2772  0.1055
 7313W        W26167   1.315   8.075  11.981 -0.1530  0.3309 -0.1414
 7314W        W26168   2.194  16.072  13.215  0.1393 -0.2013  0.0943
 7315W        W26169  10.905   0.286  12.481 -0.0340 -0.1963 -0.0124
 7316W        W26170   6.240  15.234   3.593  0.1001  0.1640  0.1945
 7317W        W26171   9.549  15.815   0.667 -0.0735  0.0678  0.0755
 7318W        W26172   2.238  15.571   0.865 -0.0520  0.1730 -0.1551
 7319W        W26173  18.233  10.768   4.742 -0.0733 -0.0669 -0.2060
 7320W        W26174  15.226   2.631  12.715 -0.0624  0.2253 -0.0418
 7321W        W26175   5.828   5.252   0.888  0.0909 -0.1321 -0.1566
 7322W        W26176  11.750   9.513  14.002  0.0926 -0.0005  0.0683
 7323W        W26177   2.870   9.876   0.109 -0.0333 -0.0045 -0.2043
 7324W        W26178  12.494  11.364   0.774  0.1681 -0.1673  0.1126
 7325W        W26179   8.939  16.215   4.313 -0.1423 -0.0118  0.1194
 7326W        W26180  10.480   9.344   0.693  0.1541  0.0621 -0.2043
 7327W        W26181  17.798   0.578  13.314  0.2156 -0.0620 -0.2408
 7328W        W26182  16.886   3.705   1.761 -0.1741 -0.2196  0.0233
 7329W        W26183   5.245  15.390   3.344 -0.0431 -0.2312  0.1210
 7330W        W26184  14.880  12.118  11.850 -0.0940 -0.3694 -0.1082
 7331W        W26185  13.269   3.320  12.883 -0.2991 -0.1782  0.0481
 7332W        W26186  15.988  11.827  11.587  0.0945 -0.3172 -0.1053
 7333W        W26187   6.640  19.156  10.096 -0.0449 -0.4012  0.2457
 7334W        W26188   2.573   7.042   1.118  0.1143 -0.2703  0.1829
 7335W        W26189  11.459  16.031   0.668 -0.0076  0.2874  0.2873
 7336W        W26190  10.518   6.726  11.272 -0.0294  0.0370  0.2695
 7337W        W26191  10.583  11.322   9.703  0.3334 -0.1351  0.0820
 7338W        W26192  14.334   2.034   1.812 -0.2322 -0.1093  0.1297
 7339W        W26193   8.055  11.506  13.933 -0.2116  0.2140 -0.0010
 7340W        W26194  11.876  18.510   4.514  0.0949  0.2415  0.1074
 7341W        W26195  10.012   9.057   2.394  0.2924 -0.0287 -0.4812
 7342W        W26196   0.473  15.470   1.644 -0.0129  0.0231 -0.2499
 7343W        W26197  17.676  16.851   2.161  0.0196  0.1166 -0.3602
 7344W        W26198   5.168   0.362   3.211  0.2508  0.4024 -0.0548
 7345W        W26199  15.770  15.783   1.136 -0.2142 -0.1504  0.1224
 7346W        W26200  18.913   2.071  11.109  0.3147  0.1080  0.1312
 7347W        W26201  13.442   5.440  12.152  0.3268 -0.0181 -0.1129
 7348W        W26202   6.515  12.819   2.111 -0.1045  0.0155  0.2805
 7349W        W26203  13.048  10.243   4.141  0.2363 -0.3020 -0.0594
 7350W        W26204  12.258   8.207  10.457 -0.2239  0.1699  0.0851
 7351W        W26205  17.751  16.716   0.939 -0.1726  0.0788  0.1352
 7352W        W26206   5.105  15.978   2.557  0.0979  0.1260 -0.3347
 7353W        W26207  14.539   8.126   0.837  0.2423 -0.1529  0.1351
 7354W        W26208  12.902  12.796  14.318 -0.1182  0.0044 -0.0563
 7355W        W26209   1.295  17.027  12.563 -0.0629  0.1696  0.3038
 7356W        W26210  10.559  10.315  14.019 -0.1798 -0.0566  0.0368
 7357W        W26211  16.236  16.793   9.577 -0.4642  0.1004 -0.1765
 7358W        W26212  15.440  10.688   0.803 -0.1001 -0.0518 -0.0632
 7359W        W26213   9.067  14.365   3.300  0.0101 -0.1064  0.1120
 7360W        W26214   9.123   7.904  11.109  0.0202  0.2764 -0.1847
 7361W        W26215   5.004   9.283  11.058  0.2585 -0.0537 -0.0245
 7362W        W26216  12.696  14.944   3.800 -0.0855  0.0189 -0.3449
 7363W        W26217  16.332  14.052   3.353 -0.2213  0.4052  0.2680
 7364W        W26218   2.174  16.649   2.402  0.0551  0.1680  0.0207
 7365W        W26219   8.753   9.005  13.834 -0.2186  0.0246 -0.2050
 7366W        W26220  17.517   1.596  13.588  0.1443  0.2040 -0.0259
 7367W        W26221  17.011   7.296   2.436 -0.1202  0.0958 -0.2238
 7368W        W26222   9.079  15.930   1.069  0.1301 -0.3072  0.1587
 7369W        W26223  15.508  18.189   1.250 -0.2136 -0.1135 -0.0594
 7370W        W26224   6.166   0.245  10.896 -0.0289 -0.0324  0.1308
 7371W        W26225   2.826   1.689  11.969  0.0755 -0.1710 -0.1814
 7372W        W26226  16.232   8.069  13.240  0.0650 -0.2617 -0.1125
 7373W        W26227   5.207  13.107  11.663  0.1408 -0.0599  0.0167
 7374W        W26228  18.527   5.061   0.911 -0.0730  0.0676  0.1740
 7375W        W26229  14.606   4.306  12.149 -0.2800 -0.4483 -0.0199
 7376W        W26230   6.701  16.840   2.279  0.1581  0.1253 -0.2356
 7377W        W26231   3.057  10.207  13.577  0.0369 -0.1146  0.0409
 7378W        W26232   8.321  18.765   2.554  0.0496  0.0446 -0.0962
 7379W        W26233   9.227   4.103   1.911  0.2177  0.1381  0.2455
 7380W        W26234   8.200   4.235   3.060 -0.1060 -0.1782  0.0688
 7381W        W26235   4.754   7.122   9.629  0.0622 -0.0246 -0.0922
 7382W        W26236  12.777   0.108   2.606  0.0322 -0.2286 -0.1294
 7383W        W26237   1.880  16.178  10.941 -0.1179 -0.1569  0.3242
 7384W        W26238   4.411   2.634   0.926 -0.0046 -0.0599  0.0333
 7385W        W26239   7.956   3.900   4.181  0.4180 -0.0180  0.2863
 7386W        W26240  13.900   5.291  13.935  0.2236  0.0319  0.2097
 7387W        W26241  15.620   0.223   0.862 -0.3894 -0.2739  0.2016
 7388W        W26242  15.396  14.714   3.654  0.0584 -0.1561  0.0741
 7389W        W26243  10.541   6.796  14.420 -0.0357 -0.0123 -0.0069
 7390W        W26244   3.327   7.282  14.016  0.2103  0.0374 -0.1040
 7391W        W26245  10.107   3.640   1.815 -0.1210 -0.0432 -0.2182
 7392W        W26246   2.050   2.941  13.780  0.3568  0.1452 -0.2291
 7393W        W26247  11.118  11.942   2.416 -0.3448  0.0192 -0.0376
 7394W        W26248  18.333   0.794   4.399 -0.0051  0.1186  0.0913
 7395W        W26249  15.156  12.873  11.493 -0.0621  0.4087  0.1147
 7396W        W26250   3.281   6.377   2.749  0.0694 -0.1056  0.1012
 7397W        W26251   0.455   3.016   1.762  0.1624 -0.1502  0.0605
 7398W        W26252   9.233   4.258   2.455  0.0201 -0.2743 -0.0875
 7399W        W26253  15.630  12.102  13.346 -0.1408  0.0212  0.2236
 7400W        W26254  16.382  16.111  12.289 -0.0423  0.1248 -0.0639
 7401W        W26255   0.738  10.576   4.311  0.4901 -0.0904  0.0161
 7402W        W26256   7.929  18.739  10.964  0.1508  0.1641  0.1373
 7403W        W26257  15.464  17.937  12.539  0.1190  0.2174 -0.2475
 7404W        W26258   0.636  18.068   1.063 -0.0939  0.3066  0.0535
 7405W        W26259  10.840   6.694   0.140 -0.1470 -0.0228  0.0300
 7406W        W26260   6.593   6.745   0.565  0.1404 -0.0558 -0.0578
 7407W        W26261   4.437   8.022  12.755 -0.0178  0.1953 -0.2270
 7408W        W26262  10.354   5.253  13.713  0.2519 -0.1995 -0.3650
 7409W        W26263  15.530   3.467   2.118 -0.2227  0.0538  0.0035
 7410W        W26264   7.303  11.744   1.078 -0.0421 -0.2869  0.1430
 7411W        W26265   7.736  11.013   3.825  0.0058 -0.2223  0.0463
 7412W        W26266   8.899   2.237  12.665  0.1176  0.0491 -0.2531
 7413W        W26267   5.465   9.029   5.107 -0.0855  0.1317 -0.0142
 7414W        W26268   5.184  14.628   3.850  0.2147  0.0821 -0.0866
 7415W        W26269   5.690  10.989  14.694  0.2763 -0.1352  0.1378
 7416W        W26270   0.389  10.792   1.458  0.1930 -0.2740 -0.0713
 7417W        W26271  11.001  14.388  13.122 -0.2627 -0.0000 -0.1291
 7418W        W26272  12.390   5.723   9.238  0.0168 -0.1221  0.2375
 7419W        W26273   4.298  13.292   3.400  0.2306  0.2906 -0.1480
 7420W        W26274  12.865   1.327  14.507  0.1872  0.1873 -0.2160
 7421W        W26275  17.245  14.389  12.190 -0.1438  0.4143  0.0938
 7422W        W26276   5.757   9.085  11.705  0.0469 -0.1430  0.0609
 7423W        W26277   5.568   8.302  14.626 -0.1023 -0.0438  0.2378
 7424W        W26278  15.806   9.769   1.804 -0.0154  0.2128 -0.1613
 7425W        W26279   5.059  16.401  12.535 -0.1542 -0.1797 -0.0611
 7426W        W26280   7.380   7.910  14.069 -0.0181 -0.1116 -0.2366
 7427W        W26281  11.344  13.194  12.014 -0.0509  0.0041 -0.0924
 7428W        W26282  12.988  10.364  11.785 -0.2240 -0.2891  0.2503
 7429W        W26283   5.658  17.069   3.371  0.0926  0.0799  0.1778
 7430W        W26284   2.729  16.394   3.252 -0.1843  0.0573  0.1371
 7431W        W26285  10.186  13.335   0.876  0.0057 -0.1159 -0.0102
 7432W        W26286   7.295  13.060   1.828 -0.0094  0.0501 -0.0743
 7433W        W26287   1.889   2.315   3.394  0.2996 -0.0704  0.0292
 7434W        W26288   9.413  14.882   0.436  0.2362  0.0183 -0.2153
 7435W        W26289  13.821   4.741  13.750  0.0057  0.4245  0.0012
 7436W        W26290   6.791  16.806   4.033 -0.0032  0.0257  0.2050
 7437W        W26291   4.334  17.773   4.238  0.0560 -0.0636 -0.0208
 7438W        W26292   8.567   9.928  11.646  0.0161 -0.0220 -0.1680
 7439W        W26293   2.139  10.207   3.582  0.1144  0.1893 -0.0171
 7440W        W26294  14.341   7.854  10.964 -0.1754 -0.1346  0.0968
 7441W        W26295  13.253  15.625   0.371  0.0494  0.2554  0.1842
 7442W        W26296  14.345   0.083  13.185  0.3778 -0.1330  0.0765
 7443W        W26297   6.701   7.412  11.792 -0.0196  0.3418  0.0538
 7444W        W26298   1.010   7.426  11.181  0.1349  0.1448  0.0301
 7445W        W26299   0.250  12.718   1.890  0.1000  0.0150  0.1759
 7446W        W26300   7.016   8.656   0.633 -0.0285  0.2409 -0.0177
 7447W        W26301   6.081  13.073   2.429  0.0538 -0.1959 -0.1120
 7448W        W26302  13.952  13.511  13.738  0.1040 -0.1107 -0.2889
 7449W        W26303   4.522  10.280  12.968  0.1406  0.0870 -0.0590
 7450W        W26304   6.565  17.634  14.263 -0.1653 -0.1123  0.2261
 7451W        W26305  14.153  17.913   2.818  0.1092 -0.3626 -0.1711
 7452W        W26306   7.181  10.419  14.708 -0.0630 -0.0930 -0.0217
 7453W        W26307  11.854  15.545  11.782  0.1963 -0.3431 -0.0266
 7454W        W26308   0.846  18.440   9.831 -0.0510 -0.1903  0.1000
 7455W        W26309  10.168  14.939   9.809  0.2378  0.0081 -0.0454
 7456W        W26310   7.385   1.151  12.483  0.1725  0.0754 -0.0334
 7457W        W26311   9.468   2.545   2.131 -0.0862 -0.4675  0.1888
 7458W        W26312  16.067  12.530   2.423 -0.0076  0.1117 -0.1975
 7459W        W26313  18.072  17.003   3.107 -0.1106 -0.2645 -0.0850
 7460W        W26314   8.664   0.430  10.885  0.0294 -0.0418 -0.3049
 7461W        W26315   4.794   3.842   1.678 -0.0215 -0.0847  0.2153
 7462W        W26316   2.657  18.821   1.543 -0.0994 -0.3166 -0.1220
 7463W        W26317  16.709   2.298   1.293 -0.0463  0.1202  0.2732
 7464W        W26318  18.437  13.374   1.874 -0.0396  0.0218 -0.0275
 7465W        W26319  15.339   3.516  11.455  0.1574  0.0150 -0.0384
 7466W        W26320   8.149   3.140   0.929  0.0665 -0.0343  0.0045
 7467W        W26321   6.871  18.162   0.207 -0.1637  0.1172 -0.0693
 7468W        W26322  11.247   9.398  11.771 -0.1975 -0.1525  0.2978
 7469W        W26323   9.598  16.084   2.172 -0.0333 -0.1242  0.0721
 7470W        W26324  14.154  17.291  14.396  0.0146 -0.4510 -0.1778
 7471W        W26325  13.411   9.452   0.900  0.1492  0.0323  0.2815
 7472W        W26326  15.615   5.099   3.559 -0.0367  0.3124 -0.0402
 7473W        W26327   7.075  10.109   3.328  0.1212 -0.2396  0.0929
 7474W        W26328   0.823  13.740   3.036  0.0866 -0.2230  0.1172
 7475W        W26329   6.585  13.094   9.375 -0.0286  0.0952  0.1806
 7476W        W26330  10.996  19.071   0.914  0.1083 -0.1471 -0.1134
 7477W        W26331   0.938  17.523   4.472  0.1798  0.2134 -0.1833
 7478W        W26332   3.066  14.250   2.000 -0.2377  0.3602  0.1407
 7479W        W26333  13.319   8.077  14.276 -0.1771  0.0214 -0.3652
 7480W        W26334  13.577  13.627   3.595  0.1341  0.2062 -0.3173
 7481W        W26335  15.561  10.465  11.704  0.0585 -0.0016  0.1236
 7482W        W26336   4.978  10.573   1.275  0.1091 -0.1236  0.2478
 7483W        W26337  13.649  16.032   4.190  0.1301 -0.0536  0.0264
 7484W        W26338   2.341   7.456  10.277 -0.0071 -0.4139 -0.0481
 7485W        W26339  11.885   2.265  14.134 -0.2878 -0.1095 -0.3405
 7486W        W26340   2.376  18.381   0.736  0.3127  0.1250 -0.0236
 7487W        W26341  12.311   3.664  13.095  0.3956 -0.5466 -0.1963
 7488W        W26342  14.828  10.583  10.999 -0.0260  0.2275  0.0162
 7489W        W26343   3.703   4.249  12.199  0.1119 -0.1154  0.3031
 7490W        W26344  10.860  16.185  12.596  0.0061  0.1822 -0.2741
 7491W        W26345   3.437  14.304  11.273 -0.0819  0.1081  0.2269
 7492W        W26346  16.587   1.836   1.421 -0.4348  0.2895  0.1427
 7493W        W26347  14.723  15.113  11.597  0.0893  0.2190  0.0673
 7494W        W26348   2.313   3.934  12.640  0.1759  0.1550  0.2196
 7495W        W26349   0.621   6.989  13.342  0.2096  0.0494  0.4233
 7496W        W26350   4.200   0.582  12.630  0.3236  0.0407  0.1170
 7497W        W26351   2.630   3.338   2.222  0.2486 -0.0167  0.1026
 7498W        W26352  12.342   8.742  11.800  0.5050  0.0862 -0.2310
 7499W        W26353   4.031  18.860  12.596  0.2705 -0.2469 -0.0153
 7500W        W26354   0.923  10.942   4.085 -0.2101  0.0120  0.0380
 7501W        W26355   1.716  14.361   0.929 -0.0303  0.2399  0.0969
 7502W        W26356   2.829   1.483  13.756 -0.0140  0.0247  0.1839
 7503W        W26357   0.426  11.814   0.727 -0.1763 -0.2107 -0.0487
 7504W        W26358   9.202   3.405   1.292 -0.0967 -0.1709 -0.2539
 7505W        W26359   3.732   9.617  10.641 -0.2879 -0.4892  0.3203
 7506W        W26360   4.426   3.304   1.039  0.2664  0.1580  0.0537
 7507W        W26361   8.977  10.007  11.972 -0.3689 -0.2593  0.2041
 7508W        W26362   2.019  11.523  14.050  0.2609  0.1047 -0.1248
 7509W        W26363   3.897   0.681   1.772 -0.4651 -0.1613 -0.2200
 7510W        W26364  16.768  12.885  13.126  0.0278 -0.1841 -0.0091
 7511W        W26365  12.657   9.723  11.954 -0.1641  0.3553  0.3371
 7512W        W26366  10.296   4.913  14.677  0.1863  0.1284 -0.0459
 7513W        W26367  10.491  19.028   1.610  0.0842 -0.0481 -0.0927
 7514W        W26368  12.005  14.298   2.919 -0.0952  0.1100  0.2791
 7515W        W26369   9.002   9.213  11.828  0.0097 -0.0103 -0.4852
 7516W        W26370   1.179  12.436   0.365  0.2203  0.0968  0.0043
 7517W        W26371   8.986  14.905   3.928  0.0054 -0.2905 -0.0544
 7518W        W26372   7.831  11.849   3.806  0.1796  0.0724 -0.2252
 7519W        W26373  17.145  14.153   0.842  0.0412 -0.3166  0.0178
 7520W        W26374  12.631  18.725  11.214  0.1742  0.1615  0.1457
 7521W        W26375  15.025   3.785   2.119  0.2280  0.0358 -0.3831
 7522W        W26376  18.903   7.106   4.282 -0.2211  0.2444  0.1953
 7523W        W26377   7.686   1.650   2.992 -0.1308  0.3727 -0.0859
 7524W        W26378  16.836  14.654  11.167 -0.2617 -0.2388 -0.1041
 7525W        W26379   5.728   0.886  12.991  0.1804  0.2494 -0.1017
 7526W        W26380   3.461  15.192   3.407 -0.1158  0.2401 -0.1769
 7527W        W26381   7.701   1.417  14.359  0.2062  0.1561 -0.2129
 7528W        W26382  14.487   5.155  13.395 -0.3325 -0.0483 -0.1280
 7529W        W26383   2.417  11.204  13.956  0.1767 -0.1192 -0.2453
 7530W        W26384   5.925   6.583  11.366 -0.0244 -0.2489  0.3096
 7531W        W26385  16.045  12.450   1.768  0.1809 -0.1961  0.0479
 7532W        W26386   6.394  18.164   0.199  0.1298  0.2282  0.0273
 7533W        W26387   1.386  14.068   3.907  0.3641  0.0970 -0.2692
 7534W        W26388  17.761  17.191  13.841  0.5122 -0.0271  0.2803
 7535W        W26389   3.191   3.491   2.136  0.0266 -0.1830  0.0891
 7536W        W26390   9.109   4.976  11.062 -0.0024  0.1415 -0.0931
 7537W        W26391   1.402   3.419   4.014 -0.1497  0.2132 -0.1278
 7538W        W26392  14.470  12.149   2.719  0.1590  0.1031  0.0957
 7539W        W26393  14.062  17.503  12.387  0.0865  0.0007 -0.1264
 7540W        W26394   9.824  12.113   0.120 -0.1897 -0.0003  0.0993
 7541W        W26395  18.001  18.629  11.474  0.1007  0.1496 -0.2146
 7542W        W26396   8.811  10.713  13.276 -0.0349  0.0668  0.0885
 7543W        W26397   8.365   7.888  11.808 -0.0158 -0.1775  0.0880
 7544W        W26398  15.845   4.342  14.501  0.0839 -0.0827  0.1745
 7545W        W26399   5.641   5.784   0.803 -0.1808  0.1043  0.0414
 7546W        W26400  15.652   1.240   2.837  0.0193 -0.2981 -0.1917
 7547W        W26401  10.058   1.941  12.847  0.0905 -0.0729 -0.1157
 7548W        W26402   9.659   2.993   0.327 -0.0582 -0.2200  0.3078
 7549W        W26403  16.612   8.283  12.314  0.4475 -0.0381 -0.1952
 7550W        W26404  14.253  14.559   1.269 -0.0235 -0.0760  0.1056
 7551W        W26405   5.713  16.876   4.711 -0.0474  0.3397 -0.0532
 7552W        W26406   2.483   0.002  12.962 -0.0236 -0.2276  0.3346
 7553W        W26407  19.036   5.028   0.531  0.1385  0.2670 -0.1293
 7554W        W26408   5.562   1.819  14.057  0.1592 -0.2561 -0.1123
 7555W        W26409   4.697   5.866  11.570  0.3965 -0.1052  0.1989
 7556W        W26410  12.571   3.499  10.521 -0.0560  0.0307  0.0969
 7557W        W26411  10.282  12.313   1.160 -0.0033  0.1081  0.0722
 7558W        W26412   6.640  16.088  14.499  0.0400  0.1588 -0.1925
 7559W        W26413  16.087  18.122   4.055  0.0625 -0.0523  0.3027
 7560W        W26414  17.281  17.756   2.097  0.0115 -0.0599  0.2234
 7561W        W26415  11.011  15.558   2.862  0.4222  0.1513  0.1109
 7562W        W26416   9.444   9.911  13.515  0.1703 -0.1598  0.1684
 7563W        W26417  18.977  17.355   2.424 -0.2432  0.0448  0.0911
 7564W        W26418   5.875   9.785   3.402  0.0404  0.1094 -0.2203
 7565W        W26419   9.804  12.513  11.323  0.0756 -0.1548  0.2824
 7566W        W26420   6.295  15.222  14.663  0.1445  0.0634  0.3370
 7567W        W26421  17.761  10.299  11.139 -0.0580  0.1384 -0.2014
 7568W        W26422  17.895   6.541   1.556  0.2397  0.0219  0.1289
 7569W        W26423   9.637  17.146  12.199 -0.2391 -0.3129 -0.2258
 7570W        W26424  11.223  17.339  14.410  0.1641  0.0507  0.4686
 7571W        W26425  13.123   9.128   1.580 -0.3544  0.2084 -0.2031
 7572W        W26426  14.931   0.339   4.716 -0.0194  0.0119  0.0222
 7573W        W26427  17.396  18.850  13.111 -0.2142  0.1010  0.1681
 7574W        W26428  16.240  17.116   0.365  0.1489 -0.2079 -0.1301
 7575W        W26429   1.582   8.793  14.118 -0.3051  0.2660  0.0898
 7576W        W26430   8.478   4.253  14.377 -0.1663  0.1661  0.0095
 7577W        W26431   9.555   3.042   1.307  0.1769  0.2141  0.0461
 7578W        W26432  18.157   3.390  10.322 -0.2096  0.0331  0.4887
 7579W        W26433  17.021   2.088   4.509  0.1368 -0.3705 -0.0165
 7580W        W26434  12.196  16.576  13.386 -0.3058 -0.1850  0.0176
 7581W        W26435   8.702   1.595  13.977 -0.1168 -0.1067 -0.0603
 7582W        W26436   7.078   1.266   0.321  0.1808  0.1453 -0.0207
 7583W        W26437  14.472   3.138   1.058 -0.0751 -0.2888  0.1346
 7584W        W26438   1.395  18.273  14.605 -0.0868  0.0742 -0.1762
 7585W        W26439  16.011  11.554   3.338 -0.3362 -0.0232  0.4992
 7586W        W26440  16.965   5.547   3.985  0.0939  0.0635 -0.0081
 7587W        W26441   8.286   9.094   0.640 -0.2649 -0.2718  0.1166
 7588W        W26442   7.215  16.530  13.060  0.0521  0.0881  0.1497
 7589W        W26443   2.067  11.324   4.255 -0.1637  0.1976  0.1564
 7590W        W26444  11.921  11.890  11.468  0.0727 -0.2814 -0.1511
 7591W        W26445  15.915   0.697  13.930 -0.1151  0.1687 -0.1792
 7592W        W26446   9.264   7.092  11.531 -0.1620 -0.0019  0.0443
 7593W        W26447   4.846   9.470   4.828 -0.3384 -0.1905 -0.0227
 7594W        W26448  13.585   3.420   1.679  0.0094  0.2895  0.0876
 7595W        W26449  18.543   8.840  11.753 -0.0098  0.1778  0.0922
 7596W        W26450   2.361  16.785   3.650  0.0245  0.1825  0.0171
 7597W        W26451  11.992  18.749  13.044 -0.2364  0.2284  0.0624
 7598W        W26452   5.382  12.822  12.369 -0.0750  0.0013  0.0916
 7599W        W26453  10.280   8.883   4.220 -0.1008 -0.2322 -0.1347
 7600W        W26454  15.416   4.954  11.283 -0.2698 -0.0795  0.0203
 7601W        W26455   9.364  18.643  13.464 -0.0143 -0.0617  0.1173
 7602W        W26456  13.790  14.280  10.203 -0.2234  0.0233 -0.0079
 7603W        W26457  10.966  15.875   0.676 -0.0151 -0.0175 -0.1710
 7604W        W26458   7.892   0.585   3.832  0.0447  0.2696  0.1679
 7605W        W26459   2.200  16.395   1.924 -0.1080  0.0999  0.0147
 7606W        W26460  14.001   5.606  14.490 -0.4806 -0.1005 -0.0137
 7607W        W26461  18.317  13.156  11.725  0.3919 -0.3352  0.1446
 7608W        W26462  12.016   8.968   2.146 -0.2097  0.1136  0.3501
 7609W        W26463   7.979  14.477   3.379 -0.1999 -0.0853 -0.1395
 7610W        W26464   4.595   9.062   0.435  0.3104  0.0165  0.2120
 7611W        W26465  17.186   6.987   2.870 -0.1976  0.1563  0.1770
 7612W        W26466   3.116   4.978   1.097  0.1037  0.0992 -0.3681
 7613W        W26467   3.357  15.103  14.224  0.0351 -0.0549 -0.1229
 7614W        W26468   3.159  15.172  12.159  0.0917  0.0106 -0.2154
 7615W        W26469   5.642  11.629   4.982  0.2311 -0.0215 -0.2675
 7616W        W26470   5.080  15.061   2.928  0.3939 -0.4158 -0.1391
 7617W        W26471  15.041  16.837   0.932 -0.0476  0.1288 -0.0358
 7618W        W26472  15.252   0.851  11.955 -0.0447  0.0559  0.2969
 7619W        W26473   1.979  15.205   4.813  0.2736  0.1159 -0.0112
 7620W        W26474   7.142   3.530  13.198  0.3756 -0.0254  0.0992
 7621W        W26475   7.586  15.955  14.478  0.0418  0.0327 -0.3540
 7622W        W26476  15.952   1.131  14.178  0.2557 -0.3165  0.1811
 7623W        W26477  18.209   2.368   3.043 -0.4573  0.0460 -0.1921
 7624W        W26478  13.710   5.338   3.499  0.0964  0.1382  0.0232
 7625W        W26479   1.551   7.493  12.061  0.0715 -0.0423 -0.1265
 7626W        W26480   1.117   1.976  10.740 -0.0985  0.1292 -0.0107
 7627W        W26481   5.036  13.501  11.333  0.3949 -0.1870 -0.0503
 7628W        W26482  17.088  10.046   1.676 -0.4556  0.1413 -0.0426
 7629W        W26483   0.881  13.603  11.464 -0.0399 -0.0799  0.1242
 7630W        W26484   9.728  12.898  12.727  0.2800 -0.1903 -0.0356
 7631W        W26485   5.570   1.785  12.484  0.0212  0.1288  0.0563
 7632W        W26486  15.890   4.232   1.608  0.1530  0.3122 -0.0572
 7633W        W26487  11.423   3.733   1.659  0.0767  0.0937 -0.4440
 7634W        W26488  17.323   2.462   3.148  0.0208 -0.2689  0.2447
 7635W        W26489  17.943   1.371   1.125  0.0613  0.0975  0.1207
 7636W        W26490  18.249   3.661   0.622  0.2305  0.2561  0.1190
 7637W        W26491   7.808   1.140   2.942  0.0139  0.0670 -0.0182
 7638W        W26492   4.181   9.309  11.735  0.0820 -0.1932 -0.0150
 7639W        W26493   5.010  12.739  11.335  0.5039 -0.0677 -0.0082
 7640W        W26494   5.673   4.436   4.163 -0.1574  0.1027 -0.0343
 7641W        W26495   0.202   7.989  12.319 -0.2664 -0.3287  0.3749
 7642W        W26496   4.349  11.367  12.269  0.1713  0.2796 -0.0824
 7643W        W26497  13.757  16.261   1.480  0.3104  0.1055  0.3196
 7644W        W26498   0.842   5.376   1.449 -0.0019  0.1254 -0.1212
 7645W        W26499  14.121  18.468   9.931 -0.3110 -0.1946  0.0386
 7646W        W26500  16.699  17.500   2.717  0.1146 -0.0259 -0.2832
 7647W        W26501   2.859   9.424  10.570 -0.0328 -0.0422 -0.1216
 7648W        W26502  18.130   9.593   3.369 -0.3252  0.1725  0.4338
 7649W        W26503   6.317   2.509  10.287  0.2228 -0.1383 -0.0634
 7650W        W26504  11.662  15.007  13.437 -0.1984  0.4305 -0.2149
 7651W        W26505  18.320   3.846   3.547  0.1953 -0.0718  0.0284
 7652W        W26506   1.151  12.278   2.833 -0.2173 -0.1655 -0.1336
 7653W        W26507   8.588  10.861  10.580  0.0914  0.1542 -0.1048
 7654W        W26508  11.821   8.031  11.217 -0.1104  0.0850 -0.0182
 7655W        W26509   7.690   4.332   3.337 -0.1609 -0.2606  0.0579
 7656W        W26510  14.053  10.413   2.008  0.2984 -0.1523 -0.1797
 7657W        W26511   9.719  11.330   1.350 -0.1328 -0.0501  0.2562
 7658W        W26512   5.447   5.665  13.961 -0.0758 -0.2060 -0.0071
 7659W        W26513   4.906  12.801  12.726  0.3282 -0.0491 -0.0866
 7660W        W26514   4.766  11.161  13.221  0.0212 -0.2927 -0.4591
 7661W        W26515   9.442   4.964   4.331  0.0858  0.1446 -0.0106
 7662W        W26516  16.363   3.386  11.354 -0.1956  0.0143 -0.2437
 7663W        W26517   1.107  14.495   0.352  0.1061  0.1501  0.2020
 7664W        W26518   0.438  10.257   1.608  0.2522 -0.1861  0.2612
 7665W        W26519  10.730  11.815   4.056 -0.1123 -0.1335  0.2369
 7666W        W26520  13.529  18.705   1.833  0.3120  0.2411  0.0586
 7667W        W26521   3.346  18.063   2.682  0.0973  0.0858  0.0349
 7668W        W26522   7.211   3.282  14.185  0.3109  0.2685  0.3217
 7669W        W26523   7.335  18.894  11.778  0.2162  0.1831 -0.2597
 7670W        W26524   3.852   9.058   2.164 -0.2638 -0.1846 -0.1788
 7671W        W26525  11.080  16.573   3.056  0.0706 -0.0809 -0.3213
 7672W        W26526  14.605   8.550   2.081  0.3152 -0.3240 -0.1216
 7673W        W26527   6.889   6.570  11.323  0.3626  0.2305  0.0169
 7674W        W26528   2.906   6.309  10.446  0.1102  0.0668 -0.3079
 7675W        W26529  13.279  18.255   0.190  0.1875 -0.4828  0.2242
 7676W        W26530  10.735  17.538   2.817 -0.1254  0.0608  0.1073
 7677W        W26531   0.461   6.720   2.469  0.0922  0.1236  0.0417
 7678W        W26532   4.239   5.016   2.249  0.3705 -0.0327  0.1367
 7679W        W26533   4.421   8.474  11.403 -0.2065  0.2217 -0.3902
 7680W        W26534  19.064   3.048  12.585  0.0122  0.0007  0.1194
 7681W        W26535  11.552  15.139   0.772  0.1497 -0.1837 -0.1202
 7682W        W26536  11.759  17.861  10.905  0.0841 -0.0179 -0.2959
 7683W        W26537   8.750   4.296  13.893 -0.0235 -0.1804 -0.4043
 7684W        W26538  16.155   1.116  13.664 -0.2476 -0.0218 -0.1815
 7685W        W26539   9.586   5.928   1.481 -0.2501  0.1484 -0.1654
 7686W        W26540   5.897   0.730   2.860  0.0881  0.2057 -0.1761
 7687W        W26541   4.519  10.199   1.636 -0.1418  0.0299  0.4855
 7688W        W26542  11.331  12.660   2.002 -0.1378  0.0789 -0.2771
 7689W        W26543  15.426   8.274   3.413 -0.0738 -0.1431  0.2783
 7690W        W26544   8.698  14.308  11.449 -0.0948 -0.1060  0.2721
 7691W        W26545  10.146  10.207   2.934 -0.1727 -0.2031 -0.2803
 7692W        W26546  10.780   5.122   3.265  0.1202  0.0409 -0.1965
 7693W        W26547   3.714  10.176  14.265 -0.1409  0.2028 -0.0325
 7694W        W26548   0.717  10.076   2.430 -0.1629 -0.0184 -0.0103
 7695W        W26549  13.892  15.245  13.398 -0.2166 -0.0360 -0.1514
 7696W        W26550  15.949   0.075   1.773  0.2932 -0.3079 -0.1241
 7697W        W26551  13.483  15.798  12.357 -0.0682 -0.3353 -0.3177
 7698W        W26552  18.726  17.762   2.621  0.0656 -0.2318 -0.0376
 7699W        W26553   8.597  18.353   0.447 -0.0995 -0.0452 -0.0318
 7700W        W26554   9.455  11.033   4.028  0.0378 -0.0955  0.0341
 7701W        W26555   4.551   8.565   4.619  0.0721 -0.2752 -0.0227
 7702W        W26556   8.709   6.141   2.722 -0.0972 -0.2205  0.2263
 7703W        W26557   8.851   0.848  13.422  0.0488  0.0803 -0.0504
 7704W        W26558   1.716   7.555   3.997  0.0841 -0.0815  0.0940
 7705W        W26559  16.887  17.066  11.891 -0.0150 -0.2195 -0.1639
 7706W        W26560   2.542   0.838  13.172 -0.0215 -0.0129 -0.2299
 7707W        W26561   9.891   6.592   2.779  0.0996 -0.0791 -0.3397
 7708W        W26562   1.430   7.371  10.278  0.3061 -0.1307 -0.4653
 7709W        W26563   1.024  11.312   0.221  0.1493 -0.1049  0.1507
 7710W        W26564  10.447   7.064   0.074 -0.2584 -0.0533 -0.0812
 7711W        W26565   6.469   0.920   4.606  0.1965  0.0008 -0.0080
 7712W        W26566   0.383  10.632  11.908  0.1452 -0.2360 -0.1013
 7713W        W26567   6.320  10.535  11.374 -0.2463  0.2221  0.5761
 7714W        W26568   9.293   5.284   2.233  0.0957 -0.3827  0.0614
 7715W        W26569   2.980   2.922  11.229  0.0212 -0.0820 -0.1600
 7716W        W26570  16.379  11.903  13.335  0.3031  0.0573 -0.0063
 7717W        W26571   6.972   8.430  14.150 -0.0067 -0.0760  0.0913
 7718W        W26572  18.661   9.326   0.296 -0.0223 -0.2030 -0.0033
 7719W        W26573  17.383   2.791   3.987  0.2015  0.1456  0.2961
 7720W        W26574   4.707   5.007  13.597  0.1348 -0.1156  0.1811
 7721W        W26575  18.163  12.835   2.194  0.0588 -0.0465  0.0562
 7722W        W26576   8.762   5.515   2.463  0.1231  0.1911  0.1647
 7723W        W26577   2.045   8.328  12.209  0.1152 -0.0747 -0.0477
 7724W        W26578  10.833  14.976  10.499  0.0951 -0.1514 -0.1813
 7725W        W26579  15.441   4.943  10.804  0.1674  0.1480  0.2052
 7726W        W26580  13.809   0.630  11.096 -0.1332  0.1751 -0.0920
 7727W        W26581  12.230  10.103   3.192 -0.0684 -0.0237  0.1242
 7728W        W26582  15.099   5.519   0.733  0.4250 -0.4356 -0.3817
 7729W        W26583   8.575  10.299  13.156 -0.0150  0.3069  0.3741
 7730W        W26584   4.752   6.001   1.579 -0.3403 -0.3533  0.1297
 7731W        W26585   1.214   1.529  13.035 -0.2712  0.1532  0.0567
 7732W        W26586  15.539  10.147  12.145 -0.0669  0.1485  0.0609
 7733W        W26587  15.491  19.026   1.625  0.2094  0.1184  0.0485
 7734W        W26588   9.345  10.278  14.310 -0.3361  0.0780 -0.0842
 7735W        W26589   1.925  18.020  10.454  0.0347 -0.0497 -0.1327
 7736W        W26590   0.743   4.774   2.831 -0.0853 -0.2992  0.1107
 7737W        W26591   2.175   8.611   0.829 -0.1339 -0.0487  0.1112
 7738W        W26592  13.347  13.904   3.286  0.0982 -0.1714  0.1049
 7739W        W26593   1.661   4.870   0.932  0.0018 -0.1064  0.3409
 7740W        W26594  10.257   5.307   1.246 -0.1763  0.1475 -0.2323
 7741W        W26595  10.158   9.901   1.336 -0.1871  0.2458 -0.0915
 7742W        W26596   9.327   1.817  13.382  0.0966  0.0990  0.1036
 7743W        W26597   0.794   5.580  12.700  0.1860  0.2268  0.0962
 7744W        W26598   4.627  12.339  11.203  0.0685 -0.0163  0.4643
 7745W        W26599  14.798  12.485   1.836  0.1240  0.0933  0.0582
 7746W        W26600  15.981   6.920  10.096  0.2300  0.0082  0.1938
 7747W        W26601   2.590  14.820   2.429 -0.0477  0.0260 -0.0697
 7748W        W26602  15.097  11.274  13.313 -0.1438  0.1203  0.2403
 7749W        W26603   0.033  10.180  12.658  0.0104  0.1821 -0.0333
 7750W        W26604   5.941  16.873  14.670 -0.1841 -0.0730 -0.1276
 7751W        W26605   8.146  12.904   1.650 -0.1550 -0.0293 -0.1177
 7752W        W26606   1.006  14.793   1.710 -0.0249  0.0793  0.2273
 7753W        W26607  14.288   4.985  13.807  0.0806  0.2384 -0.2009
 7754W        W26608  14.101   6.338  11.680  0.3983  0.2414 -0.1532
 7755W        W26609   1.340   9.815   2.708  0.0852 -0.0282  0.4016
 7756W        W26610  11.861   3.547  13.961 -0.3160  0.0920 -0.0289
 7757W        W26611  11.590  11.866  13.858 -0.3945  0.1685 -0.0849
 7758W        W26612   0.901  11.841   0.962  0.0153  0.2571  0.0711
 7759W        W26613   9.794  17.030   2.655 -0.2696 -0.0707  0.1368
 7760W        W26614  13.190   8.246   2.635 -0.2237 -0.0759 -0.2245
 7761W        W26615   0.409   8.730  13.001  0.1316  0.0977  0.0097
 7762W        W26616   5.065  10.854  14.198  0.0651  0.0223  0.1661
 7763W        W26617  15.786  12.489  11.560 -0.2596 -0.1104 -0.1188
 7764W        W26618  10.313  11.167  10.761 -0.1890  0.0102 -0.0302
 7765W        W26619   2.518   0.773  14.253 -0.1108 -0.3065 -0.0616
 7766W        W26620  14.160   1.421   0.425  0.0183 -0.0718 -0.1297
 7767W        W26621   7.850  18.074   3.957 -0.0135 -0.0196  0.1828
 7768W        W26622  18.230  13.137   2.756  0.5152 -0.0905  0.2742
 7769W        W26623   0.428   6.858  13.780 -0.1682 -0.0269 -0.1963
 7770W        W26624   0.899   2.967   4.482  0.0603  0.2023 -0.0025
 7771W        W26625  12.145   1.746   0.110 -0.3429 -0.1960 -0.2594
 7772W        W26626   1.051  12.321   2.212 -0.0641  0.0750  0.0596
 7773W        W26627   1.141   4.777   0.844 -0.0723  0.4058 -0.0484
 7774W        W26628  11.643  17.211   0.398 -0.1095 -0.2753  0.3094
 7775W        W26629  15.311  17.680   1.160 -0.0438 -0.1790  0.2682
 7776W        W26630   3.745   4.053  13.944  0.3864  0.2695 -0.1733
 7777W        W26631   2.504  12.255   0.839 -0.2129  0.0181  0.0682
 7778W        W26632   4.149   0.819  14.560  0.0243  0.2135 -0.1791
 7779W        W26633   9.246  17.351   1.541 -0.0722  0.1458  0.0043
 7780W        W26634   6.891  18.923  11.498  0.2302  0.0185  0.0208
 7781W        W26635   2.549   2.951  12.793 -0.0623 -0.0527 -0.1030
 7782W        W26636  17.725   2.072  13.516 -0.0438  0.0512 -0.1437
 7783W        W26637  12.496   2.233   1.385  0.2650 -0.1018 -0.0885
 7784W        W26638  11.772  14.637   5.110 -0.0396  0.0568 -0.0043
 7785W        W26639  16.299  11.471   1.815  0.0400 -0.4063 -0.0096
 7786W        W26640   9.523  16.748   0.944 -0.1406  0.3443  0.0462
 7787W        W26641   6.278  19.061  14.329  0.0077 -0.2373  0.1002
 7788W        W26642  16.806   6.451   1.287  0.0505  0.1595  0.0525
 7789W        W26643  17.840   7.245  12.521  0.1735  0.2674 -0.1606
 7790W        W26644  17.832  16.526  10.909  0.1644  0.2380 -0.0498
 7791W        W26645   5.244  14.604   2.595 -0.0493 -0.1911 -0.3813
 7792W        W26646  18.115  15.581  13.949  0.0482 -0.1278 -0.0498
 7793W        W26647  18.756  14.895  12.970  0.0756  0.1618 -0.1334
 7794W        W26648   8.553   3.866   3.004  0.0185 -0.0333  0.2707
 7795W        W26649   4.633  17.071  10.860  0.3686  0.0513 -0.0046
 7796W        W26650   9.008   5.672  13.997  0.0336 -0.1108  0.0511
 7797W        W26651  17.328   7.532   3.611 -0.0549 -0.3135 -0.1722
 7798W        W26652   7.356   4.126  10.035 -0.0419  0.0033  0.3290
 7799W        W26653   6.083   8.795   1.696 -0.4644  0.0505 -0.0694
 7800W        W26654   6.194  18.155   1.129 -0.2767  0.2409  0.0118
 7801W        W26655   8.425   5.221  11.788 -0.4069  0.1348  0.1561
 7802W        W26656  14.278   9.635   3.573 -0.0141  0.2402 -0.1597
 7803W        W26657   6.465   0.928  12.880 -0.1983  0.0380  0.1447
 7804W        W26658   6.009  14.193  12.065 -0.1906 -0.0838 -0.1319
 7805W        W26659  18.942   0.017   3.664 -0.0539  0.3393 -0.1637
 7806W        W26660   3.503   5.503   4.346  0.0474  0.1031  0.1456
 7807W        W26661  17.211   3.937   0.956 -0.1273 -0.0852 -0.2003
 7808W        W26662  13.305  12.283  11.535  0.3459 -0.0405 -0.2995
 7809W        W26663  13.415  15.210  10.371 -0.0419 -0.1134  0.1184
 7810W        W26664  13.136   6.065   1.493  0.0349 -0.2767 -0.1185
 7811W        W26665   4.637  18.419  11.610  0.0382 -0.1280 -0.1512
 7812W        W26666  10.727   2.460   0.646 -0.1393 -0.3102 -0.0524
 7813W        W26667   1.812  11.873  12.125 -0.0013 -0.0892 -0.2103
 7814W        W26668   8.370   5.598  14.293 -0.1401  0.2883  0.3738
 7815W        W26669   0.379   2.252   3.662 -0.1737  0.0749  0.3252
 7816W        W26670  15.624  17.229  14.363 -0.0119 -0.0055  0.1123
 7817W        W26671   7.407   6.270   9.823 -0.0200  0.0957 -0.3327
 7818W        W26672   3.403   3.123   9.411  0.1090 -0.4484 -0.1210
 7819W        W26673   5.556  17.081  11.745 -0.2007  0.1564 -0.0444
 7820W        W26674  12.120  19.115  11.787  0.1903  0.3856  0.3662
 7821W        W26675   2.154   8.872  13.487 -0.0292 -0.0802 -0.1841
 7822W        W26676   8.771  18.024  13.172  0.0307 -0.3049 -0.1409
 7823W        W26677  12.198  17.963   2.657  0.0473 -0.0791 -0.1212
 7824W        W26678   6.967   6.286  10.243  0.1276  0.0336 -0.0967
 7825W        W26679  14.771  17.805   3.924 -0.3999  0.2139  0.1035
 7826W        W26680   4.293  15.296   2.377 -0.2391 -0.0057 -0.3308
 7827W        W26681   8.661   3.114  12.505  0.1724 -0.0644 -0.2789
 7828W        W26682   8.946  17.971   3.519  0.0447  0.0682  0.2037
 7829W        W26683  15.641   3.268   3.869  0.2285  0.0429  0.0191
 7830W        W26684   0.262   2.810  13.402 -0.1108 -0.0033  0.0230
 7831W        W26685  10.185  12.562   4.267  0.1065 -0.1611  0.1170
 7832W        W26686  10.173   8.107  10.957  0.0860 -0.0795 -0.0369
 7833W        W26687   7.973  18.847   1.880 -0.0080 -0.2961 -0.0562
 7834W        W26688   7.161  17.261   1.506  0.1111 -0.1057  0.1855
 7835W        W26689  14.791   7.311  14.216  0.2023  0.1306 -0.1530
 7836W        W26690  14.823  18.571  14.413  0.2262  0.3169  0.1686
 7837W        W26691   1.593   9.339   2.584 -0.0730 -0.0816  0.2632
 7838W        W26692   9.272   8.981  10.747 -0.0852  0.1920 -0.0002
 7839W        W26693   6.297  11.079   2.498 -0.3106  0.3621 -0.0310
 7840W        W26694   4.461   2.897  10.887 -0.0617  0.1286 -0.1786
 7841W        W26695   1.709   1.721   4.052 -0.2712  0.1893  0.3659
 7842W        W26696   4.105  17.816   2.005 -0.3088  0.0658  0.2285
 7843W        W26697  13.500  16.799   4.731 -0.2139  0.0789  0.2873
 7844W        W26698  16.832   4.378   3.814  0.0320  0.1632  0.0888
 7845W        W26699   3.249   5.338  10.987  0.2140  0.1482 -0.0871
 7846W        W26700   0.499   6.999   3.863  0.1764 -0.2245  0.0532
 7847W        W26701   9.067   1.521  10.486  0.0322  0.1456  0.1866
 7848W        W26702   8.323  17.663   4.634  0.3261 -0.1821 -0.1632
 7849W        W26703  14.323  12.712   4.166  0.3376  0.1154  0.0352
 7850W        W26704  11.321   3.721   3.417 -0.1652  0.1555 -0.2441
 7851W        W26705  12.384  11.141  11.735 -0.0529 -0.1205  0.2766
 7852W        W26706   7.261   9.175  11.996  0.0607 -0.2086 -0.2197
 7853W        W26707  17.729  15.626  11.949  0.1954  0.0251  0.0960
 7854W        W26708   9.273   2.249  11.776 -0.2440 -0.1714 -0.0261
 7855W        W26709  17.187   5.347  10.522 -0.1280 -0.1500  0.0214
 7856W        W26710   1.832  17.139  12.543  0.0098 -0.0056 -0.1966
 7857W        W26711  10.880  15.555   0.193  0.1463 -0.2952 -0.1016
 7858W        W26712  19.174  13.413   4.202  0.2080  0.0336  0.0733
 7859W        W26713  18.538   2.392   4.340 -0.0321  0.2399 -0.1311
 7860W        W26714  12.125   5.996  13.494  0.1406 -0.0609  0.1167
 7861W        W26715   7.346   6.181   0.322 -0.2164  0.0456  0.0695
 7862W        W26716  15.872   7.259   0.633 -0.1714  0.0492  0.1099
 7863W        W26717  15.078   3.553   2.955  0.1958  0.1382 -0.3201
 7864W        W26718  10.446   9.698   2.678 -0.1975  0.0935  0.0843
 7865W        W26719   1.780   4.364  10.835  0.3647  0.0913  0.1408
 7866W        W26720   7.247   0.470  11.740 -0.1527 -0.1558  0.0521
 7867W        W26721  12.360   5.308   1.259 -0.0572 -0.0712 -0.2733
 7868W        W26722   7.690   9.021  13.727  0.1204  0.2458  0.2090
 7869W        W26723   3.767   7.771   2.835  0.0826  0.1160  0.1107
 7870W        W26724   3.895  19.110   2.042  0.3072  0.3526 -0.0213
 7871W        W26725   8.162  12.867  14.618 -0.0092  0.0305 -0.0395
 7872W        W26726   4.740  11.633  11.407 -0.0945 -0.0787  0.0416
 7873W        W26727  10.101   2.599  13.340 -0.0885  0.2097  0.2663
 7874W        W26728  11.351   1.349   0.056  0.1563 -0.3617  0.3345
 7875W        W26729   3.081   5.162   2.697 -0.1503  0.2231 -0.1012
 7876W        W26730   6.497   1.566  13.591  0.1168  0.0259  0.0898
 7877W        W26731  10.122  19.012  14.171 -0.1577  0.0563 -0.3983
 7878W        W26732   5.249   4.410   3.897 -0.2242 -0.2356 -0.1535
 7879W        W26733  15.928   2.938  13.287  0.2393  0.0866  0.4337
 7880W        W26734   0.120   2.399  14.586 -0.2769  0.2904  0.3283
 7881W        W26735  13.418  12.573   3.579  0.0329 -0.0124  0.1757
 7882W        W26736  14.601  17.054  14.220  0.0466 -0.1821  0.2997
 7883W        W26737  16.835   6.275  14.167 -0.1480 -0.1946  0.0938
 7884W        W26738  17.354  15.047  10.975 -0.0354 -0.0557 -0.0165
 7885W        W26739  16.553  11.990  14.205 -0.1230  0.1355  0.0560
 7886W        W26740  16.044  15.969   0.646 -0.0410 -0.2719 -0.1856
 7887W        W26741  18.329  16.484  10.798  0.0365 -0.0332 -0.2526
 7888W        W26742   9.948  12.982   3.976 -0.1034  0.1337 -0.0817
 7889W        W26743  11.730  10.772   2.381  0.2914  0.0595  0.5430
 7890W        W26744   1.020   0.723   0.636 -0.3732  0.0697  0.0958
 7891W        W26745  17.690   0.083  12.054 -0.2791 -0.2952  0.0195
 7892W        W26746  16.286   5.842  12.720 -0.1207  0.0263  0.0210
 7893W        W26747  16.690   3.849   3.310 -0.0005  0.1058  0.1955
 7894W        W26748  16.466   8.720   2.922 -0.0426 -0.2034 -0.3411
 7895W        W26749   4.315  10.174  10.987  0.1611  0.0110  0.0286
 7896W        W26750   9.532  13.104  10.768  0.0159 -0.0941 -0.0779
 7897W        W26751  16.898  15.928  12.861 -0.3411  0.0063 -0.1608
 7898W        W26752  14.355  13.742  12.491  0.1305 -0.0156 -0.1163
 7899W        W26753   0.682   8.584   0.692  0.0399 -0.0039  0.1628
 7900W        W26754  16.212  15.993   1.153 -0.1483 -0.0658 -0.0458
 7901W        W26755  12.756  17.705   3.729 -0.0062  0.3530 -0.0873
 7902W        W26756  12.149   2.319   1.882 -0.1533  0.0303  0.0158
 7903W        W26757   2.914   7.812  14.634 -0.1088  0.1323  0.1921
 7904W        W26758  18.059   7.384  10.238  0.3022 -0.1721  0.1631
 7905W        W26759  17.371   5.865   0.799 -0.1888 -0.0137 -0.3498
 7906W        W26760   5.705   7.073  12.615  0.0346  0.3620  0.2836
 7907W        W26761   9.600   3.537  11.283  0.2191 -0.2349 -0.2831
 7908W        W26762  13.898  14.929   1.348  0.1336  0.0552  0.2355
 7909W        W26763   6.798  16.637  10.315 -0.3037  0.1041 -0.1083
 7910W        W26764  14.163   9.737   0.302  0.1723  0.3690 -0.0372
 7911W        W26765   1.535   9.620   0.333 -0.2583  0.2307  0.2421
 7912W        W26766   9.264   6.089   1.900 -0.1942  0.2562  0.0494
 7913W        W26767   7.134   4.644   1.565 -0.1170 -0.0570 -0.2478
 7914W        W26768  19.188  11.191  14.010 -0.0278 -0.0470 -0.0920
 7915W        W26769  14.277   0.385   1.348  0.1773 -0.1627 -0.0609
 7916W        W26770   8.711  14.421  12.306  0.1579  0.4337  0.1956
 7917W        W26771  14.061  13.190  10.402  0.0932  0.0173  0.0339
 7918W        W26772  10.566   9.599   2.223  0.0782  0.1563  0.2178
 7919W        W26773  11.100   8.344   0.509 -0.2619 -0.2671 -0.1477
 7920W        W26774  13.205  12.766  11.643 -0.1454  0.2185  0.0806
 7921W        W26775  16.787   8.158   9.799  0.1521  0.0236  0.0511
 7922W        W26776   4.501  15.799  12.866 -0.1416 -0.2307 -0.0556
 7923W        W26777  17.166   7.115   3.393 -0.0720 -0.0617 -0.0178
 7924W        W26778   9.748  14.722   4.301  0.0482  0.2962  0.1249
 7925W        W26779   1.041   9.786   2.212  0.1024  0.1145  0.1937
 7926W        W26780  17.464   8.777  10.768  0.2964 -0.3760 -0.2125
 7927W        W26781   7.923   3.935   1.331  0.1137  0.0454  0.1771
 7928W        W26782   7.901   9.008  14.454 -0.1821  0.0835 -0.0971
 7929W        W26783   8.586   4.437   9.759 -0.1801 -0.0382  0.0644
 7930W        W26784  13.020   5.252  12.334 -0.1463 -0.1344  0.0792
 7931W        W26785   6.675   0.976  11.583  0.0703  0.2811 -0.0386
 7932W        W26786   3.084   5.444   2.281  0.0916  0.3262  0.0288
 7933W        W26787  14.164  14.226  14.604  0.5642  0.1120  0.4864
 7934W        W26788  10.133  12.502  13.670  0.2467  0.2707 -0.0916
 7935W        W26789   1.530   3.314   1.534  0.1309 -0.1446  0.2668
 7936W        W26790  17.705  17.644   0.103 -0.0104 -0.0316 -0.0903
 7937W        W26791  17.042   6.627   2.465  0.0873 -0.0500 -0.1242
 7938W        W26792  11.431   7.290   0.918  0.0955 -0.1321 -0.0297
 7939W        W26793  16.161  15.005  13.603 -0.0602 -0.2059  0.1307
 7940W        W26794  17.543  13.805  11.099  0.2907 -0.1286 -0.0704
 7941W        W26795   6.279  14.572   5.393  0.2719  0.0549  0.1297
 7942W        W26796   7.521   5.254  14.592  0.0470 -0.3093  0.1201
 7943W        W26797   0.667  11.132   3.665 -0.1102  0.0079  0.0203
 7944W        W26798   0.897  14.696  13.959  0.0145  0.4700  0.0032
 7945W        W26799   0.610   0.940  13.550 -0.0120  0.1878  0.0231
 7946W        W26800   0.468  14.016   5.182  0.0165 -0.3966  0.0286
 7947W        W26801   6.207  12.843  10.576 -0.6077  0.0667  0.1938
 7948W        W26802  11.621   6.234  12.083 -0.0315 -0.2915  0.2066
 7949W        W26803   0.591   6.162   2.437 -0.1284  0.1247  0.0342
 7950W        W26804   0.887   8.330   1.143 -0.0418 -0.0606  0.1599
 7951W        W26805   1.274  15.442  13.595 -0.0191 -0.4783 -0.3652
 7952W        W26806   8.237   5.487   1.521  0.0625 -0.1972 -0.1833
 7953W        W26807  19.117  14.753   0.134  0.5592 -0.1278  0.3774
 7954W        W26808   8.261   3.611   1.105  0.2370 -0.1181 -0.1214
 7955W        W26809   9.605  18.065   1.300  0.1322  0.1144  0.0422
 7956W        W26810  14.514  13.775   4.561 -0.2529 -0.3665  0.2053
 7957W        W26811  12.528  11.354   3.561 -0.1163 -0.3243 -0.1277
 7958W        W26812  18.297  17.334  11.133 -0.0352 -0.1157 -0.1815
 7959W        W26813   1.064   2.763  12.854  0.0811  0.1801 -0.0163
 7960W        W26814  18.404  14.147  10.486  0.1499  0.1174 -0.1879
 7961W        W26815  16.080   0.710   5.688  0.3365  0.3223 -0.0211
 7962W        W26816   8.420   3.733   0.270  0.1279  0.2727  0.1177
 7963W        W26817  12.846   5.512  14.388 -0.0644  0.0500 -0.0216
 7964W        W26818  18.246   4.427   3.276 -0.4164  0.0531  0.2573
 7965W        W26819  10.030   1.201  10.016  0.0982  0.0923 -0.3722
 7966W        W26820  11.712   3.179  14.521 -0.2231  0.1749  0.0030
 7967W        W26821  19.062  17.269   0.914 -0.1989 -0.1557  0.0208
 7968W        W26822  15.371   2.441   0.987 -0.2168 -0.2496 -0.0425
 7969W        W26823  14.402  18.164  14.364 -0.2501 -0.1059 -0.2568
 7970W        W26824   5.842   2.094   3.687 -0.2103  0.0825  0.1124
 7971W        W26825  13.143   5.063   1.676 -0.3071  0.2647 -0.1612
 7972W        W26826  15.152   3.214   2.011  0.0838  0.0388 -0.1761
 7973W        W26827  17.394  11.387   2.428  0.2786  0.1143 -0.2458
 7974W        W26828  14.588  18.178  12.397  0.2414  0.2212 -0.0327
 7975W        W26829  18.020  14.250  12.618  0.2215  0.0575  0.2703
 7976W        W26830  12.165  14.705   3.605  0.0409  0.1544  0.2689
 7977W        W26831  13.575   3.673   1.108  0.0771 -0.2346 -0.1471
 7978W        W26832   1.684  13.978   2.957 -0.2192 -0.1988  0.1255
 7979W        W26833  13.011  18.262   1.443  0.1819  0.0296  0.0859
 7980W        W26834   6.938  15.771  14.135  0.0166  0.3825 -0.0584
 7981W        W26835  10.135  10.203   9.335  0.1848  0.0002 -0.1276
 7982W        W26836  17.155   1.241  13.699  0.1884 -0.1193 -0.0321
 7983W        W26837  17.605  18.915  11.307 -0.3255 -0.3322 -0.2838
 7984W        W26838   1.835  15.633  13.433  0.1878 -0.0459 -0.1499
 7985W        W26839   3.798  19.073   3.971 -0.0519 -0.0850 -0.1882
 7986W        W26840  10.820   6.919  13.148 -0.2351  0.0104  0.0022
 7987W        W26841  10.105  19.014   1.302  0.0360 -0.3055  0.3761
 7988W        W26842  15.017   9.758   4.522  0.1676 -0.0768  0.1403
 7989W        W26843   7.974  17.843  10.707  0.0046  0.1987  0.0887
 7990W        W26844  16.620  14.340  10.897  0.3155  0.0510 -0.3048
 7991W        W26845   2.069  18.077   0.465  0.0242  0.3036  0.1313
 7992W        W26846  17.476  17.208  12.587  0.1825  0.2047 -0.0647
 7993W        W26847  11.544   6.369   3.256 -0.2349  0.1373 -0.1570
 7994W        W26848  11.120  18.866   3.937  0.1680  0.0518  0.0614
 7995W        W26849   2.688  13.904  12.866 -0.0637 -0.3151  0.0150
 7996W        W26850  19.154  17.567  10.799 -0.1328  0.1572  0.0622
 7997W        W26851   7.697  18.082   1.157 -0.4096  0.0078 -0.0683
 7998W        W26852  17.314  16.630  11.972 -0.2373 -0.0566  0.6257
 7999W        W26853   8.975  18.446  11.644  0.1972 -0.0971 -0.0426
 8000W        W26854   4.729   1.428   2.497  0.4419  0.0147  0.3167
 8001W        W26855   7.939   8.389   3.489 -0.2076 -0.1557  0.1726
 8002W        W26856  16.707   1.765  11.417  0.0328  0.0227  0.1641
 8003W        W26857  16.710   7.919  14.199 -0.0162 -0.0423  0.1801
 8004W        W26858  14.742   8.823  14.235  0.1153  0.0028  0.1676
 8005W        W26859   4.920   5.002   1.221  0.0085 -0.2674 -0.1280
 8006W        W26860   9.243  17.452  12.411  0.1622  0.0801 -0.0389
 8007W        W26861  13.857  11.600   0.020  0.0119 -0.1767  0.1660
 8008W        W26862  11.960   7.558  14.496  0.1628  0.2133  0.2045
 8009W        W26863  15.746  13.342  12.466 -0.0698  0.4638 -0.0848
 8010W        W26864   6.015  12.656   2.157  0.1639  0.0046 -0.4862
 8011W        W26865  12.300  18.763   3.687 -0.4264 -0.1192 -0.1332
 8012W        W26866  10.643  12.177   2.457  0.3221  0.2153  0.0165
 8013W        W26867   3.222  16.191  11.824  0.3092 -0.1560 -0.0360
 8014W        W26868   0.791  13.016   4.482  0.0074  0.1716 -0.0484
 8015W        W26869  19.028  15.533  14.613  0.0366  0.0941  0.0294
 8016W        W26870  14.703  17.351   3.208  0.2175 -0.1526  0.2835
 8017W        W26871   3.060   8.044   4.133 -0.2406 -0.0192  0.1900
 8018W        W26872  17.781  14.514   3.409  0.1372 -0.6033  0.0504
 8019W        W26873  11.588  18.324  10.851  0.0198  0.2832 -0.1158
 8020W        W26874  14.258  12.938   3.234  0.0359 -0.1180  0.0038
 8021W        W26875  12.459   4.163  11.905 -0.1332  0.2460  0.2206
 8022W        W26876   5.042   3.506   0.216 -0.0470  0.1191 -0.1893
 8023W        W26877   2.022  15.826  10.541  0.1920  0.2067 -0.3426
 8024W        W26878   0.923   1.571  14.520  0.0498  0.1797 -0.1074
 8025W        W26879   0.614   2.468  12.576 -0.0377 -0.1329  0.0298
 8026W        W26880  10.238  15.044   2.598 -0.0199 -0.0937 -0.1877
 8027W        W26881  16.188   5.508   2.911  0.1636 -0.1966  0.2205
 8028W        W26882   1.074  10.424  14.499 -0.2147 -0.1984 -0.0037
 8029W        W26883  13.230   1.993   2.895 -0.0927 -0.2363  0.1673
 8030W        W26884   3.958   8.316  10.528 -0.0558  0.0212  0.0767
 8031W        W26885   0.643  12.424  10.978  0.2253 -0.1574  0.0841
 8032W        W26886   7.526   7.604  14.469 -0.0621  0.0489  0.2026
 8033W        W26887  17.874   5.964  14.251  0.0575 -0.2103 -0.1644
 8034W        W26888   9.091   9.291   0.979 -0.2771  0.0426 -0.2007
 8035W        W26889   4.989  17.122  14.394 -0.1462  0.2502  0.4200
 8036W        W26890  18.908   5.529   2.779  0.2193  0.2384 -0.2249
 8037W        W26891   4.467   3.953   4.888 -0.0522  0.0961  0.1285
 8038W        W26892  15.936  15.581  10.292  0.0877  0.1773  0.1813
 8039W        W26893  14.782   7.091   2.057 -0.3122  0.3138 -0.0209
 8040W        W26894   3.469  13.143   0.378  0.1157  0.2251  0.0346
 8041W        W26895   5.011   7.015  14.571 -0.2894  0.0989 -0.3773
 8042W        W26896  19.167   5.221  12.347 -0.1802 -0.1672  0.0307
 8043W        W26897  12.189   1.792   3.318 -0.2068  0.3265  0.0811
 8044W        W26898   6.865   2.715  12.754  0.0534 -0.0841  0.0596
 8045W        W26899   4.306   2.755   3.677 -0.2286  0.2107  0.0358
 8046W        W26900  11.956  12.551  10.685 -0.1861 -0.0546  0.1488
 8047W        W26901   4.784   6.102  11.138  0.1671 -0.1182  0.0609
 8048W        W26902   2.359   1.949  11.126 -0.2498 -0.1382  0.1961
 8049W        W26903   3.007  10.751  11.316 -0.2559 -0.0766  0.1492
 8050W        W26904  17.897   2.486   0.402 -0.1984 -0.1818  0.0784
 8051W        W26905   1.519   9.832   0.936 -0.1743  0.2585 -0.0553
 8052W        W26906  16.402  12.776   0.095  0.0029  0.1898 -0.2002
 8053W        W26907   2.903  10.243  11.670 -0.0559  0.0264  0.3891
 8054W        W26908   2.900  18.371   1.528  0.0316  0.0463  0.2794
 8055W        W26909  13.727  14.334  14.445  0.1373 -0.0575 -0.0606
 8056W        W26910  15.283  16.095   2.861 -0.0584 -0.0638  0.4940
 8057W        W26911   8.360   9.681   2.439  0.1670 -0.0644  0.3107
 8058W        W26912  19.078   9.949   3.684 -0.0358 -0.0547  0.2500
 8059W        W26913   3.529   2.037  10.610 -0.2099 -0.0224  0.4140
 8060W        W26914  14.615  17.178  13.121 -0.0209 -0.0159 -0.0451
 8061W        W26915  14.647   0.539  11.359  0.0535  0.1153  0.1787
 8062W        W26916  13.950   4.168  14.396 -0.2882  0.2254 -0.0598
 8063W        W26917   9.637   6.635  11.106 -0.0189 -0.0938  0.0115
 8064W        W26918  13.946   9.201  13.248  0.2111 -0.0727  0.2376
 8065W        W26919   8.400   2.380   2.505 -0.1088 -0.1787 -0.0521
 8066W        W26920  14.900   9.944   2.734 -0.0618 -0.2849  0.0516
 8067W        W26921   2.567   2.585   9.808  0.3866 -0.2904 -0.0353
 8068W        W26922   3.118   3.355  12.974  0.0714 -0.2048  0.2071
 8069W        W26923   9.142  16.978  13.988  0.0303 -0.0442  0.1594
 8070W        W26924  16.939  17.073  10.578 -0.0629  0.0434  0.3539
 8071W        W26925   5.934   4.518   1.052 -0.3157 -0.1517 -0.1808
 8072W        W26926   0.752   2.505   2.650 -0.1807 -0.0726 -0.1339
 8073W        W26927  17.630   6.070  12.767 -0.1294  0.0626  0.2383
 8074W        W26928  12.919  18.703   0.212 -0.0791 -0.0972 -0.4736
 8075W        W26929   4.072  17.780   2.472  0.2295 -0.0148 -0.0434
 8076W        W26930   3.106   9.469   2.952 -0.0553 -0.1471 -0.1827
 8077W        W26931   6.312   2.313   4.235 -0.2282 -0.3415 -0.0047
 8078W        W26932   6.810   5.358   1.073  0.2811  0.2831 -0.0437
 8079W        W26933   8.050   6.889   0.686 -0.4373  0.0990  0.0462
 8080W        W26934   9.740   8.596   2.349  0.0713 -0.2195 -0.1716
 8081W        W26935   3.261   8.487  12.805 -0.0728 -0.0304  0.0162
 8082W        W26936   3.249  18.284  14.453  0.0470 -0.1408  0.0065
 8083W        W26937  17.104  16.517  14.069  0.0587 -0.0451 -0.0503
 8084W        W26938  12.412   4.276  12.420  0.0182  0.0285 -0.0001
 8085W        W26939  17.190  10.454  13.601  0.1293  0.1993 -0.0606
 8086W        W26940  12.910  19.088  11.585  0.0721  0.3160  0.0669
 8087W        W26941  17.013  11.757  13.276  0.2439 -0.2522 -0.0300
 8088W        W26942  18.876  10.691  14.116 -0.0256  0.2765  0.1363
 8089W        W26943  13.662   9.125   1.715 -0.1482 -0.0229  0.1688
 8090W        W26944  14.415   7.408   0.137  0.1971 -0.0765 -0.1698
 8091W        W26945   3.742  16.740  13.726 -0.2146  0.2327  0.0973
 8092W        W26946  19.105  16.351   2.723  0.0100  0.0087  0.0813
 8093W        W26947   2.304   8.281   3.825 -0.0703  0.0320 -0.1557
 8094W        W26948   0.292  16.435   0.373  0.0274  0.0407 -0.3041
 8095W        W26949  11.752  11.944  12.493 -0.2085 -0.3384  0.1522
 8096W        W26950  18.791  11.309  12.279 -0.0300  0.1519  0.0063
 8097W        W26951   2.487  16.337   2.719 -0.1779 -0.0466  0.0089
 8098W        W26952   4.755   5.090  12.042 -0.0932 -0.0630  0.0488
 8099W        W26953  13.643   0.110   2.675 -0.3102  0.1342 -0.1991
 8100W        W26954  16.103   6.677   2.961  0.1277  0.1691  0.1130
 8101W        W26955   6.439   7.367   3.179  0.1471  0.2943 -0.2756
 8102W        W26956  15.747   8.686   9.957  0.2889  0.0824  0.0228
 8103W        W26957  14.616   0.971   3.032 -0.0533  0.1195 -0.2787
 8104W        W26958   7.534   1.703   5.298 -0.0573 -0.0990 -0.1027
 8105W        W26959  17.534   5.117   3.509  0.0636 -0.0916 -0.2050
 8106W        W26960   2.759   9.763  10.944 -0.1354 -0.2110  0.1374
 8107W        W26961   9.053   1.909   4.570 -0.2383 -0.0755 -0.5035
 8108W        W26962  15.705   7.890  10.838 -0.2212  0.1559 -0.1422
 8109W        W26963   7.155   4.012  12.933  0.0488 -0.0629 -0.1489
 8110W        W26964   2.810   2.904   2.098  0.1049  0.0189 -0.0888
 8111W        W26965  15.557   9.480   9.304 -0.0891  0.0605 -0.0707
 8112W        W26966  11.984  18.558   2.958  0.2880  0.0505 -0.2072
 8113W        W26967   9.826   0.092  11.143 -0.2390 -0.0611 -0.1494
 8114W        W26968   8.789   8.649  11.816 -0.0349 -0.0565 -0.0179
 8115W        W26969  11.933  11.333  11.498  0.1379 -0.0847  0.0731
 8116W        W26970   4.595   7.999   0.394  0.1054 -0.2349  0.1208
 8117W        W26971   9.116  18.748  14.595  0.3548 -0.0475 -0.4862
 8118W        W26972  15.696   3.367  13.845 -0.0829 -0.3272 -0.0451
 8119W        W26973   0.872  11.316   4.390  0.0360  0.1035 -0.0814
 8120W        W26974  18.167   6.277   3.546  0.2318  0.1304 -0.1214
 8121W        W26975  10.425   8.047   3.690  0.1209  0.2654  0.2155
 8122W        W26976   2.176  11.745  13.090 -0.0162  0.0340 -0.0665
 8123W        W26977  12.939   0.681   2.255  0.1357  0.1628  0.2528
 8124W        W26978  15.554   5.156   2.500  0.0370  0.2986 -0.1726
 8125W        W26979  12.449   5.009   4.000 -0.1287 -0.1175  0.3603
 8126W        W26980  11.734  15.644   4.018  0.0966  0.0895 -0.5618
 8127W        W26981  11.465   1.338  11.909 -0.1370 -0.0364 -0.1597
 8128W        W26982   3.113  14.223  12.832 -0.1622 -0.1264 -0.1296
 8129W        W26983   5.977   5.143   3.928 -0.1302  0.0983 -0.0535
 8130W        W26984   9.675  14.371  12.612 -0.2185  0.1754  0.1642
 8131W        W26985   1.327  12.339   3.989 -0.1120 -0.2183 -0.1294
 8132W        W26986   5.025   9.312   0.568 -0.1308 -0.0327  0.0154
 8133W        W26987  14.790  16.276   2.859 -0.2787  0.0894  0.0782
 8134W        W26988   7.800   2.274  12.925 -0.0314  0.0065  0.1205
 8135W        W26989   4.551   6.279   0.118  0.2591  0.3538 -0.3375
 8136W        W26990   0.183   4.087  12.062  0.1134  0.0414 -0.0299
 8137W        W26991   8.566   1.648   1.355 -0.1229  0.1739  0.0500
 8138W        W26992  14.395  18.159   2.419 -0.0489  0.2681  0.2298
 8139W        W26993  14.501  16.903   9.677 -0.4293 -0.0193 -0.3353
 8140W        W26994   5.404   5.873   1.239  0.2994  0.1568  0.3097
 8141W        W26995   2.432   1.291  12.036  0.3036  0.1749  0.0736
 8142W        W26996  16.809  14.578   1.199 -0.1772  0.0572  0.3733
 8143W        W26997   9.102   4.415  12.785  0.0700 -0.0324  0.0988
 8144W        W26998   0.035   7.216   3.805 -0.1665  0.2169 -0.2244
 8145W        W26999  16.804   8.399  12.839 -0.2361 -0.0999  0.0642
 8146W        W27000  12.564  10.582  11.924 -0.2766 -0.2100 -0.1026
 8147W        W27001  14.360   8.515   1.641  0.1957 -0.1217 -0.2227
 8148W        W27002  15.496   6.150   2.755 -0.0974  0.3145 -0.1881
 8149W        W27003   4.430  18.782  10.491 -0.0175 -0.1982 -0.0134
 8150W        W27004  17.883   0.934   0.489  0.0910 -0.3604 -0.1420
 8151W        W27005  17.074  16.083   4.984  0.2392  0.0434  0.0288
 8152W        W27006   3.045  15.466  13.467  0.1346  0.2769 -0.0853
 8153W        W27007  13.407   6.950   0.265 -0.0676  0.0182  0.2268
 8154W        W27008  18.320   2.524  14.352 -0.4083  0.0345 -0.2959
 8155W        W27009   7.038  11.985   0.528 -0.4326 -0.4435  0.0052
 8156W        W27010   2.923   6.476  13.388  0.1023 -0.1882  0.0082
 8157W        W27011  10.735  10.702  11.948  0.0930  0.0819 -0.1765
 8158W        W27012  10.206   5.269   2.974  0.3383  0.0875 -0.1204
 8159W        W27013   5.903  18.839  13.903 -0.1420  0.1719 -0.3333
 8160W        W27014   0.991   9.619  11.796 -0.2146  0.0803 -0.2170
 8161W        W27015   9.097   7.683  11.639 -0.3203  0.2204 -0.1849
 8162W        W27016   2.605  14.174   0.016  0.2679  0.2183  0.3967
 8163W        W27017  13.152   8.389  14.634  0.1930 -0.2308 -0.0365
 8164W        W27018   8.648  15.619   2.023  0.0429 -0.0029  0.0603
 8165W        W27019   9.377  18.619  11.431  0.3356 -0.0866  0.0339
 8166W        W27020   2.811  17.824   3.511 -0.2217 -0.0929 -0.1253
 8167W        W27021   9.843   9.239   1.517 -0.1451  0.1237 -0.2303
 8168W        W27022   0.813   3.811  13.935 -0.1374  0.1887 -0.1447
 8169W        W27023   4.459   3.450   3.095  0.0650  0.1137 -0.0415
 8170W        W27024   0.509   8.454  12.129  0.0290 -0.2343  0.0861
 8171W        W27025   5.737  10.834   1.127 -0.1122  0.0661 -0.2186
 8172W        W27026   0.481  19.147  10.304 -0.1103  0.0822  0.2604
 8173W        W27027   4.606  15.756   3.924 -0.3017 -0.0352  0.3576
 8174W        W27028  14.884   8.914  10.143  0.0554 -0.2422 -0.4151
 8175W        W27029   6.719  10.273  14.669 -0.0131 -0.0151  0.0010
 8176W        W27030   0.227  17.053   2.583 -0.2659  0.1119 -0.1981
 8177W        W27031  17.308   1.784   0.116 -0.2713  0.2575 -0.2679
 8178W        W27032   6.946   5.145   3.799  0.1542 -0.5324  0.0281
 8179W        W27033   0.577   9.019   1.689 -0.4968  0.2402 -0.0363
 8180W        W27034  15.994   2.789  14.563 -0.0631  0.2473  0.0363
 8181W        W27035  13.274  10.751  13.762  0.1260  0.3119  0.0458
 8182W        W27036  18.971  16.351   5.379  0.1321 -0.2353 -0.2008
 8183W        W27037   4.208  12.740  14.552 -0.3014  0.4413 -0.1147
 8184W        W27038  16.834  14.401  14.406  0.1979 -0.1387  0.2158
 8185W        W27039  11.087  18.092  11.559 -0.0829  0.0052  0.0965
 8186W        W27040   9.950  11.070   2.691  0.0043  0.0251  0.1312
 8187W        W27041   7.228  14.692  13.709  0.0604 -0.1566  0.1784
 8188W        W27042   7.202  16.257   0.285 -0.0962 -0.0105  0.0758
 8189W        W27043  12.160  14.117   2.426 -0.3625 -0.0370  0.0744
 8190W        W27044  10.471   2.535  11.493 -0.0749 -0.0076  0.2015
 8191W        W27045   0.199  13.915   4.338 -0.0396 -0.0263  0.2049
 8192W        W27046   6.303   4.199  12.393  0.2681  0.0236 -0.0235
 8193W        W27047  18.600   8.712   3.122  0.0307 -0.0680  0.1973
 8194W        W27048   5.459  10.366   1.288 -0.3033  0.1004 -0.1606
 8195W        W27049   4.566   4.270  12.779 -0.0820  0.1702  0.1820
 8196W        W27050   5.964   4.070   3.213  0.0695  0.0716 -0.1227
 8197W        W27051  11.178   5.639  13.345 -0.2098 -0.0121 -0.4116
 8198W        W27052  10.566   1.292   3.590  0.0263  0.0519 -0.1713
 8199W        W27053  15.334  11.287   0.747 -0.2474 -0.0825  0.2214
 8200W        W27054  17.061   8.741   3.800  0.2152 -0.0424  0.0766
 8201W        W27055   6.381  13.531   1.686 -0.0080 -0.2184 -0.0410
 8202W        W27056   9.081  11.307  10.990 -0.1348  0.2163  0.0551
 8203W        W27057  18.430  16.355   0.310  0.0327  0.1640 -0.0887
 8204W        W27058  14.949   9.620   0.124  0.3598  0.1291  0.0207
 8205W        W27059  12.241   3.878  10.325 -0.1627 -0.2387 -0.0664
 8206W        W27060   4.081  11.906   0.050  0.1414 -0.0678 -0.0463
 8207W        W27061  18.061   2.723   1.649 -0.2889 -0.2120  0.0823
 8208W        W27062  18.365   1.829  11.436 -0.1006  0.0797  0.3050
 8209W        W27063  14.268  12.335   3.787 -0.1689  0.0371 -0.1863
 8210W        W27064  12.237  11.442   3.905 -0.2378 -0.0870 -0.1723
 8211W        W27065   7.381   2.774   1.055 -0.0461 -0.0811  0.3720
 8212W        W27066  14.720   6.119   1.968 -0.1762  0.3502 -0.1883
 8213W        W27067  13.929   0.556   0.790 -0.0710 -0.1707 -0.2528
 8214W        W27068   6.141   6.495  12.326  0.0555  0.0005 -0.0165
 8215W        W27069  18.426   7.904  14.484 -0.0164  0.2501  0.2635
 8216W        W27070   2.148  12.857  12.300 -0.0253  0.2046 -0.0356
 8217W        W27071  17.936   0.185   0.258 -0.1427  0.1222 -0.0896
 8218W        W27072   2.241  13.480   4.922  0.1304  0.0432  0.0266
 8219W        W27073   8.546  10.086  10.589 -0.0087  0.2249 -0.0252
 8220W        W27074   7.318   8.552   2.285 -0.2623 -0.1103 -0.2218
 8221W        W27075  16.675  15.693  12.470  0.0474  0.0949  0.1022
 8222W        W27076  16.963  12.624   1.583 -0.1628  0.1657 -0.0453
 8223W        W27077   6.149   4.007  10.395  0.0298 -0.2566 -0.1989
 8224W        W27078   6.457  15.864   4.163  0.2123 -0.1416  0.0443
 8225W        W27079  11.950   6.205  11.380  0.2137 -0.1945  0.2753
 8226W        W27080  13.498   1.574  13.550 -0.0708 -0.2467  0.0037
 8227W        W27081   8.900   8.551   3.798 -0.0849 -0.1847  0.0764
 8228W        W27082  17.147   1.808  11.784 -0.2133 -0.1507 -0.2704
 8229W        W27083   9.005  17.963   5.232  0.3469 -0.0302  0.2285
 8230W        W27084   6.326   6.507  14.036  0.1503  0.0775 -0.3599
 8231W        W27085   3.877   6.901   0.050 -0.0553  0.0187  0.2822
 8232W        W27086   7.881  16.850   2.782  0.0102 -0.1812 -0.1921
 8233W        W27087  15.389  11.137  10.345  0.1470  0.0544  0.1595
 8234W        W27088  11.695   5.869   4.086  0.4370 -0.0532 -0.0708
 8235W        W27089  12.613   5.753   3.824 -0.1694 -0.0396 -0.2085
 8236W        W27090  13.326   2.196  12.975 -0.1753  0.1013 -0.1180
 8237W        W27091   9.180  17.574   0.072  0.1039  0.0696  0.3651
 8238W        W27092   1.622  15.605  11.427  0.0495 -0.3026 -0.1603
 8239W        W27093  13.917  12.331  12.955  0.4276  0.2089  0.2192
 8240W        W27094   1.541   4.221   0.377 -0.0443 -0.1627  0.1732
 8241W        W27095   1.508  11.027  13.515  0.0920 -0.1824  0.2451
 8242W        W27096   1.376  13.573   9.965  0.2786 -0.2156  0.0670
 8243W        W27097   3.269   5.791  14.713 -0.3352 -0.2515 -0.0803
 8244W        W27098  18.286  15.602   4.040  0.0758 -0.0675 -0.0539
 8245W        W27099   9.987  19.135  13.637 -0.1215  0.0948 -0.1692
 8246W        W27100   7.344  18.524  13.286  0.1195 -0.1047  0.2687
 8247W        W27101   0.551   0.109   2.736 -0.1525 -0.5619  0.0768
 8248W        W27102  15.669  18.787  10.435 -0.2130  0.2618  0.1308
 8249W        W27103   3.647   2.617  11.383 -0.2885 -0.1702 -0.2503
 8250W        W27104  11.212   9.674   1.253  0.0534  0.0441 -0.2649
 8251W        W27105   7.140   5.410  13.490  0.0682  0.0536 -0.2577
 8252W        W27106  14.759   2.189   9.959  0.2195 -0.1227  0.2765
 8253W        W27107  12.306   6.609   1.210  0.0681 -0.2284 -0.1559
 8254W        W27108   6.327   9.624   1.218 -0.0080  0.0907 -0.0853
 8255W        W27109  13.561  15.122  14.077 -0.0743  0.1306  0.0235
 8256W        W27110  16.384   4.418   4.059  0.0509 -0.1688 -0.2150
 8257W        W27111   6.412  11.063  13.440  0.0378  0.2119 -0.1462
 8258W        W27112  17.004   3.280   4.426  0.3879 -0.0618 -0.0388
 8259W        W27113  16.796  17.852  10.151  0.0353 -0.0978  0.0468
 8260W        W27114  14.632   0.074  11.558 -0.2947  0.0956  0.3149
 8261W        W27115  13.387   8.596  12.628 -0.3287  0.2372 -0.0271
 8262W        W27116   0.746  14.811   1.142 -0.1849  0.1956 -0.1842
 8263W        W27117  15.868   7.439  13.129  0.2227 -0.0474  0.2245
 8264W        W27118  16.261  18.602   1.080  0.1693 -0.2315  0.2374
 8265W        W27119   3.210  16.499  11.080  0.1133 -0.0175  0.3398
 8266W        W27120   7.447   8.803  13.373  0.3375 -0.0702  0.0408
 8267W        W27121   3.120  13.488   0.519 -0.1019 -0.3092 -0.0560
 8268W        W27122  18.486  18.024  10.177  0.0767 -0.5031 -0.3223
 8269W        W27123   7.688   7.874   0.764  0.0734  0.0460  0.0527
 8270W        W27124  17.173  18.281   4.015  0.0977 -0.1916 -0.2246
 8271W        W27125   7.424  13.962   2.902  0.0961  0.3739 -0.0119
 8272W        W27126  15.290  13.309   4.129 -0.1883 -0.0713  0.0544
 8273W        W27127   9.804   9.501   3.319 -0.1417 -0.0376  0.2635
 8274W        W27128   2.245  16.525  10.759 -0.3826  0.0938 -0.1240
 8275W        W27129   8.011   0.046   2.334 -0.2174 -0.0471 -0.0156
 8276W        W27130   4.386  14.040   2.786 -0.1900  0.0136 -0.1196
 8277W        W27131   9.923  13.609  13.919 -0.0590  0.0999 -0.0727
 8278W        W27132   0.285   2.308  13.098 -0.0869 -0.0876  0.1145
 8279W        W27133   0.718  14.934  12.934 -0.0205 -0.3586  0.0197
 8280W        W27134  11.438   2.153  14.429  0.0005  0.1520 -0.1439
 8281W        W27135  12.135  17.541   0.480 -0.1209  0.2378 -0.1974
 8282W        W27136   7.142   1.815  10.946 -0.2528  0.0300  0.1893
 8283W        W27137  17.000  16.214   2.319 -0.1736 -0.1435  0.2162
 8284W        W27138   7.255  10.986   2.687 -0.1223 -0.0403 -0.1686
 8285W        W27139  12.469  14.445  14.550  0.0308 -0.1445 -0.1011
 8286W        W27140  12.948   5.115  10.929 -0.1662 -0.3346  0.1388
 8287W        W27141  15.921  12.320  14.635  0.1604 -0.1744 -0.1718
 8288W        W27142   0.521   5.180  13.298  0.1920 -0.3497 -0.1105
 8289W        W27143   7.784  17.572  13.757 -0.1762 -0.2478  0.1760
 8290W        W27144  15.904   1.161   0.643  0.0323 -0.3697 -0.0286
 8291W        W27145   6.472   1.993   2.871 -0.0183  0.2900 -0.0363
 8292W        W27146   5.599  18.031  12.020 -0.2806 -0.2841  0.0742
 8293W        W27147   1.486   5.025  14.615  0.1060  0.2419 -0.1947
 8294W        W27148   4.332  16.441   3.017  0.1268 -0.2068  0.0813
 8295W        W27149  17.232   7.091   0.507  0.0069  0.3376 -0.1304
 8296W        W27150  12.446  17.088  13.395  0.1142 -0.2785 -0.2910
 8297W        W27151   4.872  12.186   1.932  0.1872 -0.1592 -0.0368
 8298W        W27152  17.570  17.572   0.789  0.0270 -0.1055 -0.3944
 8299W        W27153  13.278  15.897   4.490  0.3193 -0.0561 -0.0016
 8300W        W27154  13.598   5.001  12.076 -0.1815  0.3900  0.0941
 8301W        W27155   3.476   8.023  11.743  0.1945 -0.0001 -0.1357
 8302W        W27156   9.982   0.288  10.726 -0.2592 -0.1171 -0.3440
 8303W        W27157  14.061  11.632  14.328 -0.3422 -0.0547  0.2517
 8304W        W27158  18.674   0.252   3.270 -0.0774  0.3507  0.1442
 8305W        W27159   3.482   6.631  13.091  0.2726 -0.2063  0.1406
 8306W        W27160   5.841  14.186  13.711  0.1539  0.1500  0.1517
 8307W        W27161   4.723   6.367  11.762 -0.0013 -0.0979 -0.0336
 8308W        W27162   3.131   8.251   1.503 -0.1145  0.0799  0.2416
 8309W        W27163  17.435   0.230   3.156 -0.0860 -0.0151  0.1618
 8310W        W27164   2.004   4.653   1.757 -0.2148  0.1832  0.2209
 8311W        W27165  10.919  11.967  12.576  0.1442  0.4021  0.0315
 8312W        W27166  15.427   4.700   3.786  0.0803 -0.2230  0.1469
 8313W        W27167  11.573  11.756  13.282 -0.3192  0.0845  0.0058
 8314W        W27168  16.144  17.400   2.854  0.0608  0.0282 -0.3610
 8315W        W27169   5.229  10.751   0.365 -0.2507  0.1713  0.0263
 8316W        W27170  13.669  10.277   1.706  0.0047 -0.0019  0.1791
 8317W        W27171  19.129   7.882   1.066  0.2757  0.1934  0.1529
 8318W        W27172  13.260   4.186  12.406  0.2427  0.0770  0.0198
 8319W        W27173  14.374  13.332   2.361  0.2200  0.1690  0.0029
 8320W        W27174  16.222  12.347  13.616  0.1541  0.0483 -0.0355
 8321W        W27175   5.737  17.802  14.629  0.1782  0.0371  0.2981
 8322W        W27176  13.497   3.186   1.193  0.0654 -0.0078 -0.1344
 8323W        W27177   7.837  14.770  13.148 -0.2236 -0.2359 -0.0240
 8324W        W27178   4.592   9.176  12.634 -0.2365  0.1179  0.0927
 8325W        W27179  15.555  16.154  13.955 -0.2552  0.1683  0.1653
 8326W        W27180   8.364  12.643   3.833  0.0784  0.0739 -0.0908
 8327W        W27181   9.672  18.994  13.301 -0.2802  0.1701  0.2663
 8328W        W27182  10.875  12.169  12.086 -0.0117 -0.3399  0.0918
 8329W        W27183  15.869  17.115  11.307  0.5205  0.0799 -0.0414
 8330W        W27184   8.756   6.181   3.708 -0.0035 -0.0527  0.0831
 8331W        W27185   5.569   4.202  13.405 -0.1289  0.0292  0.1888
 8332W        W27186   9.285   0.285   3.938 -0.1704  0.3167 -0.1361
 8333W        W27187   3.717   4.800  13.330  0.2302 -0.0658 -0.1159
 8334W        W27188   3.436   6.198   1.152 -0.1854  0.0200 -0.1542
 8335W        W27189   4.262   9.844   4.238  0.3176 -0.0280 -0.0569
 8336W        W27190  15.714   8.541  12.707  0.2254 -0.1220  0.1383
 8337W        W27191   3.193  12.051  11.863  0.0143 -0.1733 -0.1510
 8338W        W27192   2.115   2.117  13.941  0.1281 -0.3343  0.0707
 8339W        W27193  18.302   7.869   2.586 -0.0024  0.1564  0.2135
 8340W        W27194   7.235  17.602  12.113  0.1196  0.0085  0.1930
 8341W        W27195  16.174   5.334   0.576 -0.0011  0.0381  0.1521
 8342W        W27196  18.185  10.335   3.997 -0.2179 -0.0858 -0.0295
 8343W        W27197   2.272  12.994  11.389 -0.1200  0.1676 -0.3895
 8344W        W27198  14.298   7.280  12.066  0.0320 -0.1494  0.0690
 8345W        W27199   7.023  15.147   2.681 -0.0148  0.1578 -0.2965
 8346W        W27200   0.898  10.849   2.720  0.0779  0.0305  0.4504
 8347W        W27201  11.228  15.654   3.379  0.0022 -0.0187 -0.0994
 8348W        W27202   6.593   5.447   1.803 -0.0338 -0.0397 -0.0793
 8349W        W27203   5.434   1.554  13.544  0.0126 -0.2045  0.1074
 8350W        W27204   7.689  11.472  12.155 -0.2681 -0.1109 -0.0265
 8351W        W27205   3.356  14.351  10.230 -0.2453 -0.2000 -0.2273
 8352W        W27206   0.056   1.584  10.968  0.2157 -0.0216 -0.1650
 8353W        W27207   5.430   2.388  14.733 -0.1823  0.0598 -0.2888
 8354W        W27208  17.023  12.911  11.006 -0.1296  0.0714 -0.0176
 8355W        W27209   3.970   3.063  13.968 -0.1219  0.0394  0.3205
 8356W        W27210  12.001   4.511  14.092  0.4155  0.0407  0.2720
 8357W        W27211   6.185   8.077   9.790  0.1627 -0.3390  0.0764
 8358W        W27212  14.243  13.520  14.181 -0.0402 -0.0951 -0.1325
 8359W        W27213  10.023   5.061   9.856 -0.0673  0.3780 -0.0143
 8360W        W27214  13.869  11.245   2.023  0.1080 -0.1236  0.1064
 8361W        W27215  10.527   7.009  12.061 -0.1979 -0.0390 -0.3490
 8362W        W27216  18.384   3.807  12.915 -0.0149 -0.0450  0.1491
 8363W        W27217  14.745  10.236  12.518 -0.1603  0.0913 -0.1182
 8364W        W27218  13.953  12.365  13.470 -0.0055 -0.1838 -0.1560
 8365W        W27219  10.039  13.262   2.564 -0.3754 -0.1447  0.0308
 8366W        W27220   8.878  17.074   1.176  0.0100  0.1162 -0.1863
 8367W        W27221  11.990  14.975  13.969 -0.2812 -0.0154  0.1396
 8368W        W27222   8.711  18.145   2.157  0.3337  0.2651 -0.0850
 8369W        W27223   8.011  10.221  10.821  0.0688 -0.0613  0.0429
 8370W        W27224  13.546   9.823  12.609 -0.1129  0.1419  0.2583
 8371W        W27225   8.076  14.463   5.297  0.0023 -0.0417 -0.0275
 8372W        W27226   6.758   5.857  13.572 -0.0286 -0.3965  0.0084
 8373W        W27227  17.588  16.051  11.187 -0.1536 -0.1728 -0.5183
 8374W        W27228  13.192  16.181  11.973  0.1671 -0.0714 -0.2213
 8375W        W27229  13.617   2.931  11.213 -0.0434 -0.1506  0.1727
 8376W        W27230  15.847  11.964   9.556 -0.2174 -0.3876  0.0688
 8377W        W27231   9.276   4.051  10.435  0.3811  0.1080  0.2966
 8378W        W27232  18.143  17.094   0.866  0.2623 -0.2824  0.0826
 8379W        W27233  17.449   8.402   1.824  0.3010  0.1756  0.1669
 8380W        W27234   2.610   4.756   4.198  0.0410 -0.1542  0.2309
 8381W        W27235  17.008  14.896   0.796 -0.3733 -0.0375  0.0099
 8382W        W27236   7.891  17.202   1.257  0.3074  0.0307 -0.0563
 8383W        W27237  12.524  15.856   5.552 -0.1033  0.1576 -0.0349
 8384W        W27238  11.528   8.059   4.488  0.1557  0.0967 -0.0079
 8385W        W27239   3.409   4.815   0.108  0.1129 -0.1682 -0.1203
 8386W        W27240  14.712   1.803   4.459 -0.3025 -0.1851  0.2799
 8387W        W27241   9.657  10.225  11.452 -0.2665 -0.5452 -0.1047
 8388W        W27242   0.266   9.428   0.312 -0.0927  0.0907  0.1385
 8389W        W27243   2.976  13.470  14.483  0.2817 -0.4232  0.2585
 8390W        W27244  16.646   8.581   9.939  0.0679 -0.0171 -0.2321
 8391W        W27245  15.236   1.249  10.751 -0.1838 -0.0432  0.0993
 8392W        W27246  15.275   6.986   1.307 -0.3072  0.2193  0.1282
 8393W        W27247   4.957   0.133   1.385 -0.2643  0.2994 -0.3398
 8394W        W27248   3.155  18.350   4.325  0.3066  0.3546  0.0950
 8395W        W27249   8.392  12.946   9.779 -0.1858  0.1280  0.0174
 8396W        W27250   1.224  12.854   1.354 -0.2130 -0.0022 -0.3758
 8397W        W27251  18.171   3.994   0.993 -0.3236 -0.0515  0.0371
 8398W        W27252   9.791   0.763  10.830 -0.0385  0.0565 -0.1666
 8399W        W27253   5.274   6.018  13.629 -0.0752 -0.1949 -0.1343
 8400W        W27254  10.178  18.274   2.239  0.0604  0.0266  0.0634
 8401W        W27255  18.387  18.272  12.042  0.0653  0.0728  0.1635
 8402W        W27256  17.337  18.656  13.592  0.0456  0.0358  0.0374
 8403W        W27257  15.469   4.571  12.155 -0.1412 -0.0150  0.0260
 8404W        W27258   9.319   1.627  14.368 -0.2002  0.1817  0.1520
 8405W        W27259  18.594   3.943  10.649 -0.2193 -0.1214  0.2119
 8406W        W27260   6.179  15.174  11.998  0.1294 -0.3554 -0.3311
 8407W        W27261   0.116   1.324   0.106  0.4754 -0.1543  0.0056
 8408W        W27262   7.224   2.687  11.508 -0.2826  0.1573 -0.1946
 8409W        W27263   7.814  17.190   3.987 -0.1260  0.3175  0.4984
 8410W        W27264  13.201  17.845   1.759  0.1760  0.0628 -0.0431
 8411W        W27265  13.059   2.639   1.805 -0.0071 -0.0074 -0.2544
 8412W        W27266  16.676   5.259  14.423 -0.0757  0.3401  0.1281
 8413W        W27267   4.910   9.453   3.249  0.3449 -0.1053 -0.0237
 8414W        W27268  18.496   0.544  14.475  0.1463 -0.0915  0.0407
 8415W        W27269   7.109   4.864   3.211 -0.3724 -0.1127  0.1279
 8416W        W27270  17.742  11.569   3.241 -0.3334  0.0323 -0.0639
 8417W        W27271   4.401   9.540   3.465 -0.4298 -0.3899  0.1518
 8418W        W27272   4.491  11.202  11.514  0.1534  0.1284  0.0753
 8419W        W27273   6.100   6.856   0.429  0.1843  0.1874  0.1191
 8420W        W27274  16.714  13.886   2.397 -0.2503  0.0859 -0.3643
 8421W        W27275  16.038  16.474  13.410  0.3920 -0.1419  0.0854
 8422W        W27276  14.223  15.516  12.291 -0.0372 -0.0315  0.0377
 8423W        W27277  17.163  13.496   3.606 -0.1110  0.1655  0.0139
 8424W        W27278  16.866  18.049  13.076  0.2039 -0.0293  0.0951
 8425W        W27279  13.254   7.955   4.290 -0.0749  0.0317  0.1760
 8426W        W27280   5.656   8.558  13.478  0.0124 -0.1297  0.0822
 8427W        W27281  17.552  10.620  14.033 -0.1435  0.0150  0.1750
 8428W        W27282  15.661  14.573  12.687  0.0174  0.2562 -0.0243
 8429W        W27283   3.799   7.696  11.927  0.0291 -0.1718  0.0566
 8430W        W27284   6.246  10.495  13.028  0.0470 -0.1794  0.1289
 8431W        W27285   0.228   3.427  10.908 -0.0900 -0.1996  0.0355
 8432W        W27286  14.787   8.073  10.885  0.0135  0.3763  0.0035
 8433W        W27287   3.843   6.783   4.139 -0.0216  0.0121 -0.4972
 8434W        W27288   7.470  16.236   4.706 -0.4710 -0.0482 -0.2485
 8435W        W27289   7.396   5.890   4.256  0.1426  0.1065  0.1444
 8436W        W27290   5.770  12.953   2.780  0.0683  0.2377  0.1211
 8437W        W27291   4.667   4.394   3.383 -0.0070  0.1331 -0.0697
 8438W        W27292  15.389   8.372  10.792  0.2701  0.0511  0.1419
 8439W        W27293  14.186   4.238   2.669  0.0444 -0.3094 -0.3139
 8440W        W27294  16.111  14.194   4.506  0.0428  0.2111  0.0177
 8441W        W27295   7.760   4.163  13.087  0.0406 -0.1383 -0.1114
 8442W        W27296  11.243   0.313   0.900 -0.2001  0.0232 -0.1087
 8443W        W27297   9.154   1.098   9.243 -0.0172  0.0841 -0.0363
 8444W        W27298   4.469   6.238   3.260 -0.0695 -0.1715  0.0677
 8445W        W27299  17.112   2.952  12.755 -0.1549 -0.0578 -0.0061
 8446W        W27300  10.125  12.906  14.041  0.1757  0.2355  0.2851
 8447W        W27301   3.593  16.648   0.915 -0.0134 -0.0928  0.1115
 8448W        W27302   8.000   6.731   1.877  0.0756 -0.1611  0.1825
 8449W        W27303   9.376   6.488   0.260  0.3618 -0.2992 -0.0252
 8450W        W27304  12.220   9.090   1.239  0.2399 -0.0551  0.1285
 8451W        W27305  14.238  19.089   1.345 -0.1716 -0.0866 -0.1048
 8452W        W27306   1.367   8.091  14.059 -0.1572 -0.0621 -0.2680
 8453W        W27307   1.677   3.471  12.201  0.0006  0.1979 -0.0655
 8454W        W27308   1.586   2.327   2.118 -0.3536 -0.0563 -0.1887
 8455W        W27309  15.507  11.889  13.827 -0.2079 -0.1346 -0.1550
 8456W        W27310  17.815   4.195  11.803 -0.2485  0.2627  0.3258
 8457W        W27311  11.004  12.765   0.409 -0.1084  0.0075 -0.1719
 8458W        W27312  13.047   1.884  12.689  0.1190 -0.3694 -0.0308
 8459W        W27313   4.466   6.452  13.150 -0.0421 -0.2088 -0.3232
 8460W        W27314   7.117   6.644  13.442 -0.0207 -0.0604 -0.0334
 8461W        W27315   9.346  11.250   1.013 -0.1565  0.1928 -0.1675
 8462W        W27316  16.089   3.382  11.815  0.0857  0.1650 -0.3633
 8463W        W27317   4.299   4.281   5.308  0.3652  0.0898  0.0936
 8464W        W27318  17.081   8.816   4.340  0.4408 -0.2560 -0.1797
 8465W        W27319  16.892   1.135   1.967 -0.0348  0.0270 -0.1373
 8466W        W27320  18.961   7.182   2.256  0.0330  0.0692  0.1052
 8467W        W27321   5.865   5.526   3.261  0.0810 -0.0796 -0.3554
 8468W        W27322  15.816   6.835  10.579 -0.2692 -0.0452 -0.0781
 8469W        W27323   7.066  10.359   9.923 -0.1253 -0.2081  0.1000
 8470W        W27324   9.604  17.738  12.543 -0.0528  0.0120  0.1541
 8471W        W27325  19.108  18.569  10.948 -0.0580  0.1183 -0.2489
 8472W        W27326   7.272  18.658  12.820 -0.1780  0.2332 -0.1543
 8473W        W27327  13.058  17.679  10.448 -0.3223  0.0829  0.1317
 8474W        W27328   4.063   7.619   3.995 -0.3896  0.0053 -0.0829
 8475W        W27329  12.689  15.851   2.733 -0.2667  0.0295  0.2781
 8476W        W27330   7.034  14.450  12.862 -0.3912  0.0828 -0.1543
 8477W        W27331  15.831  17.994   3.619 -0.2879  0.0841 -0.5561
 8478W        W27332  16.089   6.422  10.244 -0.2009  0.2946 -0.4635
 8479W        W27333  12.548  17.957  12.842  0.0046  0.0972 -0.2612
 8480W        W27334  12.208  12.996   1.983  0.0744  0.0178 -0.1612
 8481W        W27335   3.035   7.016   1.454 -0.1692 -0.4696 -0.0750
 8482W        W27336  13.485   6.294   1.165 -0.2019 -0.0204  0.3733
 8483W        W27337   8.453  16.090   4.602  0.4016  0.1882  0.1184
 8484W        W27338  14.266   2.779   4.285  0.1556  0.0162  0.2144
 8485W        W27339   0.122  12.584  13.158  0.0911 -0.0191 -0.0912
 8486W        W27340  12.729   2.512   9.682 -0.2903 -0.1773  0.2564
 8487W        W27341   4.223   3.934   1.246  0.2439 -0.0767  0.2461
 8488W        W27342  12.927  14.748   0.834  0.1789  0.0936  0.0133
 8489W        W27343  10.408   7.597  10.963 -0.0720 -0.3799  0.1870
 8490W        W27344   4.997  10.361   4.497  0.1637 -0.0387  0.1493
 8491W        W27345   9.241   6.157   1.170 -0.4214 -0.1998 -0.0845
 8492W        W27346   8.199  10.377   3.529  0.0836 -0.2191  0.0770
 8493W        W27347   7.899  18.343  14.006  0.2282 -0.2608 -0.1800
 8494W        W27348  10.579  18.573  13.265 -0.1153 -0.0953  0.0904
 8495W        W27349  12.076  10.742   0.667 -0.0137 -0.0664  0.0636
 8496W        W27350   1.532  15.863   0.014  0.0256  0.2459  0.0580
 8497W        W27351   2.046  13.024   0.754  0.2681  0.0511 -0.1026
 8498W        W27352   0.252  12.620  11.207  0.1262  0.2454  0.2378
 8499W        W27353  16.534  16.183   0.696 -0.2189 -0.0315  0.2165
 8500W        W27354   9.402  17.064   4.222  0.0400 -0.1494  0.1463
 8501W        W27355  10.230   4.492   3.536  0.0814 -0.0097  0.1106
 8502W        W27356   1.510   2.074  13.650  0.1525 -0.1898 -0.1502
 8503W        W27357   6.025   4.667  12.323 -0.3759  0.1359 -0.2039
 8504W        W27358  12.469   5.944   3.378 -0.0895 -0.0354 -0.0519
 8505W        W27359  12.177   6.271  12.898 -0.1705 -0.1487 -0.2234
 8506W        W27360   5.832  18.317  13.756 -0.2044 -0.3967  0.0182
 8507W        W27361   6.957   0.843  12.565  0.2487 -0.0296 -0.2324
 8508W        W27362   4.265   5.151  11.749  0.3267 -0.0457  0.0983
 8509W        W27363   9.016  17.804  11.953 -0.0823  0.1906 -0.1726
 8510W        W27364  10.848   1.810  12.172 -0.0696  0.0498 -0.0057
 8511W        W27365   4.709  16.817   0.579  0.1114  0.2307  0.1056
 8512W        W27366  17.826   0.582   2.361 -0.1280  0.1515 -0.3821
 8513W        W27367   4.092  15.944   2.951  0.2091  0.0735 -0.1765
 8514W        W27368  10.631   7.192   1.377  0.1393 -0.0280 -0.0084
 8515W        W27369   9.115  11.283  13.976  0.0309  0.1355 -0.0740
 8516W        W27370  14.732   0.508   3.045  0.0267 -0.2137  0.2087
 8517W        W27371  12.852  17.249   9.383 -0.0611  0.3240 -0.0853
 8518W        W27372  17.106  17.228   2.977  0.0186  0.1217 -0.2287
 8519W        W27373  10.436   2.860   0.469 -0.3366 -0.1721  0.1085
 8520W        W27374  15.481   6.328   2.160  0.1171  0.2166 -0.1020
 8521W        W27375   7.220   4.443   2.547 -0.0346 -0.0876 -0.0108
 8522W        W27376   5.470   1.317  11.049  0.0106  0.4684  0.1085
 8523W        W27377   6.333  12.041  12.344  0.0851 -0.0028 -0.2439
 8524W        W27378   0.739   2.841  10.554  0.2762  0.1386  0.3199
 8525W        W27379   4.067  16.535   2.282  0.0695  0.2425  0.0177
 8526W        W27380  17.432   2.112  10.339 -0.1496  0.0154 -0.0368
 8527W        W27381   7.406  14.502  13.226  0.0920 -0.0617  0.0086
 8528W        W27382  12.731   2.553   3.567 -0.4044 -0.3940 -0.0657
 8529W        W27383  17.707  17.783   5.178 -0.2047  0.0320 -0.2119
 8530W        W27384   8.965   9.717   2.286  0.1260  0.1893  0.0387
 8531W        W27385  16.193  15.592   3.384  0.2091  0.1769  0.1842
 8532W        W27386   8.967   6.631  12.997  0.4074 -0.0304 -0.2420
 8533W        W27387  15.253  14.952  13.389  0.1917 -0.1044  0.0845
 8534W        W27388  10.281  14.114   2.121  0.1491 -0.0989 -0.1983
 8535W        W27389  13.000  11.095   2.603 -0.0438  0.0166  0.0242
 8536W        W27390   7.712   9.598  13.925  0.4527  0.1033  0.2706
 8537W        W27391  14.332   1.236   3.450 -0.4018  0.1719  0.3145
 8538W        W27392  16.280  11.123  13.018 -0.1933 -0.0010  0.1793
 8539W        W27393   0.769  17.993   0.594 -0.1987  0.2869 -0.0496
 8540W        W27394   9.473  12.448  10.107 -0.0748 -0.0827 -0.1520
 8541W        W27395   1.945  13.488   1.096  0.1200 -0.0276 -0.1110
 8542W        W27396  17.243   8.779   2.569  0.2610  0.0414  0.1630
 8543W        W27397   5.669   6.950   2.687  0.3038 -0.0525 -0.0099
 8544W        W27398  11.128   5.958   0.538 -0.1775 -0.0437  0.2142
 8545W        W27399  10.875  13.609  10.775  0.1969  0.1980 -0.0195
 8546W        W27400   9.998  11.889  11.888  0.1407  0.0366  0.2637
 8547W        W27401   0.072  17.564   2.728  0.5255  0.1897  0.0933
 8548W        W27402  10.076   1.323   3.524 -0.0398  0.0412 -0.0376
 8549W        W27403   4.236  19.129  11.753  0.3663  0.1979  0.0723
 8550W        W27404  14.632   9.801  11.614 -0.0163  0.3005 -0.1648
 8551W        W27405  17.041   2.964  10.865 -0.1117  0.1491  0.0014
 8552W        W27406  18.670  16.972  11.954  0.2091  0.2107 -0.3227
 8553W        W27407   8.473   0.109  10.535  0.1430 -0.0237 -0.3687
 8554W        W27408   6.803   3.349   4.686 -0.0101 -0.1383  0.3978
 8555W        W27409   7.833  19.166  10.648  0.0234  0.1907  0.2628
 8556W        W27410  11.663  13.199   2.262  0.0626 -0.2299 -0.3334
 8557W        W27411  10.274  11.044  12.448 -0.1119  0.0672  0.5211
 8558W        W27412  16.052   2.511  12.006 -0.0196 -0.1664 -0.0180
 8559W        W27413   2.289   0.537   0.445 -0.0775 -0.0892 -0.0092
 8560W        W27414  11.007   3.793  14.306 -0.2550 -0.2185 -0.2547
 8561W        W27415   5.475  15.044   2.574 -0.2375 -0.4526  0.5381
 8562W        W27416  14.358  12.985   3.708  0.0722  0.4278 -0.0378
 8563W        W27417   3.831  14.585   1.811 -0.0227 -0.1946  0.0953
 8564W        W27418  14.564  15.039   4.623 -0.2080  0.0883  0.0211
 8565W        W27419   7.784  14.734   2.031 -0.2321 -0.3053  0.3000
 8566W        W27420   5.016   6.365  13.255  0.0857 -0.1813  0.1404
 8567W        W27421   6.290   1.981  11.882  0.1524 -0.0715  0.0039
 8568W        W27422   8.381  13.217   0.473 -0.2937  0.0630  0.0133
 8569W        W27423   4.587   2.068  11.483  0.2347 -0.4254  0.3186
 8570W        W27424  15.967   4.066   0.600 -0.0522  0.3518  0.3827
 8571W        W27425  16.378  18.489   3.812 -0.1342 -0.1863  0.2009
 8572W        W27426  18.864  11.339   1.127 -0.2156 -0.1613  0.3158
 8573W        W27427  11.306   9.271   0.184  0.4330 -0.1103 -0.1171
 8574W        W27428  14.325   9.268  14.266  0.1385 -0.1932  0.1400
 8575W        W27429  15.114  15.133  11.891 -0.0415 -0.3320 -0.0983
 8576W        W27430  14.573   6.339   2.937 -0.0108  0.1458 -0.1768
 8577W        W27431  13.378  16.459  12.934  0.4368 -0.0750 -0.1002
 8578W        W27432   8.941   6.668  10.532 -0.2247 -0.1596 -0.1741
 8579W        W27433  14.001  19.011   4.407 -0.3059 -0.0299  0.0015
 8580W        W27434   9.409   9.167  12.092  0.0343 -0.0364  0.2968
 8581W        W27435  13.169  14.673  12.551 -0.2200  0.2401  0.1036
 8582W        W27436  15.904   2.653   3.198 -0.0707 -0.1555  0.2348
 8583W        W27437  15.332  15.009   2.774  0.0227  0.0958 -0.2692
 8584W        W27438   8.359  17.998  14.171  0.2152 -0.1781  0.1548
 8585W        W27439   3.869  14.290  13.998 -0.1031 -0.1996 -0.0425
 8586W        W27440  11.564  18.252   2.902  0.0490  0.0427 -0.2891
 8587W        W27441  15.711  14.860   5.212  0.2984 -0.2964  0.0967
 8588W        W27442   1.720   4.824  13.801 -0.0145  0.0547  0.1797
 8589W        W27443   3.912   3.555   3.919 -0.2812  0.1023 -0.1017
 8590W        W27444   0.696  18.827   5.377  0.1787  0.1141  0.2091
 8591W        W27445   6.824  19.096  14.495  0.2897 -0.1084  0.1154
 8592W        W27446   7.272   5.065   1.795  0.1914 -0.0593 -0.1422
 8593W        W27447  18.566  10.637   2.326 -0.0898 -0.1721  0.1842
 8594W        W27448  12.622   8.099  12.401  0.0853 -0.6116  0.1965
 8595W        W27449  13.799  16.757   3.451  0.1174 -0.2480  0.0560
 8596W        W27450   4.868  18.686  13.994 -0.0595 -0.0757 -0.1936
 8597W        W27451   2.749   4.364  11.008  0.2474  0.0914  0.0205
 8598W        W27452   9.509   9.449   1.906  0.0694  0.1338  0.1175
 8599W        W27453   6.057   3.494  10.714 -0.1736  0.1676 -0.0673
 8600W        W27454   0.618  11.344  10.946  0.1754 -0.0411 -0.0039
 8601W        W27455   1.499   0.718  10.691 -0.1746  0.2955 -0.0490
 8602W        W27456   5.772   8.772  14.412 -0.1129  0.2001 -0.1082
 8603W        W27457  13.013  11.576   3.421 -0.0492  0.3744  0.0824
 8604W        W27458  14.143  10.019  11.480 -0.0195 -0.2210  0.2779
 8605W        W27459   9.252  14.739  11.636  0.1527 -0.1969 -0.1929
 8606W        W27460   2.774   0.167  10.212 -0.2285 -0.1973  0.2327
 8607W        W27461  13.727  18.919   1.135  0.0062 -0.0549  0.0179
 8608W        W27462   4.847   6.216  10.671 -0.0968  0.3379 -0.2015
 8609W        W27463   1.570  19.024  14.671 -0.0157  0.1364 -0.0699
 8610W        W27464  10.157  15.425   3.265 -0.0579 -0.1438  0.2419
 8611W        W27465   7.190  10.577   3.035  0.2881  0.0417  0.0153
 8612W        W27466  11.428  15.065  10.535  0.0068  0.0156  0.1780
 8613W        W27467  19.017  14.560   1.008  0.2190 -0.2033  0.0999
 8614W        W27468   5.243   3.086   3.173  0.0252  0.0546  0.1418
 8615W        W27469  10.097  17.898  12.627 -0.0756 -0.1231  0.2462
 8616W        W27470   7.907  10.998  12.016 -0.0858  0.2496 -0.4075
 8617W        W27471  10.800  10.650  12.520  0.1088  0.1772 -0.1007
 8618W        W27472  12.077  16.096  11.873 -0.1914 -0.0295 -0.0029
 8619W        W27473  13.280  11.969  10.680 -0.0754 -0.0453  0.0915
 8620W        W27474  15.560  17.186   1.037 -0.1420 -0.2380  0.0335
 8621W        W27475   8.128  16.175   1.038  0.1294  0.1972  0.5359
 8622W        W27476   1.914   0.700  11.540  0.0649 -0.0818 -0.1779
 8623W        W27477  17.227   6.047  14.616  0.0615 -0.2077  0.1845
 8624W        W27478  16.144  14.669  10.927  0.2358  0.0588  0.4732
 8625W        W27479  11.980   3.241  13.161  0.0559 -0.0908 -0.1341
 8626W        W27480   3.048   0.996  13.569 -0.0751 -0.1275  0.1050
 8627W        W27481  16.518  17.171  12.294 -0.0564  0.2189  0.0765
 8628W        W27482   5.129   5.328   4.438 -0.1078  0.2486 -0.0552
 8629W        W27483   9.325  18.361   3.456  0.0597 -0.0666 -0.2194
 8630W        W27484  13.905   3.575  13.362 -0.0741  0.3845  0.1127
 8631W        W27485   7.919   8.808  12.685  0.2475 -0.4710  0.2176
 8632W        W27486   7.440   1.202  11.978  0.1674 -0.1041  0.2559
 8633W        W27487  16.436   9.182  12.627 -0.0629  0.3712 -0.1437
 8634W        W27488   1.848  12.099   1.659 -0.1537  0.1873 -0.1097
 8635W        W27489  16.707   8.044  10.634 -0.0443  0.1526  0.0206
 8636W        W27490  17.292   8.903   5.064  0.0449  0.1300  0.5143
 8637W        W27491   2.563   7.243   1.555  0.1532  0.2240 -0.1140
 8638W        W27492  17.548   2.536  13.441 -0.0740 -0.0383 -0.0374
 8639W        W27493   9.758   6.117  11.672  0.2677 -0.0210  0.1886
 8640W        W27494   2.332  10.809  12.041  0.0197 -0.1331  0.4172
 8641W        W27495  12.398  17.411  10.897  0.1382 -0.0423 -0.3014
 8642W        W27496  10.265   1.177  10.447 -0.1491  0.1684  0.2999
 8643W        W27497  10.958   1.276  11.160 -0.3222 -0.0203  0.1120
 8644W        W27498  13.042   4.072   2.747 -0.3047  0.0164 -0.0913
 8645W        W27499   9.794  12.202  10.567 -0.1333  0.0290  0.0446
 8646W        W27500   0.389  17.215   3.583 -0.3970 -0.1912 -0.1769
 8647W        W27501  16.270  14.864   1.454  0.1328  0.0804  0.0570
 8648W        W27502   3.598   6.937   2.369  0.2029 -0.1347 -0.2259
 8649W        W27503   6.663  18.703  13.431 -0.0261 -0.0008  0.1953
 8650W        W27504   0.422  18.293   2.045 -0.1365  0.1008  0.0823
 8651W        W27505   7.870   1.919   1.241  0.1657 -0.2953  0.2475
 8652W        W27506  18.741   1.572   1.426 -0.0092 -0.0586 -0.4940
 8653W        W27507  17.439   0.004   2.725  0.0475 -0.0139  0.0776
 8654W        W27508   3.465   0.220   0.416  0.1011  0.2920  0.0124
 8655W        W27509  17.227  13.727  12.819 -0.0985 -0.0088 -0.0609
 8656W        W27510   2.724   2.615  10.337 -0.2176 -0.1433  0.0116
 8657W        W27511  16.863   6.389  10.434  0.0823  0.0665 -0.2045
 8658W        W27512  17.804   9.096   4.314  0.1073  0.0796  0.1019
 8659W        W27513  10.227  13.854  12.219 -0.1458  0.0978  0.0197
 8660W        W27514  11.544   0.445  13.532 -0.0917 -0.1233  0.2972
 8661W        W27515  15.397   3.651   0.217 -0.0297 -0.1003 -0.2302
 8662W        W27516   3.558  18.958   0.555  0.0162 -0.2141 -0.0627
 8663W        W27517  17.904   8.490  12.917 -0.0593 -0.1319 -0.1353
 8664W        W27518   0.068   9.756  10.879  0.0291  0.0507  0.0911
 8665W        W27519  13.543  16.607   0.560 -0.2463 -0.0315 -0.1424
 8666W        W27520  14.588  18.710   0.315 -0.1084 -0.2379  0.1178
 8667W        W27521   7.118   7.335   3.959  0.0630 -0.0394 -0.1790
 8668W        W27522  16.481   7.839   0.384 -0.1685  0.0132  0.3901
 8669W        W27523  13.254  14.004   3.790  0.3962 -0.1022  0.1588
 8670W        W27524   7.158  10.436  13.352 -0.0197  0.0409  0.2715
 8671W        W27525   8.535   8.700  14.695  0.0765 -0.1242  0.0133
 8672W        W27526   6.252  17.448   4.432  0.2538  0.1081  0.0421
 8673W        W27527   3.003   2.316  13.075 -0.0296  0.2186  0.0364
 8674W        W27528   2.131  12.215   1.259 -0.1604  0.0480 -0.0965
 8675W        W27529  15.641  10.982  13.131  0.1272 -0.0591 -0.0033
 8676W        W27530   8.134  13.990  12.006 -0.1497 -0.5157 -0.1264
 8677W        W27531  10.497   2.047  14.144 -0.0161  0.1653  0.1648
 8678W        W27532   4.087   3.549  11.755  0.0810 -0.1670 -0.0413
 8679W        W27533  17.282   0.794  10.330 -0.2371 -0.2018  0.0149
 8680W        W27534   9.655   1.714   2.195  0.0229 -0.0177  0.0745
 8681W        W27535   7.802  18.371   5.312 -0.0786  0.1484  0.0180
 8682W        W27536   1.888  10.424  13.907  0.1749 -0.1085  0.1155
 8683W        W27537  11.658   5.096   2.763  0.0333 -0.0268  0.2800
 8684W        W27538   1.664  18.680  14.281  0.1218 -0.0747 -0.0050
 8685W        W27539  12.403  11.840   3.655 -0.1641  0.2181 -0.1647
 8686W        W27540   6.326   3.892  10.863  0.1163 -0.0889  0.4638
 8687W        W27541   2.684   4.642  13.377 -0.1141  0.0248  0.1169
 8688W        W27542   6.902  16.513  14.508 -0.2142 -0.0738  0.3212
 8689W        W27543  18.574  12.064   3.436 -0.2707  0.3483  0.3759
 8690W        W27544   7.662  17.257   1.717  0.0043  0.3806  0.0695
 8691W        W27545   4.583   4.542   0.594 -0.1764 -0.3209 -0.3478
 8692W        W27546  12.661   0.090  13.537 -0.0722 -0.0572  0.0637
 8693W        W27547  12.850   8.867  14.461 -0.1589 -0.3007  0.2495
 8694W        W27548  11.260   7.904  10.908 -0.1075  0.4959 -0.3658
 8695W        W27549   2.988   5.703  14.274  0.0301  0.2197 -0.2120
 8696W        W27550   5.622  18.829   1.880  0.1934 -0.0705 -0.1079
 8697W        W27551  15.296  12.013   0.366 -0.2731 -0.2868 -0.0426
 8698W        W27552  17.018   3.021   0.485  0.0823  0.2759 -0.2127
 8699W        W27553   7.930   8.775  10.652  0.2760  0.0325  0.1144
 8700W        W27554  13.602   4.469  12.033  0.0328  0.0613  0.1595
 8701W        W27555  10.110  17.263   1.560  0.3150  0.0032 -0.1469
 8702W        W27556   8.612   1.268  12.435  0.0729 -0.2503 -0.0917
 8703W        W27557  18.118   7.852  13.756  0.2713  0.5275  0.3519
 8704W        W27558  14.694   5.674   1.033  0.0311 -0.1177 -0.4450
 8705W        W27559  15.147   6.028   3.674 -0.0329  0.0139 -0.0020
 8706W        W27560  10.257   3.910  13.475 -0.0052 -0.1987  0.0203
 8707W        W27561   1.300   9.990   3.875  0.1559 -0.1384  0.2406
 8708W        W27562   1.812  15.555   3.804  0.3318 -0.1711 -0.2295
 8709W        W27563  15.708   7.442  12.517  0.3259 -0.1374 -0.2226
 8710W        W27564   6.779   5.395   4.269  0.0854  0.0878  0.2766
 8711W        W27565  12.183   6.758   2.809 -0.1688  0.1376 -0.0700
 8712W        W27566   8.178   4.416   3.538  0.1243 -0.2204  0.0814
 8713W        W27567  11.594  18.566  13.273  0.2902 -0.1423 -0.1416
 8714W        W27568  17.631  10.961   4.286 -0.0394  0.1480  0.0524
 8715W        W27569  12.962   3.266   2.612  0.0198 -0.0944 -0.3470
 8716W        W27570   9.780   7.216   9.544 -0.1749 -0.0820  0.0846
 8717W        W27571  13.224   6.836   1.052 -0.1695 -0.0245  0.3389
 8718W        W27572   1.286  14.993   0.383  0.0831 -0.0043  0.1109
 8719W        W27573   7.193   9.552   1.690  0.1729  0.2402  0.1366
 8720W        W27574  10.232  11.019  14.028  0.1628 -0.2976  0.0075
 8721W        W27575   5.130   4.405  14.693 -0.0834 -0.0996 -0.2169
 8722W        W27576   9.569   8.710  12.261 -0.4958 -0.0691 -0.2587
 8723W        W27577   6.199  13.789   3.424  0.0548  0.1516 -0.1247
 8724W        W27578   0.431  15.880  10.836 -0.0503  0.0742 -0.0849
 8725W        W27579   7.739   3.258  11.981 -0.2448 -0.2159 -0.0085
 8726W        W27580  12.778  10.706   1.157 -0.1553 -0.4446 -0.0528
 8727W        W27581   7.870   8.285  10.509  0.1163  0.1011  0.1202
 8728W        W27582   7.688  16.347  13.665  0.0740 -0.0428  0.2893
 8729W        W27583   2.059   1.258   4.607 -0.0495 -0.3893  0.2100
 8730W        W27584  16.519  10.169  11.183  0.1651 -0.1579 -0.0110
 8731W        W27585  11.504  15.235  12.897 -0.0373 -0.2480 -0.0298
 8732W        W27586   5.696   2.559  13.661 -0.2171  0.1228 -0.0623
 8733W        W27587  18.536  10.202  14.222 -0.2319  0.0017 -0.0915
 8734W        W27588   6.354   8.175  12.087  0.0262 -0.0794  0.3621
 8735W        W27589   4.473   3.292  13.744 -0.0872  0.0293 -0.1749
 8736W        W27590   5.663   1.463  14.518  0.0856 -0.0584 -0.2105
 8737W        W27591   8.677  18.835   1.035  0.1683  0.0181  0.0700
 8738W        W27592   6.393   2.399   9.771 -0.2246 -0.1724  0.0086
 8739W        W27593   5.175   9.541  10.273  0.1112 -0.2167 -0.0452
 8740W        W27594   3.083   3.265   0.939 -0.3124  0.1740 -0.2825
 8741W        W27595   1.871   6.061   1.765 -0.2506  0.0048 -0.0641
 8742W        W27596   1.335  15.234   1.872  0.0463  0.1992 -0.0929
 8743W        W27597  10.795   0.149   1.802 -0.3528 -0.1095 -0.2960
 8744W        W27598  12.404  19.160   0.957  0.1485  0.2317 -0.0564
 8745W        W27599  15.977  11.397   3.829 -0.1289 -0.1235 -0.1378
 8746W        W27600  16.281  19.045   4.658 -0.4180 -0.0993 -0.0247
 8747W        W27601  13.929  13.771   2.319 -0.2543 -0.3607 -0.1604
 8748W        W27602  13.823  16.241  12.771  0.0985  0.1397 -0.3149
 8749W        W27603  10.557   6.335   1.674  0.1022  0.2907  0.2364
 8750W        W27604  18.417   3.046   3.776  0.3230 -0.1994  0.0562
 8751W        W27605   4.668   9.968   0.579 -0.3056 -0.0838 -0.0224
 8752W        W27606   5.230  10.913  11.953  0.2641 -0.0054 -0.2647
 8753W        W27607  18.651   9.706   2.268  0.1334 -0.0767  0.0120
 8754W        W27608  12.110   5.030  10.861 -0.0859  0.3005 -0.0176
 8755W        W27609  16.166   7.105   0.968  0.0615  0.1132 -0.1850
 8756W        W27610  16.197  14.365   9.888 -0.3202 -0.1424  0.0615
 8757W        W27611   6.584  14.376   3.912 -0.4632  0.1401  0.0066
 8758W        W27612   7.493  15.924   0.494 -0.0651  0.4873  0.2296
 8759W        W27613   9.745  15.143  11.493  0.0175  0.2714  0.5228
 8760W        W27614   0.193  19.155  11.545  0.3497 -0.0262 -0.0984
 8761W        W27615  10.375  15.741   0.081  0.1749 -0.2358  0.1030
 8762W        W27616   1.786  14.895   0.371  0.2544 -0.2870 -0.0422
 8763W        W27617   8.738  14.755  13.707  0.0600  0.2051 -0.0910
 8764W        W27618   2.569   1.934  13.668  0.2313  0.3425 -0.0151
 8765W        W27619   4.751  18.920   1.657  0.2428  0.1232 -0.0169
 8766W        W27620   0.026   3.284   2.860 -0.1719  0.0041  0.0259
 8767W        W27621  12.865   0.174   2.093  0.1581  0.5422 -0.0726
 8768W        W27622  11.500   4.325  11.913  0.0259 -0.0494  0.1234
 8769W        W27623  11.446   3.797  13.826  0.1081 -0.3474  0.1072
 8770W        W27624   4.547  12.342  12.594 -0.1099  0.2578  0.0501
 8771W        W27625   4.813   6.683  13.707  0.1858  0.0026  0.0933
 8772W        W27626   2.187  14.263  14.343  0.3260  0.0579  0.0333
 8773W        W27627   1.431   6.742   0.932  0.0303 -0.0291  0.1154
 8774W        W27628   7.118  14.094  12.525 -0.0727  0.0619  0.0555
 8775W        W27629   3.063   8.286  13.337 -0.2179  0.0799 -0.2309
 8776W        W27630   8.649   3.339   0.835 -0.4321  0.1359 -0.0511
 8777W        W27631  12.953  15.817   3.568 -0.1107 -0.1466  0.3388
 8778W        W27632   7.883   0.114   0.030 -0.1162  0.2563  0.1378
 8779W        W27633  11.851   3.549   5.155  0.0084  0.3039  0.0655
 8780W        W27634  14.720   3.868   2.987  0.0329 -0.0106  0.2276
 8781W        W27635   2.649   0.211   2.253  0.1133  0.2505  0.4313
 8782W        W27636  11.830   8.198   1.875 -0.1206 -0.3834  0.0681
 8783W        W27637  13.373  13.240  13.945  0.0255  0.2624 -0.1852
 8784W        W27638  10.625  17.227   5.510  0.0860  0.0235 -0.0038
 8785W        W27639   1.236   3.667  12.071  0.0131  0.0536  0.2719
 8786W        W27640  15.190   4.858   2.452 -0.1308 -0.1348  0.2448
 8787W        W27641   3.008   3.894   2.416 -0.2547 -0.3513 -0.2031
 8788W        W27642   5.879  13.851   2.460  0.0809 -0.3942 -0.0373
 8789W        W27643  15.759   1.759  12.390  0.0780  0.0592 -0.3913
 8790W        W27644  10.920   2.955   1.270 -0.4081 -0.0009 -0.1264
 8791W        W27645   4.971   1.019   1.031 -0.0167  0.0775 -0.0671
 8792W        W27646   0.267  17.084   1.153  0.0653  0.2368  0.1856
 8793W        W27647  17.637  18.695  14.032 -0.2159  0.2346 -0.0283
 8794W        W27648   1.481   0.881  12.283 -0.3564 -0.0732 -0.1209
 8795W        W27649  18.586   2.718   9.308 -0.0670  0.1914  0.2553
 8796W        W27650   2.704  12.009   3.678  0.2367  0.0687  0.1848
 8797W        W27651  12.117  16.561  11.301  0.1223  0.2533 -0.1642
 8798W        W27652   4.265  12.883  11.864  0.1787 -0.0318  0.0552
 8799W        W27653   9.996   6.245   3.181 -0.1791  0.2106 -0.0499
 8800W        W27654   9.752   4.290  14.583  0.2400  0.2420  0.0855
 8801W        W27655   2.272   4.485  13.945 -0.0659  0.0057  0.0090
 8802W        W27656   0.909  15.853  12.383  0.1363  0.0982  0.0905
 8803W        W27657  14.079   8.710   3.296 -0.1424 -0.3331  0.0400
 8804W        W27658   5.929  16.490   2.836 -0.1312 -0.1840 -0.0830
 8805W        W27659  13.042  18.742   1.601  0.4884 -0.2894  0.2412
 8806W        W27660  13.166  10.064   3.681  0.1668 -0.1327 -0.0539
 8807W        W27661  14.645  11.072  14.030  0.1008 -0.0607 -0.1296
 8808W        W27662  12.721   9.134  12.130 -0.3977  0.0055  0.0139
 8809W        W27663   4.326   5.352   2.627  0.1303  0.0917 -0.1416
 8810W        W27664  16.475  19.062   1.198  0.0674 -0.0604  0.0264
 8811W        W27665  14.860  12.283   0.552 -0.0794  0.4374  0.2321
 8812W        W27666  10.575   2.619   1.150  0.1753  0.3351 -0.1149
 8813W        W27667   4.044   9.778  11.871  0.1321 -0.0131 -0.0810
 8814W        W27668  12.402   1.320  13.136 -0.2385 -0.0897 -0.2169
 8815W        W27669  18.127  17.665  11.657  0.3355  0.0162 -0.2161
 8816W        W27670  13.654  18.129  12.098 -0.0905  0.1440  0.1119
 8817W        W27671   9.845   8.706   1.515  0.0174 -0.0666 -0.2194
 8818W        W27672  17.479  12.381  12.158 -0.1182 -0.2241  0.0733
 8819W        W27673   1.222   8.083   3.932  0.1836  0.0614  0.0429
 8820W        W27674   1.343   5.668   2.615  0.2130  0.3752 -0.2507
 8821W        W27675  13.154  18.133  12.978  0.0887  0.0777  0.0830
 8822W        W27676  15.619   8.906   2.104  0.3118 -0.1710 -0.1232
 8823W        W27677  10.812  18.549  13.700  0.2166  0.4007 -0.0330
 8824W        W27678   1.859  12.779  11.148 -0.1298 -0.1752  0.0399
 8825W        W27679   7.451  18.990  11.146 -0.1556 -0.0738 -0.1363
 8826W        W27680   6.893  12.679  13.441  0.0537 -0.1146 -0.2174
 8827W        W27681  11.447   0.980  12.261 -0.1865  0.2782 -0.1226
 8828W        W27682   7.617   4.195  11.635  0.2943  0.0959 -0.1323
 8829W        W27683   3.607  15.591  14.190 -0.0157  0.0998 -0.0218
 8830W        W27684   0.670  16.120   2.315  0.0498 -0.0504  0.1838
 8831W        W27685   8.273  18.976  12.623 -0.0256  0.0276 -0.1416
 8832W        W27686  11.555  19.170  13.368 -0.1290  0.0469  0.1966
 8833W        W27687  15.994   6.604  11.048 -0.1920 -0.3232 -0.2107
 8834W        W27688   6.807  11.141  12.452 -0.0428  0.0078 -0.0450
 8835W        W27689  17.677  14.964  12.506 -0.0960  0.0293  0.0663
 8836W        W27690  11.070  17.530   3.190 -0.0358  0.0325 -0.4475
 8837W        W27691   7.389  18.497   1.437 -0.2842  0.0251  0.3229
 8838W        W27692  14.087   9.933   2.196 -0.1304 -0.2170  0.2519
 8839W        W27693  10.920   3.590  12.872  0.3639 -0.0075  0.3336
 8840W        W27694   2.918  14.678  12.666  0.2107  0.3041  0.2157
 8841W        W27695   4.491  16.686   1.099  0.3633  0.2366  0.0698
 8842W        W27696  14.086   0.798   3.603  0.2309 -0.2100 -0.0960
 8843W        W27697  15.429   2.134   2.528  0.0412 -0.0239 -0.0302
 8844W        W27698  12.626   1.563   3.208 -0.2531 -0.0551  0.3417
 8845W        W27699  17.200   0.038   0.513 -0.0196  0.2587 -0.1090
 8846W        W27700  16.483  15.734  14.463 -0.0988 -0.0032 -0.1207
 8847W        W27701  14.371  14.737   3.821 -0.1695  0.1044  0.0144
 8848W        W27702  16.537  17.249  11.433 -0.2514  0.3106  0.0704
 8849W        W27703  19.109   2.478  10.753  0.0459 -0.0239  0.0855
 8850W        W27704  17.429   6.103   1.687 -0.2066 -0.0185  0.4494
 8851W        W27705  18.057  12.451  12.741 -0.4235  0.0491 -0.2382
 8852W        W27706   6.019  11.577  12.916 -0.1834 -0.0085  0.1309
 8853W        W27707  15.198  17.073  10.480  0.1191 -0.2918  0.0294
 8854W        W27708   3.783   3.779   2.525  0.1650 -0.1030 -0.2700
 8855W        W27709   5.770  18.050  14.181  0.0978 -0.2776  0.0296
 8856W        W27710   3.121  13.913  14.586 -0.1464 -0.1546  0.0747
 8857W        W27711  11.120  17.820   1.124 -0.1672 -0.0018  0.2649
 8858W        W27712  15.536   5.499   1.327  0.0766 -0.0263  0.0900
 8859W        W27713  11.775   6.286  13.226  0.3956  0.3467  0.0311
 8860W        W27714   6.215   1.097  13.656  0.1807  0.2327 -0.1826
 8861W        W27715  18.978  18.334   4.011 -0.0694 -0.1289 -0.2124
 8862W        W27716  18.735  12.864   0.628  0.2157 -0.0176 -0.0618
 8863W        W27717  12.250   3.247   0.070 -0.0523 -0.1766 -0.1787
 8864W        W27718  15.065   3.424   3.835 -0.1418  0.0705  0.1728
 8865W        W27719   3.746  13.140  10.270 -0.1063  0.1698 -0.1786
 8866W        W27720   5.581  13.053   1.954 -0.4394  0.0075  0.0074
 8867W        W27721   8.264   1.801   4.233 -0.4573 -0.0693  0.0012
 8868W        W27722   5.349  18.694  13.727  0.0131 -0.1366 -0.0873
 8869W        W27723  13.505  13.481  13.525 -0.1108  0.0277  0.0978
 8870W        W27724  12.238   0.592  11.906 -0.0220 -0.0141  0.4172
 8871W        W27725  11.716  16.823   4.823  0.1562 -0.2652  0.1626
 8872W        W27726   7.983   9.498   1.156  0.1714 -0.2048  0.1790
 8873W        W27727  12.492   4.771  12.805 -0.4384  0.1288 -0.3360
 8874W        W27728  16.986  12.290  14.163 -0.0783 -0.1538 -0.2049
 8875W        W27729  16.095  11.720   2.279  0.1735  0.2418 -0.0019
 8876W        W27730  11.033   2.571  11.938  0.1635  0.1964  0.2375
 8877W        W27731   1.002  18.461  12.686 -0.2375 -0.3224 -0.0165
 8878W        W27732  16.008  16.416   4.390 -0.1061  0.1731  0.1242
 8879W        W27733  16.978  15.748   2.351 -0.3361  0.3004  0.0379
 8880W        W27734  10.521  17.329  11.991  0.4599  0.3216  0.0349
 8881W        W27735  17.836  15.311   4.210  0.1828  0.1538 -0.0681
 8882W        W27736   9.019   7.398   1.560  0.1833  0.0689  0.1095
 8883W        W27737  13.953   9.627  12.417 -0.1140 -0.0711  0.0870
 8884W        W27738   5.462   5.455  13.210  0.0674  0.1666  0.0029
 8885W        W27739   0.752   7.385   0.726  0.3129 -0.0947 -0.1550
 8886W        W27740   7.879   0.037  11.118  0.1052  0.1887  0.0872
 8887W        W27741   0.089   1.818  10.495 -0.0364  0.0890 -0.1646
 8888W        W27742   5.687  14.318   2.549 -0.0717  0.2480  0.2664
 8889W        W27743  18.506   0.015  10.292  0.0607 -0.0759 -0.0323
 8890W        W27744  12.839  15.616   4.764 -0.0832  0.1085 -0.1441
 8891W        W27745   4.695  13.031   3.613 -0.1759 -0.0238 -0.0504
 8892W        W27746   6.162  16.447  13.574  0.2066  0.0303 -0.3025
 8893W        W27747   3.461   5.191  13.537 -0.0635 -0.0559 -0.1007
 8894W        W27748  14.165  10.452  12.723 -0.2717  0.2456 -0.4226
 8895W        W27749  12.530  14.994  10.576  0.1706  0.0084 -0.0566
 8896W        W27750  10.036   0.697   9.824 -0.1202 -0.0791  0.2805
 8897W        W27751   6.424   3.137  14.065  0.0821  0.0638 -0.0925
 8898W        W27752  18.872   5.970   0.998  0.0594  0.2857 -0.0361
 8899W        W27753  16.049   1.945   1.295 -0.0939  0.0476  0.1858
 8900W        W27754   0.536   7.637   1.065  0.0997  0.1670  0.2303
 8901W        W27755  18.487  16.993   1.671  0.2403  0.2263  0.1246
 8902W        W27756   9.121   3.681  11.654 -0.0921 -0.4550 -0.2349
 8903W        W27757  16.316   6.909   5.637  0.0820 -0.1842 -0.2065
 8904W        W27758   9.042   9.980  13.938  0.1436  0.2693  0.0102
 8905W        W27759   3.557   5.004  14.394 -0.0513  0.0125  0.3184
 8906W        W27760  10.163   6.151   3.923  0.0613 -0.1868  0.2386
 8907W        W27761  10.101  11.588  10.983 -0.0755 -0.0498  0.0321
 8908W        W27762  12.116  16.111  10.862 -0.2465 -0.0368  0.1618
 8909W        W27763   0.361  13.641   3.925 -0.0365 -0.1771  0.3458
 8910W        W27764   6.556  10.403   9.842 -0.0035 -0.0476 -0.2613
 8911W        W27765   1.378  11.432   3.427 -0.2216  0.1348  0.0311
 8912W        W27766  12.844  17.876   0.350  0.0406 -0.0349 -0.1372
 8913W        W27767   2.522  18.995   1.987 -0.0725  0.1691  0.0353
 8914W        W27768   9.492   4.003  11.365 -0.2372  0.2986 -0.2660
 8915W        W27769   5.215   3.086   2.061  0.0715 -0.0571  0.2098
 8916W        W27770  15.797   6.485  11.510 -0.1791  0.2327  0.0533
 8917W        W27771  18.625  17.229  12.494 -0.1288 -0.0553 -0.3071
 8918W        W27772   0.655   7.977   2.131  0.1268 -0.1349  0.0933
 8919W        W27773  10.648   7.198  11.392 -0.0372 -0.5496 -0.0076
 8920W        W27774   0.036  16.744   2.979  0.0360 -0.0069 -0.1209
 8921W        W27775   7.196   7.996   2.537  0.0058  0.0715 -0.4584
 8922W        W27776  18.775   3.271   1.963 -0.3141  0.1053  0.1480
 8923W        W27777  18.285  15.799   2.835 -0.0995  0.2033  0.1940
 8924W        W27778   8.319   9.588  11.347 -0.1823 -0.0493  0.0742
 8925W        W27779  17.327   2.943   0.937  0.2461  0.0532  0.1350
 8926W        W27780   4.181  19.200   3.660 -0.0622 -0.3537 -0.1193
 8927W        W27781  15.782  11.439  13.998  0.2896 -0.0623 -0.1235
 8928W        W27782   5.082   4.741   0.835  0.2095  0.1260 -0.1309
 8929W        W27783   7.371  11.738   1.625  0.3403  0.1905  0.1963
 8930W        W27784   2.217   9.764   1.791 -0.0246  0.0016  0.0539
 8931W        W27785  18.665   6.443   2.964 -0.0327  0.0465  0.3562
 8932W        W27786   1.456   0.406   3.912 -0.1983  0.2398 -0.0721
 8933W        W27787  13.404   2.901   2.534  0.3124 -0.1668  0.1193
 8934W        W27788   8.551  14.615  12.712 -0.0728  0.1599  0.1038
 8935W        W27789   9.994   3.206   0.737  0.0183 -0.0138  0.2610
 8936W        W27790   7.896  15.724  10.711 -0.0223 -0.0953  0.0485
 8937W        W27791   2.016   9.384  11.159  0.0410 -0.0715  0.1754
 8938W        W27792  16.186   1.633   0.626  0.0041  0.0549 -0.3364
 8939W        W27793  16.361   2.222  12.799  0.0152  0.1026  0.1933
 8940W        W27794   5.335   0.186  13.367 -0.1157 -0.1564 -0.1247
 8941W        W27795  10.122   7.473   2.893 -0.2048  0.1076 -0.1566
 8942W        W27796  12.094   7.302  10.614 -0.0674 -0.3040  0.1155
 8943W        W27797  13.213   5.553   2.745  0.0093 -0.0194 -0.3626
 8944W        W27798   4.193   9.421   9.992  0.2252 -0.4836  0.0088
 8945W        W27799   8.107   2.543  11.561  0.0200 -0.1701  0.3173
 8946W        W27800  18.774   1.770  13.472 -0.0157 -0.0619  0.1701
 8947W        W27801  13.123   9.386  11.961  0.2592  0.2400  0.0982
 8948W        W27802  10.058  18.156  13.067 -0.3529 -0.3498  0.1755
 8949W        W27803   4.259   8.332  14.719 -0.0925  0.2672  0.0410
 8950W        W27804  16.337  17.921  12.940  0.1189  0.2655 -0.3397
 8951W        W27805   4.363   6.836   1.058  0.4385 -0.3295  0.2050
 8952W        W27806  15.226   4.096  10.940  0.2516  0.0940  0.3433
 8953W        W27807   1.026   0.259  13.262 -0.0879 -0.0673  0.0055
 8954W        W27808   5.754   3.776   0.524 -0.1774  0.3013  0.0263
 8955W        W27809  18.509   4.495  11.124 -0.3019  0.2072  0.1289
 8956W        W27810   6.187  15.971   0.381 -0.1381  0.5897  0.2677
 8957W        W27811  17.172  15.696  13.731  0.0315 -0.2769  0.2023
 8958W        W27812  10.948  12.885   0.930  0.0798 -0.3038  0.1134
 8959W        W27813   9.726  18.950   2.874  0.1824  0.1860  0.2957
 8960W        W27814  14.972  10.452   1.007 -0.2164 -0.2452 -0.1067
 8961W        W27815   3.336  12.710   2.563  0.0447  0.1237  0.1691
 8962W        W27816   2.567   2.806   0.678  0.0282  0.1009  0.0615
 8963W        W27817  10.362   4.438  10.241  0.0447 -0.3216  0.0276
 8964W        W27818  11.143   9.978   0.014  0.1766  0.2995  0.0170
 8965W        W27819   3.090  17.979   9.722 -0.0595 -0.1487  0.0077
 8966W        W27820   8.930  10.009  12.460 -0.2433  0.4318  0.2269
 8967W        W27821   3.838  17.533  11.280 -0.2749  0.3227  0.1329
 8968W        W27822   2.153  17.004   2.009  0.0077  0.3918  0.1555
 8969W        W27823   8.580   2.669   3.717  0.2278 -0.0348  0.2817
 8970W        W27824   9.896   4.754  14.406 -0.1899  0.1545 -0.1141
 8971W        W27825  18.279  16.600   0.788  0.0710  0.1750 -0.1043
 8972W        W27826   6.272   4.805  11.286 -0.0815 -0.2436 -0.1955
 8973W        W27827  10.387  17.839   4.179  0.4344  0.2905 -0.0080
 8974W        W27828  16.263  14.072   2.531  0.0933  0.3138  0.0193
 8975W        W27829   1.460  14.775  11.865  0.0087 -0.0659 -0.2409
 8976W        W27830   9.814   3.470   0.051 -0.0420 -0.0177  0.0976
 8977W        W27831  10.365  11.614  11.642 -0.2469  0.0602  0.1519
 8978W        W27832  11.202   2.470   3.842 -0.0137 -0.1638 -0.0261
 8979W        W27833  10.826  11.482   5.046 -0.2499  0.2442  0.1063
 8980W        W27834   7.206  16.835   3.561  0.3413 -0.0783  0.3231
 8981W        W27835  12.072   8.788   0.756  0.1283 -0.0857  0.0576
 8982W        W27836   3.389  10.409  11.258 -0.0379  0.3794 -0.0891
 8983W        W27837   8.459   3.973   3.486 -0.2795 -0.0382  0.0697
 8984W        W27838   6.164  14.602   2.569  0.0750 -0.0079 -0.1418
 8985W        W27839  18.267   8.149   1.231 -0.0136  0.1569 -0.0199
 8986W        W27840   9.009  12.961  11.399 -0.1590 -0.2904  0.1039
 8987W        W27841  18.362   0.012  10.820 -0.3208 -0.0164 -0.0399
 8988W        W27842   9.404  17.107   0.171  0.2411 -0.0220 -0.2777
 8989W        W27843  11.240   5.280  14.565  0.1897  0.1015 -0.1556
 8990W        W27844  16.661   9.416  13.051  0.0714 -0.4506 -0.0824
 8991W        W27845   0.623   6.104  11.306 -0.2586  0.0073 -0.0131
 8992W        W27846  16.720   4.397   3.325 -0.0242  0.0824 -0.0343
 8993W        W27847  14.430  11.600  13.971  0.4635 -0.0936 -0.0104
 8994W        W27848   9.518  13.607  14.226  0.1270 -0.0320  0.0559
 8995W        W27849  11.970  12.402  12.221 -0.1354 -0.0452 -0.1102
 8996W        W27850   7.280   8.199  14.506 -0.1365 -0.1470 -0.1167
 8997W        W27851  10.823  10.023   2.374 -0.2758  0.0406 -0.3002
 8998W        W27852  14.075   7.488   0.527 -0.0944 -0.0883 -0.1084
 8999W        W27853  17.630   9.496  11.177 -0.0377  0.1636  0.5180
 9000W        W27854  13.758   9.738   1.631 -0.0255 -0.5998 -0.1771
 9001W        W27855   9.309   0.781  13.656  0.1351  0.1121 -0.1827
 9002W        W27856   1.659  15.278   3.228 -0.3528 -0.0136 -0.0445
 9003W        W27857   6.919   2.671   1.111 -0.1761  0.3729  0.2410
 9004W        W27858   6.478   6.595  10.547  0.0074 -0.1022 -0.0991
 9005W        W27859  10.284  18.691   2.081  0.3399 -0.5213  0.4283
 9006W        W27860  13.089  13.597  11.766 -0.4381  0.0229 -0.3220
 9007W        W27861  19.093  10.679  11.781 -0.2515  0.0664  0.1754
 9008W        W27862  11.778   2.030   0.616  0.2378 -0.2517 -0.1235
 9009W        W27863   1.083   1.466   2.416  0.3225 -0.0483  0.0742
 9010W        W27864  16.346  15.435  10.977 -0.1487 -0.1560  0.0826
 9011W        W27865   0.473   6.940   0.668 -0.1679 -0.0625  0.0895
 9012W        W27866   0.897  16.375  12.202 -0.1501 -0.2226  0.0660
 9013W        W27867   1.882  14.923   1.857  0.0525 -0.1954 -0.1275
 9014W        W27868  14.256   6.678   2.680  0.1800 -0.2007 -0.2757
 9015W        W27869   1.155   0.663  10.295  0.0752 -0.0410 -0.1115
 9016W        W27870  15.046  13.463   1.585 -0.1852  0.0401  0.2176
 9017W        W27871   5.362  13.923   3.480 -0.2351  0.1424 -0.2380
 9018W        W27872  11.020  11.793   3.661 -0.1702  0.0090  0.0019
 9019W        W27873   6.840   0.563   3.801 -0.4749 -0.0519  0.1309
 9020W        W27874   4.094   6.985  12.439 -0.0694 -0.1098 -0.3345
 9021W        W27875  14.760  17.437  12.705  0.1531  0.0197 -0.0635
 9022W        W27876   0.200   8.659   4.810  0.0679  0.1682  0.2295
 9023W        W27877  11.893   2.702  13.181 -0.0188 -0.1853  0.0301
 9024W        W27878   3.626  15.038   0.459 -0.2393 -0.1651 -0.0789
 9025W        W27879  14.336   0.796   2.653 -0.0791 -0.1280 -0.0338
 9026W        W27880  19.112   0.672   0.671  0.0481 -0.1943 -0.2946
 9027W        W27881   4.851  16.222   0.359 -0.2052 -0.1486 -0.1258
 9028W        W27882   6.474  10.941  12.157  0.3431  0.0072  0.0054
 9029W        W27883   8.529  11.391   0.141 -0.0321  0.0272  0.2029
 9030W        W27884   8.199   7.197  13.164 -0.3810 -0.1555  0.4254
 9031W        W27885  10.115   2.600   0.133 -0.0211 -0.1217 -0.3098
 9032W        W27886  12.778   0.582   3.327  0.0664 -0.2483  0.4325
 9033W        W27887  14.561   0.542  13.232  0.2728 -0.1063 -0.0740
 9034W        W27888   7.110   2.179   3.128  0.1579  0.0701 -0.3745
 9035W        W27889   4.441  12.165   9.710  0.2577 -0.0839  0.0538
 9036W        W27890  12.725   4.076  14.481 -0.1562  0.1776 -0.1742
 9037W        W27891   9.428  10.320  10.067  0.3892  0.0845 -0.2192
 9038W        W27892   6.207  18.987   1.662 -0.0320 -0.2065  0.1595
 9039W        W27893   4.836   8.897  14.655 -0.1969 -0.0037 -0.2652
 9040W        W27894   5.330  11.878   1.340 -0.1764 -0.0824  0.0888
 9041W        W27895  10.792   0.614   2.891  0.0952 -0.0647  0.0515
 9042W        W27896   5.741   0.266  13.101 -0.0424  0.1723  0.0974
 9043W        W27897   8.135   1.569  14.471  0.3508  0.0832  0.1053
 9044W        W27898   3.167  13.160  13.539 -0.0701  0.0472  0.0748
 9045W        W27899   8.656   6.306  13.509 -0.0296  0.3936 -0.1135
 9046W        W27900   7.837   6.236  13.760 -0.1550  0.0708  0.1379
 9047W        W27901   6.263  10.596  14.511 -0.2380 -0.0541  0.0208
 9048W        W27902  10.330  16.821   1.623 -0.0705  0.1034 -0.3378
 9049W        W27903   8.098   3.673   4.609 -0.1478  0.3087 -0.0244
 9050W        W27904   4.820  13.153  13.069 -0.3602  0.1069 -0.0946
 9051W        W27905  16.850  15.414   0.231  0.0131  0.0827  0.0412
 9052W        W27906   7.448   0.796   2.888 -0.0096 -0.0459  0.1876
 9053W        W27907   3.291  15.754   3.166 -0.1872  0.0810 -0.1014
 9054W        W27908   7.880  13.541  14.041 -0.2196 -0.0376  0.4950
 9055W        W27909   9.344   1.234  10.782  0.0967 -0.0458  0.3885
 9056W        W27910  13.302  17.811  11.991 -0.2198  0.1796  0.1057
 9057W        W27911  12.144  12.906  14.315  0.1686 -0.1211  0.1642
 9058W        W27912   8.455   2.228   2.974 -0.0428  0.1656 -0.0745
 9059W        W27913   2.777   7.725  12.896 -0.1601  0.0230  0.1974
 9060W        W27914  13.089  10.098  12.831 -0.0501 -0.0617  0.3846
 9061W        W27915   0.779  18.901   4.498 -0.0485  0.0092  0.1276
 9062W        W27916  12.366  12.721   1.041  0.2554  0.2880 -0.1712
 9063W        W27917   8.543   6.661   0.112 -0.0893  0.0516  0.1578
 9064W        W27918   8.495   4.753   5.166 -0.1991  0.4098 -0.1745
 9065W        W27919   7.841  14.241   0.404  0.0011 -0.2987  0.1956
 9066W        W27920   4.302   1.193   1.227 -0.1625  0.0813  0.2282
 9067W        W27921  17.674   3.744  10.440 -0.5287  0.1090 -0.0906
 9068W        W27922  15.162   0.396  13.421  0.0340 -0.1148 -0.1238
 9069W        W27923  17.549  19.085   3.627  0.2531 -0.0268  0.1600
 9070W        W27924  16.439  13.096   1.837  0.1513 -0.0146 -0.1286
 9071W        W27925   0.850   9.836   1.324  0.0165  0.2041 -0.0052
 9072W        W27926  18.996   8.045   2.647 -0.0902  0.0622 -0.0982
 9073W        W27927  10.910  11.301   2.943  0.2991 -0.2242 -0.6484
 9074W        W27928  14.355  15.904  13.968 -0.1242  0.1605 -0.0955
 9075W        W27929  14.374  18.872   3.595 -0.0371 -0.0885  0.0605
 9076W        W27930   6.213   4.643   2.256 -0.0216 -0.0577  0.3350
 9077W        W27931  10.622  15.116   0.446 -0.2562 -0.2109 -0.2410
 9078W        W27932  12.120  17.562   2.931 -0.2387  0.3299 -0.3705
 9079W        W27933  17.186  16.892  12.941 -0.3564 -0.2308 -0.1453
 9080W        W27934   0.245   0.975  11.845  0.1882 -0.2716 -0.2685
 9081W        W27935   5.843  18.147   0.703 -0.0870 -0.0372 -0.1927
 9082W        W27936   0.044  17.573   3.597 -0.0718 -0.3512 -0.0105
 9083W        W27937  18.146   6.779   1.036 -0.1465  0.1700 -0.1090
 9084W        W27938   8.141   3.149  12.314  0.0621 -0.2512  0.1525
 9085W        W27939  17.867   0.118   0.873  0.3013  0.4786 -0.1207
 9086W        W27940   6.907  14.987   4.704 -0.4707 -0.1991  0.2116
 9087W        W27941   7.342   4.914  13.465 -0.1407 -0.2373 -0.0599
 9088W        W27942   3.613  13.960  14.589  0.1155 -0.1288  0.0017
 9089W        W27943   9.011  16.959   2.326 -0.0257  0.0672 -0.0874
 9090W        W27944   5.497   0.129   0.196 -0.2093  0.1137  0.5553
 9091W        W27945   3.531   4.357   0.118 -0.0558 -0.3243 -0.2889
 9092W        W27946   3.762   7.339  12.344 -0.0687 -0.1541  0.0566
 9093W        W27947   9.976  17.426   4.330  0.4595 -0.0272  0.1349
 9094W        W27948   0.071  18.513   2.392  0.2822  0.0592 -0.2790
 9095W        W27949  10.257  16.992   2.901 -0.0065 -0.3954  0.5511
 9096W        W27950   0.245  19.087  12.088 -0.2615  0.1913  0.0432
 9097W        W27951   6.247   6.361   3.693  0.1894  0.0341  0.2254
 9098W        W27952   3.533   6.849  14.003  0.0515 -0.2239 -0.2874
 9099W        W27953  18.174  18.697   2.173 -0.1093 -0.0168 -0.1702
 9100W        W27954  12.813   2.237  13.059 -0.2452 -0.0635  0.1398
 9101W        W27955   3.084  19.023   9.805  0.0973 -0.0176  0.2845
 9102W        W27956   3.605   0.634  10.090  0.0884  0.1466  0.0152
 9103W        W27957  16.827   3.986  11.912 -0.3153 -0.2220 -0.0101
 9104W        W27958   4.076  12.578  12.401  0.0315  0.2310 -0.0204
 9105W        W27959  12.383  18.690   4.490 -0.0055  0.1983 -0.1107
 9106W        W27960   4.021   2.954   1.066  0.0565  0.3455 -0.1972
 9107W        W27961  13.604   2.017  13.345 -0.0667 -0.2674  0.2504
 9108W        W27962  14.527   0.076  12.702  0.0890  0.3428  0.0631
 9109W        W27963  10.022   2.436   3.554  0.0085 -0.1856  0.0417
 9110W        W27964   6.113  17.731   1.438 -0.1307 -0.1804  0.0492
 9111W        W27965   7.906  16.988  11.766  0.0272 -0.0185  0.1363
 9112W        W27966  11.341  17.649   1.876  0.0347 -0.0909  0.2262
 9113W        W27967  18.188   2.223  13.919  0.0880 -0.1363  0.1864
 9114W        W27968   9.920   9.935  12.145 -0.1929 -0.1448 -0.2798
 9115W        W27969   1.063   5.975   2.192  0.0312  0.0769  0.3734
 9116W        W27970  11.487   1.538  12.585 -0.1364 -0.1012 -0.2815
 9117W        W27971   6.222  15.877  10.620 -0.1599 -0.0395 -0.0657
 9118W        W27972   8.592   7.926   1.051 -0.1733 -0.2634 -0.2973
 9119W        W27973  13.130   6.670  13.186  0.0129 -0.0630  0.0841
 9120W        W27974   5.205  18.156  12.417  0.1248 -0.3115 -0.0324
 9121W        W27975   8.913  11.689  12.347  0.0443 -0.4363 -0.2491
 9122W        W27976  16.498   2.209   3.065 -0.0615  0.0746  0.2019
 9123W        W27977   4.156  13.146   0.855 -0.0512  0.1645  0.1784
 9124W        W27978  16.110  18.366  11.946 -0.1589  0.0171  0.2152
 9125W        W27979   4.192  14.711  14.240 -0.0681 -0.0916 -0.0326
 9126W        W27980   3.628   2.612  12.363  0.2520  0.3853  0.0410
 9127W        W27981   3.879  14.079   1.321 -0.0363 -0.0967  0.0892
 9128W        W27982   8.971  11.082   0.067  0.1986  0.0178  0.0880
 9129W        W27983  12.107  13.318   0.499  0.0227 -0.1354  0.1100
 9130W        W27984  13.286  14.560   2.291  0.0869  0.1570  0.0150
 9131W        W27985   4.142   1.506   3.820  0.0873 -0.2290  0.0192
 9132W        W27986   2.338   4.817  12.646  0.3137 -0.0950 -0.0076
 9133W        W27987  16.537   0.190  11.259  0.1009  0.0553 -0.0880
 9134W        W27988   8.901  17.274   9.768  0.3146 -0.0664 -0.0538
 9135W        W27989   6.266   0.489  11.777 -0.1397  0.1596  0.0082
 9136W        W27990   6.814  16.366  14.012  0.1467  0.2219 -0.1791
 9137W        W27991  17.159  12.838  12.622  0.2564 -0.0793  0.0961
 9138W        W27992   8.093  10.086   2.114  0.1426  0.1576 -0.1139
 9139W        W27993  10.829   5.867   4.576 -0.0177  0.0773 -0.6870
 9140W        W27994   6.985   7.724   1.901 -0.0411  0.1721 -0.0444
 9141W        W27995   8.307   7.018  13.650 -0.1285  0.1283 -0.3348
 9142W        W27996  17.403  17.733   4.096 -0.2010 -0.1021  0.2158
 9143W        W27997   3.111  10.903  12.257  0.2652 -0.1947 -0.0031
 9144W        W27998  17.812  15.041   2.356  0.0227  0.0321  0.0718
 9145W        W27999  17.095  12.506  13.091  0.2154  0.0207  0.1546
 9146W        W28000   2.107   0.880   4.245 -0.0750 -0.1108  0.5141
 9147W        W28001  18.631   8.407   3.559 -0.0678 -0.2062 -0.3444
 9148W        W28002   8.877   6.404   2.310 -0.2384 -0.0944 -0.0612
 9149W        W28003  13.506   2.861   1.939 -0.4139 -0.0780  0.0570
 9150W        W28004   9.926   0.156   0.895 -0.3540  0.0702 -0.1107
 9151W        W28005   6.440  14.720   1.639 -0.0205  0.1624 -0.2040
 9152W        W28006   5.241  12.766  14.382  0.1812 -0.0861 -0.3635
 9153W        W28007  11.698   7.969   2.676 -0.0923  0.2447 -0.0763
 9154W        W28008  12.698  15.276   4.189  0.3233  0.1834  0.0482
 9155W        W28009   0.166  11.625   0.318 -0.3431  0.3204 -0.0063
 9156W        W28010  18.125   2.520  10.752 -0.3724 -0.1326 -0.1921
 9157W        W28011  18.582   7.838  11.723  0.0514 -0.0973  0.2458
 9158W        W28012   9.894   0.154   4.650  0.4254  0.0590 -0.3692
 9159W        W28013  10.143  16.415  11.718 -0.0229 -0.2553 -0.1679
 9160W        W28014  11.398  12.896  12.466 -0.0148  0.3556 -0.0919
 9161W        W28015  11.954  17.230  10.833  0.0981 -0.1184 -0.1502
 9162W        W28016   6.230  10.890   1.545  0.4140 -0.2923 -0.2921
 9163W        W28017   0.992   8.405   2.509 -0.3620  0.1235 -0.4673
 9164W        W28018  19.078   3.732   4.023  0.4638  0.0406  0.3767
 9165W        W28019   1.687  12.638  12.557  0.1462 -0.2338  0.0900
 9166W        W28020  12.366  10.096  10.067 -0.0687 -0.2616 -0.0328
 9167W        W28021   4.536  18.869  13.654  0.0935  0.0444 -0.3091
 9168W        W28022  16.526  14.384  12.499  0.0229 -0.0024 -0.0018
 9169W        W28023   7.254  11.427  14.367 -0.2092  0.1429 -0.0233
 9170W        W28024   1.797  12.966  13.015  0.2627  0.0833  0.0406
 9171W        W28025   6.502  14.571   2.195  0.2634 -0.1322  0.0313
 9172W        W28026  19.010  13.409  11.534  0.1721  0.0090 -0.0955
 9173W        W28027   2.159   7.119   0.779  0.0048  0.1350  0.0488
 9174W        W28028  17.578   5.640   3.665 -0.0770 -0.0032  0.1257
 9175W        W28029  10.252   6.988  12.938  0.3295  0.1677 -0.1679
 9176W        W28030   8.115  18.043  11.512 -0.1375  0.2289  0.1180
 9177W        W28031  12.863  11.933   1.556 -0.2004 -0.0283  0.0372
 9178W        W28032   4.048  18.722  10.845 -0.0726 -0.2338  0.1017
 9179W        W28033   7.278   9.303   0.507  0.2279 -0.1212 -0.3407
 9180W        W28034   1.697   9.656   1.724  0.1781  0.2399  0.0668
 9181W        W28035  13.384   0.704  13.909  0.1813 -0.2166 -0.0604
 9182W        W28036   3.098  11.744  11.479 -0.2289  0.1629  0.0180
 9183W        W28037   3.468   7.271  13.179  0.0748  0.0076 -0.0938
 9184W        W28038   1.952   1.553  11.974 -0.1774 -0.2428  0.0233
 9185W        W28039  12.680   8.816   3.473 -0.1681 -0.2678  0.2944
 9186W        W28040  14.124   4.807   2.292  0.1131  0.1241  0.3014
 9187W        W28041  11.995   3.120   3.084 -0.2253 -0.0587  0.0052
 9188W        W28042  15.783   6.591  12.390 -0.0955 -0.4467 -0.2889
 9189W        W28043   4.801   8.296   1.624 -0.0102  0.2991 -0.0143
 9190W        W28044   2.182  17.735  13.231 -0.2114 -0.2214 -0.1981
 9191W        W28045   9.668  16.004  11.210  0.0366  0.1082 -0.1832
 9192W        W28046  18.659   4.107  13.211 -0.1318  0.0986  0.0829
 9193W        W28047  14.866  17.311   0.401  0.0721 -0.1282 -0.1029
 9194W        W28048  13.078  12.314  12.423 -0.1936  0.1909 -0.0281
 9195W        W28049  13.367   9.016   2.229 -0.1477 -0.3366 -0.2255
 9196W        W28050  16.525   2.238  11.259  0.3772  0.0274 -0.1203
 9197W        W28051   7.796   0.075   1.860 -0.2500  0.1814 -0.2930
 9198W        W28052   0.780   5.810  10.425  0.1573  0.1593  0.2020
 9199W        W28053   7.185   7.554  12.041  0.1714  0.0781 -0.2115
 9200W        W28054   2.982  13.649   2.211 -0.0065  0.2571  0.0850
 9201W        W28055   8.658  18.482  13.016 -0.3311  0.0451  0.1996
 9202W        W28056  18.060  17.915   3.777 -0.2631 -0.2051  0.1464
 9203W        W28057   9.883  13.342   2.074  0.0031 -0.2030 -0.0926
 9204W        W28058   3.287  15.876  13.225  0.0275  0.1861 -0.2598
 9205W        W28059  13.533  17.972   1.240  0.1493  0.0592 -0.1411
 9206W        W28060  16.384   7.762   2.189 -0.3614 -0.0733 -0.2675
 9207W        W28061   8.021   3.441  12.741  0.5325  0.0708  0.1756
 9208W        W28062   9.036  15.950  14.558 -0.0216 -0.0046  0.3016
 9209W        W28063  11.602   9.239   2.119  0.2946 -0.0989 -0.1512
 9210W        W28064   3.938   1.496  12.461 -0.0056 -0.1536 -0.0332
 9211W        W28065  16.295   0.284  13.138 -0.1651  0.0298 -0.0188
 9212W        W28066  17.125   7.210  14.169 -0.1250  0.3001  0.1071
 9213W        W28067  11.597   1.233  10.581 -0.1147 -0.3349 -0.1100
 9214W        W28068  15.352   1.831   0.168 -0.1741 -0.3775  0.2424
 9215W        W28069  13.827  11.106  12.947 -0.0248 -0.0210  0.1410
 9216W        W28070   1.468  11.439  13.882  0.0007 -0.2197  0.2650
 9217W        W28071  16.384  18.517   2.455  0.3302  0.1511 -0.3049
 9218W        W28072  16.832   0.559  11.020  0.3711 -0.0288  0.1368
 9219W        W28073  14.288   5.831   1.353 -0.0576  0.0437  0.3536
 9220W        W28074   3.292  13.286   3.545  0.0486  0.1941  0.1941
 9221W        W28075  17.542   8.706   4.625 -0.0407 -0.0260  0.1170
 9222W        W28076   4.679  10.246   2.753  0.1535 -0.1203  0.0991
 9223W        W28077  14.674   3.751  13.940  0.3400  0.0693  0.1024
 9224W        W28078   3.309   1.558   0.372  0.0833 -0.1670 -0.0696
 9225W        W28079   9.783   3.066   2.792  0.0066  0.2448 -0.1683
 9226W        W28080  13.743  12.563  11.321  0.2779 -0.0919  0.0358
 9227W        W28081  16.477  14.546  13.958  0.0219  0.2816 -0.0499
 9228W        W28082  12.022  17.936  14.192 -0.0580 -0.2744  0.0752
 9229W        W28083   5.437   4.106   0.177 -0.0437 -0.0827 -0.0755
 9230W        W28084   4.563  17.656   2.547  0.1023  0.3869  0.0799
 9231W        W28085  17.396   7.916  11.122 -0.1505 -0.1965  0.0436
 9232W        W28086   5.533   4.371   3.040  0.1123  0.3815  0.0865
 9233W        W28087   8.816  13.476   1.399 -0.1078 -0.0607  0.0000
 9234W        W28088   0.898  17.798  10.879  0.0990 -0.0611 -0.0668
 9235W        W28089  16.786   7.687   4.573 -0.0621  0.1491  0.0056
 9236W        W28090  14.934  17.710   3.456 -0.2514 -0.1548 -0.0305
 9237W        W28091  10.705  17.192  13.576  0.2199 -0.1610  0.0503
 9238W        W28092  14.081  10.952  10.894  0.1464 -0.0139  0.0703
 9239W        W28093  10.541  19.086   9.926  0.1882 -0.1544 -0.1061
 9240W        W28094  14.640   9.049  12.926  0.0620 -0.0207  0.0658
 9241W        W28095   0.933   0.362  11.711 -0.1426  0.3729  0.0665
 9242W        W28096  18.806  11.281   4.757  0.0929  0.0851 -0.2293
 9243W        W28097   9.962   8.220   2.207  0.0707  0.1381  0.1785
 9244W        W28098  16.960  10.982   1.534  0.2738  0.0373  0.0442
 9245W        W28099  13.342  18.973  12.964 -0.0325  0.0602 -0.0772
 9246W        W28100   8.183  15.855   1.443  0.5373 -0.2289  0.2797
 9247W        W28101  15.869   6.425  14.690  0.0492  0.0283  0.3033
 9248W        W28102   8.794   2.154   1.358 -0.1741 -0.0937 -0.1115
 9249W        W28103   8.556   5.383   0.645 -0.0553  0.0281  0.1653
 9250W        W28104   0.594   2.108  12.108 -0.2883 -0.1605 -0.2751
 9251W        W28105   2.051   7.345   2.393 -0.2492 -0.2311 -0.1676
 9252W        W28106   2.446  12.380  10.562  0.1121  0.0174 -0.3655
 9253W        W28107   0.104  16.930   0.084  0.2525 -0.2287 -0.5687
 9254W        W28108   3.530   3.980  14.408 -0.3332  0.1678 -0.0659
 9255W        W28109   5.892   1.973   5.000  0.2191 -0.1291  0.1892
 9256W        W28110   9.460   1.180  13.905 -0.0196 -0.2946  0.0832
 9257W        W28111   9.347  15.114  13.505  0.2461 -0.1039  0.0496
 9258W        W28112  17.223   1.341   2.328  0.0473 -0.0516 -0.2071
 9259W        W28113   7.875   8.622   3.055 -0.0024  0.0787  0.0796
 9260W        W28114   2.512   4.337  12.934 -0.0813 -0.2952  0.1392
 9261W        W28115   2.730   4.811  12.313  0.0253 -0.1029 -0.1494
 9262W        W28116  17.206   8.155  10.725  0.0190 -0.1410 -0.0175
 9263W        W28117   6.917   7.783   3.907 -0.0846 -0.0773 -0.0544
 9264W        W28118  15.389   2.694  14.573  0.0661  0.1721 -0.0492
 9265W        W28119  12.767  18.757  14.462 -0.2671  0.1451  0.1246
 9266W        W28120   9.963  18.062   1.788  0.0542 -0.3595  0.0731
 9267W        W28121  15.771   4.963   0.565  0.0181  0.1264  0.2362
 9268W        W28122   2.150  12.231  13.275 -0.0172  0.0635  0.1839
 9269W        W28123   1.816   6.340   0.884  0.0937  0.1995  0.3319
 9270W        W28124   4.242  17.843  11.000 -0.1393 -0.0627 -0.3176
 9271W        W28125   2.012  18.535  12.314  0.0135 -0.1010 -0.2990
 9272W        W28126  18.357  18.247  11.556  0.2113 -0.1009  0.2488
 9273W        W28127  12.852  10.324   0.114 -0.1442 -0.1891  0.1659
 9274W        W28128   4.622  14.560   4.582  0.0444 -0.1236 -0.0870
 9275W        W28129   9.170   1.424   0.980 -0.1790 -0.0689  0.3944
 9276W        W28130   0.425  10.819   1.991  0.5653  0.0142 -0.0635
 9277W        W28131   7.864   0.893  10.418 -0.2066  0.0754  0.0973
 9278W        W28132   0.897   0.226  12.805  0.0480 -0.0021 -0.2189
 9279W        W28133  10.444  10.694   2.825  0.0398  0.0184 -0.2062
 9280W        W28134  13.484   4.232  13.216 -0.0118  0.1019 -0.1797
 9281W        W28135  17.077   1.389   0.399  0.0330  0.0675 -0.1530
 9282W        W28136  13.830  18.859  11.355 -0.2815 -0.0481  0.1800
 9283W        W28137  11.661  19.097   0.034 -0.0515  0.1207  0.0302
 9284W        W28138  17.797  12.532   2.153 -0.3611  0.0166 -0.0034
 9285W        W28139   8.700   2.414  14.445 -0.1970 -0.1848 -0.0777
 9286W        W28140   5.150  12.595   1.903 -0.2027 -0.0048  0.1667
 9287W        W28141  18.874   6.232   1.952  0.1495  0.1365  0.0493
 9288W        W28142  18.246  16.129  11.566  0.0457  0.1083  0.2803
 9289W        W28143  19.053  14.788  11.751  0.1459 -0.0563  0.2770
 9290W        W28144  10.854   6.819   0.964  0.3133  0.0508  0.1113
 9291W        W28145   7.704  15.591   2.140 -0.0171 -0.1343  0.1521
 9292W        W28146   3.148   5.640   0.895  0.1439  0.0221 -0.0201
 9293W        W28147   5.991  10.056   0.330 -0.0395 -0.0316 -0.1571
 9294W        W28148  10.848   6.259  11.470 -0.2104 -0.5256 -0.1973
 9295W        W28149   5.666   9.522   9.441  0.2172 -0.0929  0.1915
 9296W        W28150  11.560   4.584  12.336 -0.0311  0.0561 -0.0830
 9297W        W28151   4.666   9.315  14.487 -0.3263  0.0369 -0.0006
 9298W        W28152  17.306   9.040   1.024 -0.0607  0.0527  0.1143
 9299W        W28153   6.601  10.108  11.139 -0.2956 -0.0439 -0.1775
 9300W        W28154   4.310  11.335  14.672  0.2876 -0.4530  0.0330
 9301W        W28155  13.654  11.163   1.315 -0.1623 -0.1205 -0.0028
 9302W        W28156   1.183  17.947   0.154  0.0493  0.0406 -0.2191
 9303W        W28157   1.676  12.763  12.040 -0.1019  0.1230 -0.2216
 9304W        W28158  12.115   8.773  13.922 -0.1921 -0.0782  0.2837
 9305W        W28159  16.408  10.262  12.853  0.0612  0.0494  0.0565
 9306W        W28160  13.517   5.914   3.748 -0.0089  0.0806 -0.1895
 9307W        W28161  13.405   9.550  13.795 -0.3469 -0.1635 -0.0041
 9308W        W28162  11.313   3.257   1.936 -0.0383  0.2021 -0.1228
 9309W        W28163   4.140  11.021   2.989 -0.1184 -0.1992 -0.0695
 9310W        W28164  17.243  18.638   2.141 -0.1411  0.0836 -0.5146
 9311W        W28165   9.217  11.123   1.505  0.0180  0.0357 -0.5513
 9312W        W28166  17.915  18.595   4.320  0.1254  0.2747 -0.2308
 9313W        W28167  12.389  10.465  10.413  0.2551 -0.0718 -0.1399
 9314W        W28168   8.828  16.750  11.966 -0.2085  0.1448 -0.2948
 9315W        W28169  14.417   3.563  11.288 -0.0918 -0.0195 -0.0748
 9316W        W28170  15.470  16.469   2.097 -0.0908 -0.1606 -0.1101
 9317W        W28171  10.866  17.644   0.742 -0.0756 -0.1442 -0.1649
 9318W        W28172   3.819   7.050   3.384 -0.0207  0.2123  0.0267
 9319W        W28173  11.839  17.442  13.285 -0.0991  0.0156 -0.0624
 9320W        W28174   6.056   7.384   0.493 -0.3861  0.1542 -0.4321
 9321W        W28175  10.898   3.859   1.332 -0.0954  0.1337 -0.0681
 9322W        W28176   6.650   6.771   4.312  0.1491 -0.1467 -0.3343
 9323W        W28177  18.743   1.129   9.931 -0.1295 -0.2783  0.1524
 9324W        W28178   2.697  12.172   0.296 -0.0357 -0.1713 -0.1406
 9325W        W28179   3.861   8.593   0.173  0.0853 -0.0347  0.0574
 9326W        W28180  15.404   2.211   0.469  0.0229  0.2389 -0.3430
 9327W        W28181  15.080  10.557   0.494  0.1018  0.1079  0.0482
 9328W        W28182   7.334   4.670  11.651 -0.0330 -0.1427  0.5156
 9329W        W28183   4.123   3.066  10.625  0.1172 -0.1511  0.1147
 9330W        W28184  14.309   3.498  11.795 -0.3091  0.2000  0.2772
 9331W        W28185  11.533  18.159   4.340 -0.2708  0.1752  0.0725
 9332W        W28186  12.500  18.802  13.231 -0.1127 -0.1499  0.4139
 9333W        W28187  16.022  18.279   1.400  0.2732 -0.0010  0.0290
 9334W        W28188   7.292  11.992   2.362  0.2497  0.2306 -0.0301
 9335W        W28189   7.548  14.536  11.199 -0.1315  0.1646  0.1175
 9336W        W28190  10.162   8.565   1.019  0.0999 -0.0948 -0.2622
 9337W        W28191  16.071  16.210   2.427 -0.1599 -0.1158  0.1585
 9338W        W28192   8.967   9.759   0.146  0.3141  0.0306 -0.2224
 9339W        W28193  12.178   1.273   1.225 -0.4136  0.1202  0.0002
 9340W        W28194   8.064  10.781  10.160 -0.3058  0.0834 -0.0719
 9341W        W28195  13.356  12.024   9.960 -0.1947 -0.1557  0.1837
 9342W        W28196  15.327   0.542   4.437 -0.0290 -0.0268  0.0053
 9343W        W28197  15.563  11.076   1.219 -0.1121  0.1642  0.1195
 9344W        W28198   6.069   7.761   2.132 -0.1463  0.2211 -0.1335
 9345W        W28199   3.691   6.274  13.942  0.1943  0.1960  0.0678
 9346W        W28200  16.200   9.908  13.760 -0.0767 -0.2982  0.1339
 9347W        W28201  13.676   8.178   2.133  0.0110  0.2502 -0.1346
 9348W        W28202   8.046   3.172   3.097  0.2482  0.2027  0.1746
 9349W        W28203  17.632   5.568  11.869 -0.0865  0.2729 -0.1116
 9350W        W28204   1.337   8.733   4.814  0.3864  0.2371  0.0488
 9351W        W28205  14.944  18.327  11.121 -0.1814  0.0096 -0.0227
 9352W        W28206   9.379   3.803  14.549 -0.0655  0.3463 -0.0091
 9353W        W28207   7.026   9.272  11.521 -0.1198 -0.1705 -0.1180
 9354W        W28208   4.525   9.228  10.804 -0.0017 -0.1521 -0.0190
 9355W        W28209   9.585   5.607   0.149 -0.1917 -0.4361 -0.0895
 9356W        W28210  11.864   4.357  11.551 -0.0568  0.1389 -0.1165
 9357W        W28211  13.871   6.319  12.946 -0.1029 -0.1501  0.1189
 9358W        W28212   8.912   4.904  14.399 -0.0518  0.1725  0.0799
 9359W        W28213   9.804   6.844   0.166 -0.1238 -0.1095 -0.0491
 9360W        W28214  13.571   9.295  12.514  0.1361 -0.4437 -0.1853
 9361W        W28215  15.057   6.851   0.870  0.1623  0.0119 -0.5407
 9362W        W28216  16.000   0.680  11.840 -0.2717 -0.3888  0.0659
 9363W        W28217   1.083   8.793   0.921  0.0869  0.0861  0.0109
 9364W        W28218   1.193   9.538   1.750 -0.1126 -0.1783  0.0126
 9365W        W28219   4.836   7.497   2.289 -0.0213  0.0579  0.2033
 9366W        W28220   8.229  12.798  13.013  0.0560 -0.1369  0.1399
 9367W        W28221  18.154  11.100  14.061 -0.2261 -0.3410 -0.3475
 9368W        W28222   6.773  16.515   0.316 -0.1549  0.0513 -0.2692
 9369W        W28223   9.569   1.501   3.420  0.1386  0.0716 -0.1642
 9370W        W28224   8.892   0.596  12.795 -0.0407 -0.2185  0.0856
 9371W        W28225   7.983  10.487   1.305 -0.0654 -0.3395 -0.2161
 9372W        W28226  13.266  18.296   3.106 -0.3116 -0.1363  0.2117
 9373W        W28227  13.668   5.951  14.237  0.2044  0.0501  0.1971
 9374W        W28228   3.781   1.854  13.107 -0.5518 -0.2804  0.0231
 9375W        W28229   7.448   9.802   3.335  0.0019 -0.0438  0.2232
 9376W        W28230  15.917   2.190   2.516  0.0392 -0.0153 -0.2155
 9377W        W28231   4.371   0.503   4.502  0.0757 -0.2526  0.2745
 9378W        W28232  16.547   8.800   3.861  0.0253  0.0868 -0.0578
 9379W        W28233  14.393  15.477   2.476 -0.0045 -0.2219  0.2137
 9380W        W28234   8.187   9.378  14.243 -0.1294 -0.3013 -0.1220
 9381W        W28235  14.192  13.313  11.685 -0.2171  0.6955 -0.1509
 9382W        W28236  14.368   1.536  13.297  0.0772  0.0762  0.4813
 9383W        W28237   3.325   2.296   0.017  0.0986 -0.1258 -0.1890
 9384W        W28238  10.431   4.379   2.841  0.2012  0.0271 -0.2422
 9385W        W28239  15.594   6.196  11.104  0.1447  0.0286 -0.2296
 9386W        W28240   9.583  13.969  14.586  0.1185 -0.1369 -0.0930
 9387W        W28241  12.179   5.263   0.177 -0.0950  0.1867  0.0984
 9388W        W28242  14.524   5.213   3.642 -0.0669  0.0411 -0.2331
 9389W        W28243   0.173   8.866   2.463 -0.1658 -0.0602  0.0708
 9390W        W28244  12.127   7.448  12.837  0.1453 -0.0108  0.2949
 9391W        W28245   2.261  16.901  13.569  0.0015  0.3231 -0.2339
 9392W        W28246   4.283  16.626  13.813  0.0785 -0.0258 -0.1369
 9393W        W28247  17.534  18.904   0.674  0.1286  0.0931 -0.0901
 9394W        W28248  11.386  12.507  13.092  0.2009  0.2194  0.0218
 9395W        W28249  18.319   9.961   1.054  0.3785  0.1638 -0.0664
 9396W        W28250   1.226   0.888   3.090 -0.0097  0.0523 -0.3126
 9397W        W28251  16.805   5.222   4.313 -0.1998 -0.0259  0.2179
 9398W        W28252   7.344   6.581   0.071 -0.1178 -0.1954 -0.0829
 9399W        W28253  19.138   7.874   1.607 -0.2084 -0.1303  0.1699
 9400W        W28254  13.582   1.291   3.990  0.0341 -0.1209 -0.0464
 9401W        W28255  12.164  18.952   2.723 -0.0303 -0.0435  0.1588
 9402W        W28256  11.008  17.294   2.067  0.0808  0.2190 -0.1151
 9403W        W28257   9.275   1.572  12.635  0.2688  0.0451  0.0741
 9404W        W28258   6.401   0.526  11.264 -0.0613  0.0566  0.0229
 9405W        W28259   1.231  18.363   3.900  0.1978  0.0129 -0.4225
 9406W        W28260   6.700   0.878   0.364 -0.0705 -0.2904  0.0366
 9407W        W28261   0.335   0.224   1.950 -0.1201  0.1324 -0.1966
 9408W        W28262  11.658   4.791  13.284 -0.2727  0.0846  0.0018
 9409W        W28263   5.189  14.302  10.945 -0.0284  0.0430 -0.1127
 9410W        W28264   1.681  11.185   3.827 -0.0211 -0.0285  0.1287
 9411W        W28265   1.491  12.273   2.005 -0.3555  0.3337 -0.0638
 9412W        W28266   2.524  10.938  11.206 -0.0678 -0.0455  0.2315
 9413W        W28267  17.914  18.159  12.941  0.1928  0.0002 -0.0911
 9414W        W28268   3.423  12.502   4.587 -0.2500  0.2470 -0.2062
 9415W        W28269  12.965   9.225   3.686 -0.0064 -0.1617  0.2003
 9416W        W28270  17.517  12.782   2.842  0.0856  0.3266  0.0863
 9417W        W28271   2.091  15.745  14.667  0.0652  0.2273  0.0683
 9418W        W28272   7.801   3.626  11.538  0.2428  0.2655 -0.2113
 9419W        W28273   3.772  16.889  11.790 -0.3497 -0.2880  0.1193
 9420W        W28274   5.549  15.116  13.319 -0.0196  0.1810  0.1464
 9421W        W28275  14.111  15.407   2.890  0.2828  0.3377 -0.0099
 9422W        W28276  13.714  12.461  14.294  0.4406  0.1389  0.1166
 9423W        W28277  11.235   7.954  11.743  0.0593  0.0417 -0.2835
 9424W        W28278   5.786   5.122   2.857  0.0639  0.0219 -0.1731
 9425W        W28279  18.128   5.030  14.107  0.0177 -0.0322 -0.0812
 9426W        W28280  18.655  17.647  10.971 -0.2029  0.0188 -0.0427
 9427W        W28281  16.085  16.115   1.656  0.0963 -0.2185 -0.0441
 9428W        W28282  16.775   2.229  11.713  0.0472  0.0964  0.0858
 9429W        W28283   7.833  18.597  11.861 -0.1405 -0.0440  0.0867
 9430W        W28284  13.159  17.271  10.121 -0.0037  0.2511  0.2352
 9431W        W28285  18.497  15.427  12.749 -0.3801  0.2596  0.1985
 9432W        W28286  15.575   3.711  14.264  0.3238 -0.0196 -0.1748
 9433W        W28287   6.787   4.705   3.592  0.3773  0.1652 -0.2032
 9434W        W28288   4.316  11.863  11.297  0.3160 -0.0311  0.2369
 9435W        W28289  14.853   7.589   3.148 -0.2002  0.0633  0.1003
 9436W        W28290  14.006   3.837  11.487 -0.2683  0.0458 -0.1413
 9437W        W28291   9.916   3.589  12.148  0.2086 -0.2674  0.1017
 9438W        W28292   0.131  12.232   2.610 -0.3553  0.3058 -0.1671
 9439W        W28293  15.220   7.605  11.535 -0.0910  0.1240  0.1309
 9440W        W28294  10.652   2.277   0.192  0.2318  0.2416 -0.3197
 9441W        W28295  12.171  14.270   0.521  0.2218  0.0483 -0.0287
 9442W        W28296  12.655  11.473  11.477  0.0779  0.1806 -0.1489
 9443W        W28297   3.384   4.150  13.606 -0.1848 -0.1277  0.2320
 9444W        W28298   6.077   6.725  10.867 -0.1772  0.1332  0.4128
 9445W        W28299  18.615  10.843   4.454  0.2230  0.2319  0.2761
 9446W        W28300   3.440   7.407   0.226 -0.1798 -0.0887 -0.0683
 9447W        W28301   5.029   2.217  14.345 -0.0484  0.1059 -0.1827
 9448W        W28302  16.173   1.755  12.690  0.1868  0.0164  0.0641
 9449W        W28303   6.285   1.204  10.257  0.1171  0.2703  0.0236
 9450W        W28304  12.863   2.101   0.968  0.2157  0.1679  0.0576
 9451W        W28305  10.514  15.848  11.918 -0.0202  0.0017 -0.0900
 9452W        W28306   5.050   6.479  11.323 -0.0572 -0.0042  0.1574
 9453W        W28307  12.084  18.954   1.825 -0.0774 -0.5871 -0.0453
 9454W        W28308  14.460   1.778  10.877  0.0899  0.1483  0.0162
 9455W        W28309  10.250   7.473  13.009 -0.3473  0.1082  0.0866
 9456W        W28310   1.438   5.253  12.080 -0.3196 -0.0071 -0.0850
 9457W        W28311   9.676  10.391  12.241 -0.3091 -0.0944  0.0181
 9458W        W28312  12.459  13.248   4.094 -0.1928 -0.5638 -0.0837
 9459W        W28313   3.837   9.019  14.648  0.0688  0.2635 -0.1342
 9460W        W28314   7.225   0.640  10.953  0.1674 -0.0831  0.1900
 9461W        W28315  18.390  15.140   2.065 -0.1217 -0.0095  0.3059
 9462W        W28316  13.838   0.736   1.743 -0.3371 -0.4336  0.2601
 9463W        W28317  10.358   8.739   2.662  0.1854  0.1121 -0.2360
 9464W        W28318   0.905  13.971   0.344 -0.2131  0.0602  0.0214
 9465W        W28319   0.658   5.136  13.879 -0.2241 -0.0495 -0.0007
 9466W        W28320   0.977   0.132   1.372 -0.1976  0.2165 -0.2084
 9467W        W28321   5.244   8.953  11.414  0.4787  0.2707 -0.1569
 9468W        W28322  18.220   2.136   4.039  0.2283  0.2402  0.0433
 9469W        W28323   9.961  16.597   0.878 -0.0492 -0.4371  0.1372
 9470W        W28324  11.781  12.628   2.228 -0.0054  0.2511 -0.3806
 9471W        W28325  17.036   7.722  10.705  0.2137  0.0920  0.0754
 9472W        W28326  15.242  19.076  13.574 -0.0902  0.1871  0.1892
 9473W        W28327  10.455   6.063   3.429 -0.1906 -0.1285  0.2708
 9474W        W28328  16.948   1.883   2.839  0.2016  0.0689 -0.1671
 9475W        W28329  17.277   3.997  14.259 -0.1170 -0.1255 -0.3288
 9476W        W28330   4.995   5.953   4.160  0.1817  0.0722  0.2830
 9477W        W28331  16.259   1.457   1.434 -0.1654 -0.1725 -0.1540
 9478W        W28332   4.014  11.553   1.927  0.2901  0.3110  0.4018
 9479W        W28333   4.761  18.023   2.122 -0.1214  0.0578 -0.1265
 9480W        W28334  12.450   7.269  13.216 -0.1410 -0.1499 -0.1187
 9481W        W28335  18.561  16.397   1.150 -0.1415  0.1330 -0.0374
 9482W        W28336   1.283  11.606   1.223 -0.1490  0.0284  0.3178
 9483W        W28337  18.581  16.353  14.486  0.1708  0.2678 -0.3051
 9484W        W28338   7.600   7.722   2.219  0.2536 -0.2939  0.0889
 9485W        W28339  10.173  12.431  14.184 -0.3218  0.0413  0.0357
 9486W        W28340   6.670   0.163  14.056  0.4747 -0.1562  0.2087
 9487W        W28341  18.066  19.136   4.453  0.2301  0.2095 -0.1371
 9488W        W28342  14.768   5.728  10.199  0.0170  0.2256 -0.0036
 9489W        W28343  17.203  18.303   1.819  0.0140 -0.2265 -0.1217
 9490W        W28344   6.028   0.739  10.426 -0.0983 -0.1776 -0.2128
 9491W        W28345  13.990  11.912  12.664 -0.1003 -0.1021  0.0079
 9492W        W28346  14.415  12.887   1.161  0.2161  0.0144 -0.0004
 9493W        W28347  14.513   5.495   0.586  0.0001  0.0477 -0.0744
 9494W        W28348   8.581  15.989   1.705 -0.0370  0.1322  0.0560
 9495W        W28349   8.907  17.814   1.746  0.0018 -0.0895 -0.0230
 9496W        W28350   0.754   3.824  12.607  0.1211 -0.0605 -0.0139
 9497W        W28351   6.875  13.161  10.572  0.0139 -0.2025 -0.0779
 9498W        W28352   4.394   0.501  14.101  0.1747 -0.3916  0.1022
 9499W        W28353   7.989   3.624   1.985 -0.3559 -0.2680  0.0470
 9500W        W28354  17.019  19.054   2.465 -0.2698  0.0139  0.3840
 9501W        W28355   7.066   5.765   4.609  0.5070 -0.0360  0.0039
 9502W        W28356   1.361   9.904   1.401 -0.2240 -0.1286 -0.0149
 9503W        W28357   2.337   9.540   2.580 -0.1242 -0.0776  0.1809
 9504W        W28358   0.487  14.853   1.595  0.1130  0.1411  0.0060
 9505W        W28359  12.339   0.170  12.235  0.1523  0.2361  0.1980
 9506W        W28360   1.063  14.365   2.170  0.1747  0.3053 -0.0567
 9507W        W28361  12.915  16.484   0.398 -0.1235  0.1092 -0.2012
 9508W        W28362  11.192   8.351   4.335  0.1662 -0.1182  0.2110
 9509W        W28363   5.135  15.424  13.395 -0.0521  0.2112 -0.0216
 9510W        W28364  13.681   7.084   4.905  0.1189  0.0523 -0.0607
 9511W        W28365  12.642  11.060  13.134 -0.1392 -0.0793  0.0557
 9512W        W28366  12.297   1.450   0.564  0.2352 -0.1729 -0.0606
 9513W        W28367   3.909   1.681  11.982 -0.0242 -0.1948  0.3604
 9514W        W28368   6.836   0.612  12.979 -0.1438  0.0752  0.0764
 9515W        W28369  12.552   4.407  10.437  0.0828 -0.0423  0.2324
 9516W        W28370   4.929   2.644   2.437 -0.2294  0.0661 -0.0349
 9517W        W28371  10.195  11.807   4.120  0.2221  0.3846  0.1272
 9518W        W28372   2.276  18.547   1.977 -0.0508 -0.2264  0.2440
 9519W        W28373   3.842   5.344   4.667 -0.1633 -0.0724 -0.0867
 9520W        W28374   3.555  10.398  13.433 -0.1814  0.0698 -0.0470
 9521W        W28375   2.044   2.182   2.143  0.0185 -0.1995 -0.2397
 9522W        W28376  16.011   4.881  12.498 -0.0540 -0.1039 -0.0513
 9523W        W28377   0.171   6.476   5.308  0.2991 -0.0212  0.1740
 9524W        W28378   5.530   2.111  13.586  0.0140  0.1362  0.1275
 9525W        W28379   2.565   2.634  12.251 -0.3459 -0.1215  0.0346
 9526W        W28380   3.491   7.805   1.290  0.1328 -0.2710 -0.0917
 9527W        W28381  17.781  16.181  11.807 -0.2532 -0.0915 -0.2068
 9528W        W28382   5.364  11.973  12.151 -0.2180  0.0094 -0.3127
 9529W        W28383   5.922  15.188   4.406  0.1839 -0.2173 -0.2195
 9530W        W28384  12.635   8.578  10.581  0.2913 -0.2744 -0.0864
 9531W        W28385  13.625  18.611   3.335 -0.0047  0.1663  0.2934
 9532W        W28386   9.801   8.236   0.931 -0.1459 -0.0897 -0.1698
 9533W        W28387   6.033   7.776   3.112  0.1106  0.1832 -0.2056
 9534W        W28388   9.552   4.463  13.780  0.2190 -0.1083  0.1487
 9535W        W28389   9.921  13.272  14.303  0.0030 -0.1370  0.1936
 9536W        W28390   1.440   2.031   4.373  0.4548  0.0791  0.0138
 9537W        W28391   2.738  14.745   1.586 -0.0898 -0.2403 -0.0296
 9538W        W28392  17.941  10.412   3.434 -0.0359  0.0445 -0.3453
 9539W        W28393   8.511  11.958  11.269 -0.1055 -0.0339 -0.0630
 9540W        W28394  14.466   8.623   1.031  0.1405  0.1817 -0.0010
 9541W        W28395   1.253  18.029  12.626 -0.0112 -0.0101 -0.2343
 9542W        W28396   0.242   3.416  12.769  0.0183  0.1602  0.3456
 9543W        W28397   3.687  11.216   3.152 -0.4564  0.0749  0.2674
 9544W        W28398   5.945  15.152  12.490 -0.1226 -0.0628  0.0233
 9545W        W28399  12.770  16.932  14.248 -0.0041 -0.1780  0.1540
 9546W        W28400  13.325  14.780   2.772  0.2985  0.2969 -0.4383
 9547W        W28401  10.420   2.731   1.643  0.2074 -0.2443 -0.0488
 9548W        W28402   8.604   2.881   0.870 -0.2895 -0.2131  0.0615
 9549W        W28403  10.434  17.924   2.976  0.1829  0.1323  0.1776
 9550W        W28404   6.186  16.350   1.609  0.2803 -0.0753 -0.1301
 9551W        W28405   0.003  10.578   1.872  0.0637  0.2520 -0.1090
 9552W        W28406   3.771   1.217   2.711 -0.5275  0.0912 -0.2304
 9553W        W28407  13.499  11.622   3.258  0.0793 -0.1060  0.2392
 9554W        W28408  18.488  14.933  12.543 -0.2112 -0.3240 -0.0639
 9555W        W28409  10.294   9.733   4.832  0.2755 -0.0087 -0.1390
 9556W        W28410   3.473  11.699   9.765  0.0302 -0.1341  0.0377
 9557W        W28411   6.591  14.893  10.865 -0.1331 -0.0910 -0.1932
 9558W        W28412   4.241   6.131  11.825  0.0545  0.0016  0.1208
 9559W        W28413  13.436   3.465   3.648 -0.0560  0.0177 -0.0678
 9560W        W28414   1.592   7.089  12.930 -0.1439  0.3180  0.1059
 9561W        W28415  12.278  18.433   4.083  0.0903  0.2678  0.0911
 9562W        W28416   8.073   0.647   1.211 -0.4435  0.1007  0.0343
 9563W        W28417   0.645  14.577   4.988 -0.2061 -0.0298 -0.0544
 9564W        W28418  16.171  17.143   3.740 -0.3528  0.1292 -0.0007
 9565W        W28419  14.862  14.249   0.674 -0.3850  0.2492 -0.1609
 9566W        W28420  17.398   3.182   1.365  0.1730  0.2109 -0.0447
 9567W        W28421   5.393  12.531   0.665 -0.2365  0.0496  0.0854
 9568W        W28422  13.605  12.459  12.571  0.4023 -0.1409 -0.3577
 9569W        W28423   5.671  17.508   1.307  0.2033  0.1530 -0.0844
 9570W        W28424  12.191  14.666  10.713  0.1293  0.0945  0.0219
 9571W        W28425   5.295   3.423   1.575  0.0982 -0.0584  0.0726
 9572W        W28426   9.914   4.273  13.274  0.0302 -0.0166 -0.1505
 9573W        W28427  11.044  12.901  11.600  0.1898 -0.3830 -0.2687
 9574W        W28428  10.253   9.411   1.274 -0.3362 -0.0903  0.0628
 9575W        W28429   4.095  13.306   0.186  0.0732 -0.2575 -0.1510
 9576W        W28430  12.293   5.698  13.989  0.0603 -0.0680 -0.1147
 9577W        W28431   5.143   1.000   2.498  0.0855 -0.0076  0.0570
 9578W        W28432  17.963   8.334   0.804  0.1496 -0.1318 -0.2439
 9579W        W28433   0.949   9.214   5.458 -0.1051  0.2156  0.0112
 9580W        W28434  14.318   4.874   1.013 -0.0190  0.2738  0.3886
 9581W        W28435  17.634  11.589  13.442  0.2317 -0.1143 -0.0752
 9582W        W28436  14.733  13.447  14.366 -0.0422 -0.2356 -0.0892
 9583W        W28437  13.308  11.076   4.406  0.0849  0.0087 -0.0869
 9584W        W28438  11.017  13.410  11.627 -0.0838  0.3549 -0.1983
 9585W        W28439  10.590  11.566  10.677  0.2252 -0.0606 -0.1295
 9586W        W28440  13.154   9.974   2.607  0.1360  0.1929  0.3284
 9587W        W28441   1.758  11.549   1.993  0.2496  0.0020  0.1863
 9588W        W28442  10.473  10.164  10.392  0.0390 -0.1838 -0.1419
 9589W        W28443  19.090  15.589  13.565  0.0491  0.0583 -0.0246
 9590W        W28444  15.035  10.874   3.876 -0.1513 -0.1672  0.0587
 9591W        W28445   3.290   8.487   3.094 -0.0951  0.1692 -0.0714
 9592W        W28446   6.858   4.643  11.774 -0.3130  0.3508  0.2502
 9593W        W28447  17.693  16.993   1.643 -0.3079 -0.2413  0.2698
 9594W        W28448   2.271  18.700  11.039 -0.0775  0.3398 -0.0773
 9595W        W28449   4.357  11.859  12.367  0.0820  0.1472 -0.1771
 9596W        W28450   8.705  17.643  13.983  0.1204  0.1179  0.0811
 9597W        W28451  16.227   2.539  13.202 -0.0119 -0.1504 -0.2073
 9598W        W28452  15.640   5.586  12.922  0.3608 -0.0227 -0.1856
 9599W        W28453   9.457   2.695  11.246  0.0037 -0.4021 -0.1146
 9600W        W28454  13.234  17.788   3.580  0.2146  0.0917  0.2545
 9601W        W28455  18.749  13.393  13.979  0.0974 -0.0913  0.0768
 9602W        W28456  13.739  16.591   2.923  0.3124  0.0719 -0.1885
 9603W        W28457   5.752   7.458   0.095 -0.1182 -0.0587 -0.0819
 9604W        W28458  10.667  13.594  13.477  0.2816  0.1134 -0.0204
 9605W        W28459   2.885  19.075  11.551  0.2875 -0.0135 -0.0573
 9606W        W28460  12.978  14.637  10.685 -0.0391  0.1763  0.2255
 9607W        W28461  14.599  17.743   0.240 -0.1751 -0.0491  0.0625
 9608W        W28462   8.476   0.053   4.585 -0.3055  0.2711  0.3466
 9609W        W28463  18.124   6.075  11.193 -0.0119  0.0416 -0.2916
 9610W        W28464   0.678  15.379  14.356 -0.0465  0.1477 -0.2250
 9611W        W28465  16.338   2.691   0.649  0.2827 -0.3917 -0.1685
 9612W        W28466   4.147  14.672  12.364  0.3037 -0.2542 -0.0140
 9613W        W28467  11.509  15.338  10.940  0.0747 -0.0613 -0.1524
 9614W        W28468  10.517  17.289   0.785  0.4170 -0.0932 -0.0378
 9615W        W28469  10.415   2.562  13.992 -0.0239  0.2303  0.1194
 9616W        W28470  13.901   2.569  10.940  0.1441  0.3162 -0.4261
 9617W        W28471   2.526  12.444  11.489 -0.0232 -0.1871 -0.0871
 9618W        W28472  15.614  14.882  13.697 -0.1173  0.1230  0.1871
 9619W        W28473  16.313   2.085   4.916  0.1881 -0.1518 -0.0397
 9620W        W28474   5.481   2.301  12.761  0.1009 -0.1060 -0.4563
 9621W        W28475  10.272   5.806  13.064 -0.3111 -0.1042 -0.0612
 9622W        W28476   4.202  11.568   4.451  0.0454  0.0098 -0.0733
 9623W        W28477   6.869   5.910   1.764 -0.1179  0.0624 -0.0052
 9624W        W28478   6.684   6.259  14.358  0.1981  0.0338 -0.0420
 9625W        W28479   2.271   7.755   1.608  0.1690 -0.1355 -0.0247
 9626W        W28480   5.718  11.445   0.693 -0.1159 -0.1722 -0.0197
 9627W        W28481  17.499  16.783  14.014 -0.3740 -0.1653 -0.2206
 9628W        W28482   2.912   6.627   2.966  0.0321 -0.1853  0.0471
 9629W        W28483   6.834  13.019   1.125 -0.2404 -0.2362 -0.0507
 9630W        W28484  13.576   5.587  12.650  0.0830  0.0024 -0.0258
 9631W        W28485  18.553  12.788   2.743  0.0564 -0.2424 -0.1566
 9632W        W28486  10.438  16.331  13.870 -0.1509  0.0055 -0.2191
 9633W        W28487   5.029   5.793   9.092 -0.1635 -0.0852  0.1981
 9634W        W28488  15.700   9.852   2.310  0.0712  0.0015 -0.0007
 9635W        W28489   3.020  11.444  12.017 -0.1343 -0.0383 -0.3418
 9636W        W28490   9.784   5.565  12.875 -0.1305  0.1280  0.2574
 9637W        W28491  15.378  10.628  10.892  0.0193  0.0660 -0.0635
 9638W        W28492  14.968  13.817  14.096  0.3039 -0.1052 -0.1851
 9639W        W28493  18.325  15.945  10.138 -0.0108 -0.0595  0.1005
 9640W        W28494   5.974   7.664  13.403  0.0604 -0.4530  0.2224
 9641W        W28495  10.463   0.208   2.660 -0.0551  0.0065 -0.1135
 9642W        W28496   3.803  14.944  12.962  0.3208 -0.0731 -0.2566
 9643W        W28497  18.222  10.164  12.136 -0.1348 -0.1613  0.0354
 9644W        W28498   8.361  12.305   3.398 -0.3312 -0.0477  0.0346
 9645W        W28499  12.531   5.462  11.064 -0.2492  0.2359  0.3131
 9646W        W28500   1.798  14.844  12.215  0.1879  0.1192 -0.3018
 9647W        W28501   7.632  10.592   2.790  0.0365  0.1561 -0.2077
 9648W        W28502  17.086  13.475  13.215 -0.0689  0.2034  0.0587
 9649W        W28503   7.216   6.483   2.994  0.0783 -0.2504 -0.0769
 9650W        W28504  15.798   4.724  10.440 -0.1247  0.0993 -0.0018
 9651W        W28505  12.503  19.193  11.348  0.2898 -0.1749  0.0240
 9652W        W28506   1.572   4.666  11.300 -0.0686  0.0900  0.2724
 9653W        W28507  16.594   4.905  10.890  0.2153 -0.1350 -0.0210
 9654W        W28508   2.118  11.693   1.505  0.1341  0.1879 -0.2727
 9655W        W28509   4.027  15.827   4.613 -0.0535 -0.0136  0.0802
 9656W        W28510  17.697   4.819   1.999 -0.0762  0.1242 -0.0057
 9657W        W28511  15.597  11.515   0.381 -0.0911  0.1645  0.1965
 9658W        W28512  11.278  16.278  12.941 -0.1552  0.2194 -0.1270
 9659W        W28513  17.432  15.529   0.718 -0.1292  0.0547  0.0441
 9660W        W28514  13.115  13.272   1.066 -0.0292 -0.0968  0.1039
 9661W        W28515   0.063   0.627   2.074  0.1757  0.0175  0.0066
 9662W        W28516  17.359  16.164   0.640  0.2635  0.0719  0.1213
 9663W        W28517   2.796   1.561   2.234  0.3653  0.2820  0.1648
 9664W        W28518  10.900   3.608  10.830 -0.0528 -0.2501  0.2454
 9665W        W28519   0.096  11.394  11.780  0.1923  0.5610  0.1095
 9666W        W28520  13.984   8.286   2.514  0.2453  0.0902 -0.2569
 9667W        W28521  16.251   9.145  10.670  0.0496  0.0898  0.0978
 9668W        W28522   2.176   5.494  11.483  0.2125  0.1004 -0.1392
 9669W        W28523  11.775   3.398  11.214  0.0598 -0.0925 -0.4538
 9670W        W28524   6.615  14.879   1.118 -0.1948  0.3176  0.1136
 9671W        W28525  14.620  16.022  10.224 -0.2146 -0.0971  0.1876
 9672W        W28526   1.550   5.574   4.280  0.0031  0.0989  0.0350
 9673W        W28527  16.512   0.795  11.931  0.0363  0.1067 -0.3847
 9674W        W28528  18.820   2.909   3.512 -0.0578  0.1261  0.1776
 9675W        W28529  18.338   9.762  14.232 -0.1273 -0.0264 -0.1063
 9676W        W28530   5.530  15.859   2.295 -0.1868  0.0518  0.3214
 9677W        W28531  11.096  14.015   3.172  0.1131  0.0801  0.0233
 9678W        W28532  13.986   5.275  11.635  0.1532  0.0729  0.0055
 9679W        W28533   6.252   5.079   3.036 -0.1971 -0.2588  0.1149
 9680W        W28534   0.709   0.097  11.308 -0.0305 -0.0584 -0.2243
 9681W        W28535  13.942  15.587  11.919  0.0642 -0.4409 -0.1179
 9682W        W28536  12.518  18.821   4.980 -0.1616 -0.0547 -0.0931
 9683W        W28537   2.676  13.238  13.576  0.1362 -0.0345  0.0257
 9684W        W28538   8.685  15.519   2.854 -0.1281  0.1763 -0.0442
 9685W        W28539   0.476  17.854  13.843 -0.1916  0.1930 -0.2189
 9686W        W28540   0.321   6.588   0.992 -0.1427  0.0508  0.0284
 9687W        W28541  11.665   1.587  11.396 -0.0874 -0.0366 -0.1441
 9688W        W28542  12.149   0.273   1.345  0.3732  0.1302 -0.1233
 9689W        W28543   5.362  14.475   1.034 -0.0292  0.0734  0.1961
 9690W        W28544   8.049   6.695  12.165 -0.1076 -0.1698 -0.0673
 9691W        W28545   0.233   3.386  14.539 -0.4719  0.2083 -0.2489
 9692W        W28546  13.957  14.497   1.675  0.5015  0.1334  0.0438
 9693W        W28547   7.653   9.494  14.417  0.1100  0.1142  0.2766
 9694W        W28548   8.817   4.339   4.820  0.1472 -0.1483  0.1536
 9695W        W28549   9.031  18.291  11.101  0.4912 -0.2735  0.2107
 9696W        W28550   2.953   1.338   2.646 -0.3922  0.0568 -0.2149
 9697W        W28551   3.183   6.078  13.110  0.2046 -0.0391  0.0758
 9698W        W28552  16.085   8.861  11.973  0.1960 -0.0788  0.1762
 9699W        W28553  18.348  17.886  14.334 -0.4745 -0.1427 -0.1263
 9700W        W28554   1.426   4.190   2.528  0.0325 -0.1357 -0.1729
 9701W        W28555   9.742   8.478   3.209 -0.2001 -0.1873  0.3290
 9702W        W28556   9.922   4.777  13.921 -0.4072 -0.2794 -0.2367
 9703W        W28557  10.296   4.629   0.512  0.0922  0.1435 -0.1005
 9704W        W28558  16.587   4.231  10.285  0.0221 -0.0798 -0.0778
 9705W        W28559   2.464  15.612   2.109 -0.0982 -0.1545  0.0824
 9706W        W28560  15.437  18.870   4.151 -0.2280  0.0910 -0.1653
 9707W        W28561   6.924   8.540   3.189 -0.1624  0.0272  0.1598
 9708W        W28562   9.926   3.239  11.063  0.2731  0.0258 -0.2335
 9709W        W28563  18.584   2.502  11.939 -0.1686  0.5080 -0.0848
 9710W        W28564   5.845   3.692   4.435  0.0713 -0.0306  0.2153
 9711W        W28565  18.362  14.193  11.447  0.0653  0.2447  0.3020
 9712W        W28566  16.931  17.277  12.473 -0.1014 -0.1277 -0.3315
 9713W        W28567  11.886   0.204  12.367  0.2731 -0.1036 -0.1846
 9714W        W28568  11.127  19.173  14.557 -0.1027  0.3948 -0.2841
 9715W        W28569   6.547  12.134   1.600 -0.3434  0.0862  0.0783
 9716W        W28570   3.030  15.998  13.684  0.0347  0.0717  0.0045
 9717W        W28571  15.709   9.288   2.539 -0.0777 -0.2066 -0.0620
 9718W        W28572   4.929  11.876   3.394  0.0617 -0.1802  0.0972
 9719W        W28573  10.695  12.590   1.322 -0.0930  0.2385 -0.2720
 9720W        W28574  15.704   9.626   3.294 -0.0411  0.1632 -0.0731
 9721W        W28575  15.243   1.597   9.925  0.1831 -0.2215 -0.0387
 9722W        W28576   2.163  12.855   3.182 -0.2192  0.1052 -0.3431
 9723W        W28577  13.770  18.591   4.441 -0.0585 -0.0667  0.1665
 9724W        W28578   9.047  16.597   1.019  0.1674 -0.0699  0.2297
 9725W        W28579  18.831  14.592   1.950 -0.1177  0.0592  0.2070
 9726W        W28580  13.619   8.926   3.809  0.2691  0.2938 -0.3931
 9727W        W28581  15.807  12.084  12.027 -0.0233  0.0480 -0.2877
 9728W        W28582   6.899  14.081  10.588  0.0894 -0.0039  0.0857
 9729W        W28583  16.837  10.190  12.491 -0.1754  0.0290  0.1021
 9730W        W28584   3.284   1.043   2.416 -0.0235 -0.2141  0.2440
 9731W        W28585  15.804  12.429   2.860  0.0442 -0.1579 -0.0183
 9732W        W28586   9.183   2.292  13.326  0.1880  0.2372  0.1459
 9733W        W28587  10.753  16.485  12.188 -0.3189 -0.0492 -0.0524
 9734W        W28588   8.366   4.703   1.199  0.0123 -0.0111  0.0725
 9735W        W28589  14.846  16.768   3.099  0.0600  0.3460  0.0264
 9736W        W28590   2.320  15.052  10.691 -0.0634 -0.3954 -0.1032
 9737W        W28591  12.519  10.893   0.762  0.1084  0.1281  0.2073
 9738W        W28592   3.092  14.292   0.151 -0.0567  0.1254 -0.2909
 9739W        W28593   7.817  17.539  10.275 -0.0741  0.0050  0.0658
 9740W        W28594   7.850  17.076  12.377  0.3603  0.1388 -0.1772
 9741W        W28595  11.795  17.268  12.751 -0.0075  0.0755  0.3590
 9742W        W28596  15.051   8.969  13.830 -0.0277 -0.1201 -0.0177
 9743W        W28597  13.467  11.717   3.820  0.0675 -0.2345  0.2660
 9744W        W28598   0.829   4.779  14.213  0.1329  0.1426 -0.0012
 9745W        W28599  14.212  17.973  13.359 -0.0381 -0.0180 -0.0388
 9746W        W28600  17.677   8.885  13.096 -0.1441  0.0384 -0.0830
 9747W        W28601  10.717   5.322  10.408  0.0777 -0.2019  0.0428
 9748W        W28602   6.055   8.073  12.456  0.1755 -0.0104 -0.0761
 9749W        W28603   5.878  18.994  12.308  0.1992 -0.4004 -0.1608
 9750W        W28604  13.590   4.905  13.207  0.1543 -0.1409  0.0886
 9751W        W28605  15.161  10.794  11.840 -0.0368  0.1708 -0.3746
 9752W        W28606   0.113  16.682  12.583 -0.1532 -0.2644 -0.2611
 9753W        W28607  17.828   8.134   2.561  0.1051 -0.0902  0.1090
 9754W        W28608  10.165   1.253  11.753  0.0963 -0.3054 -0.0238
 9755W        W28609   6.631   9.370   3.375 -0.0247  0.2441 -0.1179
 9756W        W28610  17.955   3.763   0.223 -0.0709 -0.0636 -0.0473
 9757W        W28611   1.909  14.940   4.063 -0.0118  0.0418  0.2125
 9758W        W28612  10.652  13.585  11.264  0.2972 -0.2239 -0.3078
 9759W        W28613   7.700   1.317   9.416 -0.1838 -0.0534 -0.0110
 9760W        W28614  10.393   3.587  11.277 -0.1063 -0.0028 -0.1929
 9761W        W28615  16.173   1.987  14.061  0.0253  0.1105  0.1827
 9762W        W28616  17.328  13.402   1.687 -0.0819  0.1689  0.2022
 9763W        W28617   0.054   8.284   1.387 -0.0603 -0.0007 -0.1092
 9764W        W28618  18.694   9.195   4.155  0.0513 -0.0099 -0.1406
 9765W        W28619   8.521   1.749   3.271 -0.3330  0.0748 -0.1235
 9766W        W28620  18.093   7.327  11.195  0.0254 -0.1150 -0.2009
 9767W        W28621   6.676   8.875   1.469 -0.1388 -0.0182 -0.3109
 9768W        W28622   9.641   4.158   4.363 -0.0075 -0.0424  0.0039
 9769W        W28623  18.214  17.332  13.817 -0.1931 -0.0623 -0.0137
 9770W        W28624  17.498   6.249   1.143 -0.1684 -0.3132  0.1035
 9771W        W28625   7.657  13.167  12.407 -0.1302 -0.0228 -0.0504
 9772W        W28626   5.560   0.424  14.022 -0.1250  0.2128  0.0353
 9773W        W28627   8.781  16.075   2.992 -0.0172 -0.1446  0.0625
 9774W        W28628  11.368   3.410   2.533 -0.3508 -0.0783 -0.0121
 9775W        W28629   5.030   0.598   2.235 -0.2294  0.1830  0.2310
 9776W        W28630  16.029   2.686   2.327 -0.1287  0.1917 -0.1646
 9777W        W28631  12.622   7.657  12.126  0.2745 -0.1840  0.3347
 9778W        W28632   3.975  13.636  12.469 -0.2308 -0.0758 -0.1679
 9779W        W28633   3.915  18.526   3.168 -0.1892  0.2165 -0.2491
 9780W        W28634   7.187  10.949   2.147  0.2318  0.2362  0.2309
 9781W        W28635   8.149   9.618  14.665 -0.1160 -0.2851 -0.3233
 9782W        W28636  14.938  16.242  13.429  0.0171  0.0614  0.0355
 9783W        W28637  10.242  14.018   3.079 -0.2649 -0.1197 -0.0023
 9784W        W28638  18.072   3.433   3.725  0.0401  0.1238 -0.0992
 9785W        W28639   7.089   7.582   3.432  0.2032  0.0658  0.2503
 9786W        W28640  12.621  12.508  13.735  0.1895 -0.0632 -0.2490
 9787W        W28641   7.664  17.292  14.379 -0.0690  0.1905 -0.1086
 9788W        W28642  18.268  12.062  13.657  0.0420 -0.0463 -0.2224
 9789W        W28643   2.463  11.889  10.763  0.0007 -0.0997 -0.2146
 9790W        W28644   8.440  17.591   1.937  0.0535 -0.4793 -0.3749
 9791W        W28645  12.310  10.556   1.276  0.1307  0.1415  0.0576
 9792W        W28646  16.614   0.469   4.067 -0.0612 -0.1601  0.1365
 9793W        W28647  10.492   6.368   0.701  0.1260 -0.3031  0.0341
 9794W        W28648  16.076   5.009   3.896  0.3003 -0.1384  0.0753
 9795W        W28649   7.935  11.126   0.142 -0.0451 -0.1357  0.1029
 9796W        W28650   1.924  17.446  14.699  0.0402  0.0040  0.2175
 9797W        W28651   1.343   6.545  10.596 -0.2907  0.0962 -0.1875
 9798W        W28652   1.223   8.926   4.318  0.1330  0.1047  0.1251
 9799W        W28653  13.581  14.542   4.328 -0.0612 -0.0250 -0.0694
 9800W        W28654   0.824  12.731   2.104 -0.1563  0.1290 -0.0396
 9801W        W28655  10.212  18.873  12.435 -0.4746  0.0149 -0.1724
 9802W        W28656  14.829  16.277  12.035  0.1246 -0.1719  0.1477
 9803W        W28657  17.911   9.373  11.563 -0.1973 -0.0442  0.2018
 9804W        W28658  19.180   9.822   2.766  0.0420  0.2536 -0.1192
 9805W        W28659   1.387   2.592   2.579 -0.2276 -0.2239  0.1606
 9806W        W28660  15.173  14.261   2.914 -0.2146 -0.0519  0.1635
 9807W        W28661   4.815  17.823  10.308 -0.3034  0.1383 -0.0516
 9808W        W28662  15.609   7.230  11.465 -0.0845  0.0391  0.3283
 9809W        W28663  11.763  15.612  11.249 -0.1116  0.1185 -0.0565
 9810W        W28664  11.515  15.578   2.002  0.1732  0.1208 -0.0637
 9811W        W28665  15.083   2.368   0.097  0.0219 -0.0686  0.0706
 9812W        W28666   2.364   9.552  10.687 -0.1277 -0.0298 -0.2204
 9813W        W28667  12.647   6.497  12.033 -0.3293 -0.0039 -0.2133
 9814W        W28668   2.030  14.355   1.375 -0.2150  0.2407  0.0158
 9815W        W28669  17.779  15.239   0.539  0.2680 -0.1210 -0.0494
 9816W        W28670   6.983   6.105  11.663  0.0373  0.2370 -0.3994
 9817W        W28671  14.295  15.147  11.892  0.0378 -0.3506 -0.0130
 9818W        W28672   6.580  18.009   1.615  0.1343 -0.0169 -0.0281
 9819W        W28673  15.623  15.220   0.944 -0.3109  0.1175 -0.1679
 9820W        W28674  16.193  13.115  11.257  0.2748 -0.2901  0.2003
 9821W        W28675   4.431  11.369   2.804  0.0331 -0.2360 -0.0906
 9822W        W28676   6.897   7.530   2.929 -0.2659  0.1457 -0.1478
 9823W        W28677  13.091  16.554   1.769 -0.0240 -0.1064 -0.1026
 9824W        W28678  14.670   1.743  11.937  0.2100 -0.0021  0.1936
 9825W        W28679  16.896  16.354   2.850 -0.2487 -0.1344 -0.0742
 9826W        W28680   5.042  10.805   3.310 -0.0583  0.2027 -0.3432
 9827W        W28681   1.787   1.752   2.724 -0.0797 -0.0702 -0.0157
 9828W        W28682  18.633   8.356   4.233 -0.0994 -0.3683 -0.2548
 9829W        W28683   9.421   0.764   2.708  0.2749  0.1869  0.1258
 9830W        W28684   9.414   1.557   0.507  0.0629  0.3735 -0.1429
 9831W        W28685   4.881   9.690  12.167  0.2997  0.4289  0.3737
 9832W        W28686   9.998   5.389  11.212 -0.0047 -0.1072  0.0076
 9833W        W28687   2.208  10.859  10.187 -0.1346  0.1241 -0.0526
 9834W        W28688   0.352  15.785  13.361 -0.1546  0.0838 -0.0680
 9835W        W28689   7.701   0.545   0.623  0.0903 -0.0328  0.0225
 9836W        W28690   2.931   7.855  10.074 -0.1012 -0.2809 -0.1158
 9837W        W28691  13.440   3.275  11.580  0.0764 -0.3611 -0.1212
 9838W        W28692  14.716   3.290  12.033  0.2835 -0.0853 -0.1824
 9839W        W28693   1.997   6.517   1.950 -0.3921  0.0049 -0.0108
 9840W        W28694  10.061  14.793  13.064  0.1492  0.0746  0.0742
 9841W        W28695  18.927  11.448   2.851  0.0936 -0.2178  0.0594
 9842W        W28696   7.246  12.926  14.143  0.4655  0.3213 -0.1327
 9843W        W28697   9.641  13.785   3.749 -0.0104 -0.4024 -0.2780
 9844W        W28698   1.053  18.820   3.781 -0.2680 -0.0510  0.2710
 9845W        W28699   4.367   7.663  13.135  0.0325  0.1555 -0.1820
 9846W        W28700   0.386  10.080   4.488  0.3369 -0.0390 -0.1544
 9847W        W28701   7.842  14.408  10.565  0.0426 -0.1374  0.0902
 9848W        W28702   6.508   7.634  11.285  0.0440  0.2885 -0.0236
 9849W        W28703  18.219  11.816  10.357  0.0789  0.2565  0.0860
 9850W        W28704   0.341   8.177  14.041 -0.0551  0.5016 -0.0998
 9851W        W28705  10.181  14.943   4.140  0.1512 -0.1756 -0.0181
 9852W        W28706   0.858  18.453  13.274  0.0557  0.0292  0.0722
 9853W        W28707   0.070   4.395  10.419 -0.2987  0.0526 -0.1317
 9854W        W28708  10.148   6.628  10.914  0.0783  0.2236  0.0685
 9855W        W28709   1.375  10.945  11.517  0.1151 -0.3476 -0.1959
 9856W        W28710   7.439   3.985   3.701 -0.2491  0.1974  0.2487
 9857W        W28711  16.952  19.070   0.906  0.3250  0.0340 -0.2039
 9858W        W28712  17.904   4.223   1.804 -0.0993 -0.2790 -0.0118
 9859W        W28713  17.206   3.415  12.931  0.1578  0.2507 -0.1426
 9860W        W28714   2.190   8.478  11.725  0.1672  0.1278  0.1190
 9861W        W28715  15.602   4.024  11.315  0.1079 -0.1404 -0.2083
 9862W        W28716   9.280   6.969  13.521 -0.1095  0.0342  0.3230
 9863W        W28717   5.814  16.905   2.429  0.2589 -0.2073 -0.1009
 9864W        W28718  15.362  15.836   2.040  0.0241 -0.2450  0.0993
 9865W        W28719  10.492  16.080   1.910  0.1890  0.4493  0.2681
 9866W        W28720  12.025   5.361   1.630  0.2358 -0.0698  0.0083
 9867W        W28721  10.559  18.043  12.855 -0.0838 -0.1234  0.0190
 9868W        W28722  11.822  18.001  12.458  0.1045 -0.1759  0.1727
 9869W        W28723   5.040  15.095  12.228 -0.0472 -0.1027 -0.1039
 9870W        W28724  18.723   1.573   2.219  0.0270 -0.1683 -0.1408
 9871W        W28725   3.261   9.217   2.304 -0.2621  0.0638  0.0392
 9872W        W28726  17.215   9.988   0.169 -0.0323 -0.1767 -0.0433
 9873W        W28727   4.769   9.238   3.680  0.1398  0.1477 -0.0608
 9874W        W28728   9.046  16.485   3.140  0.1133 -0.0303 -0.3876
 9875W        W28729  13.703   7.582   9.779 -0.1117  0.0082 -0.0661
 9876W        W28730  16.233  10.537   0.101  0.2161  0.1155  0.1860
 9877W        W28731   0.382   4.897   3.197  0.1008  0.0224 -0.1808
 9878W        W28732   0.868  12.049   3.276 -0.1798  0.1266  0.3955
 9879W        W28733   3.053   0.073  11.118  0.1748  0.1470 -0.0245
 9880W        W28734  14.584  15.444   4.380  0.0938 -0.2151  0.0801
 9881W        W28735  10.798   0.748  11.019 -0.2413  0.1478  0.0293
 9882W        W28736   5.963  18.590   1.084 -0.4494  0.2606 -0.3158
 9883W        W28737   2.551  12.275  13.575  0.0239  0.0862  0.2506
 9884W        W28738  17.080  11.877   1.895 -0.3867 -0.2035 -0.0372
 9885W        W28739   0.202  17.335  11.855  0.1538 -0.3044 -0.1327
 9886W        W28740   6.312  18.453  11.680  0.1565  0.1103  0.0346
 9887W        W28741  15.218  17.483  12.558  0.0682 -0.0861  0.0518
 9888W        W28742  13.789  16.382   2.421  0.6074 -0.2149 -0.2587
 9889W        W28743  15.197  17.523  10.710 -0.0277 -0.0481 -0.1536
 9890W        W28744  18.187   8.121   3.440  0.1992  0.0829  0.1344
 9891W        W28745   1.545  14.056   2.492 -0.2572 -0.1474 -0.0691
 9892W        W28746   2.874   7.967   1.129 -0.1349  0.1429 -0.0388
 9893W        W28747  12.647   3.540  13.497  0.1515  0.0318  0.2169
 9894W        W28748   2.591   9.789   3.418 -0.1510 -0.0904 -0.0718
 9895W        W28749  18.858   4.586  13.511 -0.2301 -0.0552  0.3823
 9896W        W28750  15.026   3.734  10.602  0.0158  0.0156 -0.2418
 9897W        W28751  14.078   5.188   3.201 -0.0851 -0.1819  0.0555
 9898W        W28752   4.417   7.202  12.823 -0.0879  0.1572 -0.5526
 9899W        W28753   9.751  16.734  11.906  0.1976  0.3093 -0.2456
 9900W        W28754  18.243  14.370   3.328  0.0684  0.4576  0.3224
 9901W        W28755   8.025   3.394  14.414  0.2101  0.3633  0.1303
 9902W        W28756   0.010   6.062  11.927 -0.0465  0.0813  0.3531
 9903W        W28757   1.064  19.146  10.878  0.0984 -0.2934 -0.0570
 9904W        W28758   2.163  16.977  11.646  0.3705  0.0379  0.2237
 9905W        W28759   0.806  15.815   4.167 -0.5311  0.2709  0.0522
 9906W        W28760  16.646   2.815  11.179  0.0803 -0.1489 -0.0332
 9907W        W28761  18.224   9.105   1.442 -0.3281  0.2564  0.4240
 9908W        W28762  15.815  17.133   4.345  0.1393  0.3516  0.2458
 9909W        W28763   3.193   9.954  11.201  0.1160 -0.2537 -0.0079
 9910W        W28764   3.166  17.174   4.006 -0.0747  0.0463 -0.1056
 9911W        W28765   4.151   2.285   1.192 -0.0017  0.2116  0.1461
 9912W        W28766  16.025   0.220   4.488  0.0471  0.1484 -0.0104
 9913W        W28767  16.530   0.338  14.599  0.0259 -0.1219  0.0822
 9914W        W28768  12.131   6.286  12.065 -0.1884  0.2019  0.0279
 9915W        W28769  15.700  12.883   0.793  0.2346  0.0371 -0.2117
 9916W        W28770  10.727   0.789  12.816 -0.1173  0.0975 -0.1209
 9917W        W28771  11.175   9.601   2.229  0.3303  0.0434  0.0046
 9918W        W28772  16.012   8.979  12.771 -0.3272  0.0373 -0.0979
 9919W        W28773  10.250   3.803  13.968  0.1627 -0.1657  0.1106
 9920W        W28774   7.937   1.695  14.036  0.2367 -0.2816  0.3260
 9921W        W28775   2.650   0.301  11.527 -0.0392  0.1527 -0.0093
 9922W        W28776   1.094  16.377  13.482  0.1280  0.0651  0.0494
 9923W        W28777   8.520  15.897   0.681 -0.0646  0.2114 -0.0820
 9924W        W28778  11.880   2.756  10.238 -0.0072  0.1041 -0.0897
 9925W        W28779  16.777  18.267  12.192  0.0204 -0.3632  0.0726
 9926W        W28780  15.989   9.965  12.903  0.4664 -0.3308  0.2152
 9927W        W28781  11.903  17.569   0.056 -0.0226 -0.0987 -0.2130
 9928W        W28782   0.505   0.618   2.213  0.0878 -0.1717 -0.0565
 9929W        W28783  15.066   4.500   0.336  0.0334  0.4696 -0.1365
 9930W        W28784  11.216  11.431   0.011 -0.3390  0.2638 -0.0293
 9931W        W28785   4.007   2.110  14.028 -0.4629 -0.1253 -0.3258
 9932W        W28786  16.808   3.704  11.198 -0.0048 -0.2988  0.1827
 9933W        W28787   0.373  11.606  12.858 -0.3774 -0.3650  0.0723
 9934W        W28788  19.023  17.025  10.149 -0.1979  0.4101 -0.0709
 9935W        W28789   7.278   1.092  10.207 -0.0622  0.1021 -0.2667
 9936W        W28790   4.803   9.386   1.850 -0.0104  0.2469  0.3317
 9937W        W28791  13.753   5.562  11.238 -0.1136 -0.2582 -0.1728
 9938W        W28792   2.947  10.813   3.622  0.0953 -0.0441 -0.2320
 9939W        W28793   2.378   8.778   0.193 -0.0917  0.1492  0.1511
 9940W        W28794  12.450   8.219  10.948 -0.0125 -0.0115  0.2937
 9941W        W28795   9.906  12.225   4.022 -0.4491  0.0635 -0.3420
 9942W        W28796   0.404  10.288  14.065 -0.1495  0.3439  0.0348
 9943W        W28797   6.367   9.812   3.292 -0.1952  0.0461 -0.2971
 9944W        W28798  13.988  18.167   1.355  0.0773 -0.1964 -0.1292
 9945W        W28799   9.509   9.927   1.984 -0.0276  0.0887 -0.1811
 9946W        W28800  19.048   4.149   3.312  0.3663  0.0671 -0.2307
 9947W        W28801   6.308   0.370  13.602 -0.1543  0.1354 -0.0233
 9948W        W28802   7.572  12.389  11.915  0.0693  0.1061 -0.0269
 9949W        W28803  10.014   0.188   2.800  0.3243 -0.0346 -0.0544
 9950W        W28804  18.693  17.170  13.810 -0.0180  0.0302 -0.0129
 9951W        W28805   4.004   5.911  14.123  0.0450 -0.2194 -0.0948
 9952W        W28806   7.621  12.867   2.392 -0.2623  0.0530  0.3913
 9953W        W28807  18.958   4.866  12.709 -0.0303  0.2594  0.0638
 9954W        W28808   9.707   3.338  10.554 -0.3506  0.2764 -0.0946
 9955W        W28809   9.966   7.921  12.819  0.0664  0.2224  0.2429
 9956W        W28810   4.168   8.485   3.354 -0.3150 -0.0124  0.0685
 9957W        W28811   6.889  10.979   2.985 -0.0695 -0.3062 -0.1683
 9958W        W28812   9.796   4.594   1.582 -0.2420  0.0797 -0.5223
 9959W        W28813   9.366  11.689  11.647 -0.1595  0.2137  0.0783
 9960W        W28814  12.039  18.383   0.451 -0.1233  0.3172  0.0869
 9961W        W28815  11.427  13.522  10.724 -0.2156  0.2238  0.0771
 9962W        W28816   8.734  13.755  13.084 -0.0763  0.0507  0.1787
 9963W        W28817  10.862   3.429  11.869  0.2839 -0.3062 -0.0982
 9964W        W28818  18.244   9.452   3.927 -0.1869  0.0047 -0.2288
 9965W        W28819  10.951   5.705   2.862  0.3113 -0.1190 -0.2689
 9966W        W28820  10.148   5.311  11.747 -0.1681  0.2309 -0.3371
 9967W        W28821  16.292   4.676  11.301  0.2397  0.3822 -0.0805
 9968W        W28822  12.941   9.687   2.044 -0.0350 -0.1966  0.2310
 9969W        W28823  14.675   9.603  13.065 -0.1278 -0.0208  0.0778
 9970W        W28824   7.536   6.586   1.919 -0.2091 -0.2870 -0.0338
 9971W        W28825   2.482  17.597  14.161 -0.0448 -0.0146  0.1705
 9972W        W28826  18.478  16.335  12.557  0.2231 -0.1032  0.2947
 9973W        W28827   0.850   6.393   3.017  0.1303 -0.0347 -0.0944
 9974W        W28828   5.379  14.891   1.640 -0.1883 -0.1871 -0.1142
 9975W        W28829   5.833  14.210   0.100 -0.6596  0.2314 -0.1702
 9976W        W28830  12.204  13.072  13.132  0.1284 -0.1950 -0.1290
 9977W        W28831  18.064  16.406  14.312 -0.1032  0.1491 -0.0284
 9978W        W28832  16.980   9.990   1.176 -0.1386  0.0312  0.0008
 9979W        W28833  13.332  12.074   1.780  0.0477  0.1002 -0.2397
 9980W        W28834   0.021   6.390   3.233  0.0840  0.2839 -0.0311
 9981W        W28835   3.000   4.793  10.757  0.2299 -0.1311  0.2231
 9982W        W28836  10.515  13.939   4.407 -0.0842  0.0042  0.4225
 9983W        W28837   6.032  12.781  13.932 -0.1526 -0.1046  0.0509
 9984W        W28838  11.018   8.208   1.435  0.0138  0.0886 -0.3638
 9985W        W28839  14.626   1.511   3.084 -0.0118 -0.0336  0.1491
 9986W        W28840  18.523   4.378   0.010  0.3303  0.2383 -0.2072
 9987W        W28841   8.261   5.073   4.134 -0.0975  0.2550 -0.1088
 9988W        W28842   3.750   6.447   1.689  0.0662 -0.2636  0.1000
 9989W        W28843   1.832  12.729   2.838 -0.3390  0.0469  0.0003
 9990W        W28844  11.289   9.220  13.722  0.0932  0.1571  0.2277
 9991W        W28845  11.467  17.887   3.207  0.1291  0.0052  0.1816
 9992W        W28846  10.473  14.117  13.236 -0.0078  0.2948  0.1427
 9993W        W28847   2.329   1.280   1.931 -0.1754  0.0289 -0.2588
 9994W        W28848  13.010  12.203  11.049  0.1744  0.0097 -0.1429
 9995W        W28849   1.763  11.925  13.471  0.0196 -0.1180  0.0141
 9996W        W28850  13.491   2.104   3.415  0.0303  0.2168 -0.1792
 9997W        W28851   8.165  13.980  11.497 -0.1954 -0.1726 -0.0172
 9998W        W28852   4.305   8.417  10.922  0.1460  0.1713  0.5880
 9999W        W28853  13.946   8.810   2.813 -0.0904  0.0466  0.2045
10000W        W28854   7.427   2.310   1.308  0.0463 -0.2160 -0.1175
10001W        W28855  15.939  12.774   0.276  0.1754  0.2766  0.1805
10002W        W28856  13.192  17.012   1.799  0.0668 -0.0305 -0.0937
10003W        W28857  12.685   9.916   2.425 -0.0268 -0.0847  0.0659
10004W        W28858   4.759   3.961   2.751 -0.3562  0.0916  0.0512
10005W        W28859  13.698  17.074   0.409 -0.0275 -0.1368 -0.3627
10006W        W28860   0.729   7.056   3.199  0.0556  0.1801 -0.3028
10007W        W28861   6.795   5.030   1.670  0.1087 -0.3212 -0.0623
10008W        W28862  10.220   2.124  13.730 -0.0245 -0.0160 -0.1434
10009W        W28863   7.875   2.351  10.351  0.1526 -0.2493  0.1932
10010W        W28864   0.697  15.298   0.879 -0.0795  0.0208 -0.2207
10011W        W28865  12.576  13.368   0.273  0.2966  0.1135  0.3541
10012W        W28866  12.358  14.212  12.322  0.2721 -0.0281 -0.4723
10013W        W28867   2.804  18.668   0.983  0.3115  0.0585  0.0139
10014W        W28868  18.895  18.446  11.386 -0.0789  0.1694 -0.0370
10015W        W28869   1.156   8.490  14.309  0.0578  0.1180  0.0775
10016W        W28870   9.315  12.881   9.910  0.1015  0.2354  0.3879
10017W        W28871  10.994  15.886  11.528  0.0412  0.2943  0.1305
10018W        W28872  11.616  10.755  13.114 -0.0435  0.1391  0.1609
10019W        W28873  13.863   8.631   0.067  0.2344 -0.2892 -0.2392
10020W        W28874  13.423  12.378  13.413 -0.1184  0.0187 -0.3597
10021W        W28875   5.271  15.000   1.089 -0.1038 -0.2473 -0.0560
10022W        W28876   2.351   7.937  12.765 -0.3027 -0.0390 -0.0127
10023W        W28877  11.524   3.756  10.252  0.1393 -0.2171 -0.2618
10024W        W28878  11.403  14.541  13.387  0.0212 -0.4329  0.0558
10025W        W28879   2.487  17.540  12.171 -0.0804 -0.2270 -0.1787
10026W        W28880  12.790   5.481   0.807 -0.0118  0.1668  0.0307
10027W        W28881  10.401   2.562   3.218  0.2717  0.3614 -0.2477
10028W        W28882   1.373  11.878   1.666  0.0218 -0.1173  0.1041
10029W        W28883   3.140  10.338   1.254  0.1491  0.1329  0.2337
10030W        W28884  12.557  13.607  14.255 -0.3643 -0.3518 -0.0210
10031W        W28885  14.634  10.360   0.617  0.0467 -0.0235  0.0957
10032W        W28886  11.172  13.754  11.184 -0.3368 -0.2059 -0.3359
10033W        W28887   4.078   4.856   4.688 -0.3859 -0.0826 -0.1045
10034W        W28888  16.388   9.868  13.165  0.0208 -0.0631 -0.3082
10035W        W28889   1.170   2.595  10.692 -0.0257 -0.1506  0.1521
10036W        W28890   5.646  10.389   0.734 -0.0117 -0.1141 -0.0158
10037W        W28891  17.799   7.567  12.137  0.1824 -0.3007 -0.0470
10038W        W28892  12.404   1.591   9.893 -0.1038 -0.3986  0.0394
10039W        W28893  16.251  13.425  13.405  0.2941  0.0153 -0.1033
10040W        W28894  16.075   2.926  14.111  0.1677 -0.0605  0.1006
10041W        W28895  16.361  13.557   3.170 -0.0944 -0.0462 -0.0517
10042W        W28896  12.939   4.442  13.136 -0.2036  0.2480  0.0715
10043W        W28897   0.358   8.326   3.817 -0.3342 -0.2481 -0.0133
10044W        W28898  12.420   0.400   0.399 -0.0656  0.4680 -0.0166
10045W        W28899   2.620   6.612  10.957 -0.1154  0.1430 -0.0445
10046W        W28900   2.114  15.100   3.207 -0.0792 -0.1094 -0.0020
10047W        W28901  18.156   4.865   0.119  0.3528  0.2798 -0.2595
10048W        W28902   1.448  15.722   3.326 -0.0497 -0.1963  0.0588
10049W        W28903  17.350   3.716  13.807 -0.0477 -0.1074  0.0907
10050W        W28904  15.884  16.112   3.342 -0.0989 -0.0916 -0.2040
10051W        W28905   3.636   1.384  14.671  0.1658 -0.1183  0.0662
10052W        W28906   3.818  17.474  13.533  0.1567  0.2235 -0.1852
10053W        W28907  12.886   8.504  13.101  0.2951 -0.1186 -0.1780
10054W        W28908  13.856  18.925  14.427 -0.2109 -0.0541 -0.0780
10055W        W28909  12.671   5.994  10.816  0.1415  0.0432  0.2930
10056W        W28910  18.126   4.399  11.468  0.0513 -0.0445 -0.3155
10057W        W28911  18.419  16.847   2.240  0.4199  0.1202  0.0054
10058W        W28912   0.238  15.985   4.285  0.1191 -0.5142  0.0317
10059W        W28913  12.395   7.259  12.396  0.1462 -0.0735 -0.0102
10060W        W28914  11.699   6.951  10.913  0.1222  0.1333  0.2817
10061W        W28915   9.506   5.564   3.646  0.3682  0.1007  0.0511
10062W        W28916  15.355  17.270  11.401 -0.1941  0.4654 -0.2159
10063W        W28917   7.890   8.945   3.440 -0.1342  0.1596  0.1027
10064W        W28918  16.509   7.276   4.727  0.0020  0.4508  0.2028
10065W        W28919   3.604   2.062   3.398  0.1565  0.4930  0.1368
10066W        W28920   9.275  15.082  11.208  0.2357  0.1924  0.0075
10067W        W28921   9.110  15.674  10.417 -0.0119 -0.2119 -0.0441
10068W        W28922   1.160   1.670  13.599 -0.0992  0.0773 -0.0988
10069W        W28923  12.726   8.539   2.000 -0.0381 -0.0553  0.1687
10070W        W28924   1.861  10.671   3.551 -0.3504  0.1128  0.1082
10071W        W28925   0.035  10.802   0.542 -0.0262 -0.1276  0.2745
10072W        W28926  11.749   6.341   0.859 -0.3332 -0.0756 -0.1154
10073W        W28927   6.982   9.137   2.937  0.2405  0.1374 -0.1873
10074W        W28928  12.904  18.061   3.322 -0.1434 -0.1458 -0.0134
10075W        W28929  17.429  18.647   9.731 -0.0441  0.4196  0.2459
10076W        W28930   6.917   7.267  14.362 -0.0267  0.1420  0.0736
10077W        W28931  14.651   3.156   0.428 -0.0344  0.0193 -0.1141
10078W        W28932   2.200  15.163  12.056 -0.2042  0.1704 -0.0166
10079W        W28933   1.200   6.197  12.785  0.2817 -0.0257 -0.0071
10080W        W28934   0.849   7.554   3.391  0.0354  0.3429  0.0316
10081W        W28935  13.285   4.520   0.779  0.0557  0.3088  0.1180
10082W        W28936  11.724   2.370  13.608 -0.1033  0.0903 -0.2857
10083W        W28937  10.078   7.736   0.758 -0.0411 -0.0210 -0.1529
10084W        W28938   0.917   0.657   0.163 -0.0836 -0.0516 -0.0065
10085W        W28939   1.466  14.559   2.357  0.1475 -0.2317 -0.1342
10086W        W28940  16.600   8.501  13.762  0.0501  0.1413 -0.1677
10087W        W28941   0.944   6.876  14.157 -0.1278  0.0457  0.2156
10088W        W28942  13.383   5.821   4.748  0.0119 -0.0493  0.3588
10089W        W28943  10.382  18.927  11.785  0.4218 -0.0843 -0.0828
10090W        W28944  15.195  11.799   0.836 -0.1088  0.3515  0.0391
10091W        W28945   8.666   2.479  11.298  0.2142  0.3716 -0.1743
10092W        W28946   1.352   5.902   1.780 -0.0212  0.0946 -0.0585
10093W        W28947  13.970   9.183   3.488  0.0170 -0.0612  0.1942
10094W        W28948  16.105   9.633  14.725 -0.1569 -0.0763  0.1505
10095W        W28949   6.478  16.819   3.023  0.1019 -0.0822 -0.1300
10096W        W28950  14.323   7.410  11.325 -0.1891  0.3071  0.0598
10097W        W28951   1.021   1.470  10.463 -0.1504 -0.0887 -0.0238
10098W        W28952  14.599   1.878   0.409  0.1444  0.1903 -0.2927
10099W        W28953   5.833  13.288   0.376 -0.1102  0.0655  0.0640
10100W        W28954   7.755  15.446   4.515 -0.2367 -0.3889 -0.3244
10101W        W28955  12.548   4.074   2.970 -0.0947 -0.3511  0.2967
10102W        W28956  17.800  13.825   0.313  0.2131 -0.0076  0.0905
10103W        W28957  14.850  13.608  12.472 -0.0111 -0.0754 -0.3626
10104W        W28958   4.524   6.053   0.600 -0.2557  0.0767 -0.0613
10105W        W28959  17.832   4.870   1.543 -0.2724  0.0478 -0.0792
10106W        W28960   2.639  17.577   2.412 -0.0774  0.1192 -0.1075
10107W        W28961   2.294   5.674   2.466  0.2648 -0.0206  0.0069
10108W        W28962  14.343   0.208   0.882 -0.1610 -0.1346  0.1510
10109W        W28963   5.279   5.029  11.921  0.0038 -0.1999  0.1950
10110W        W28964  14.053  11.003   4.119 -0.0194 -0.0323 -0.0713
10111W        W28965   7.190  12.235   0.958  0.0050 -0.0188 -0.1866
10112W        W28966   0.485   0.206   1.487  0.1200  0.1477  0.1847
10113W        W28967  10.232  17.830   3.676 -0.0088  0.2073 -0.2660
10114W        W28968  16.068  18.258   0.333  0.0102 -0.1285 -0.1738
10115W        W28969  18.466   9.104  11.009  0.3454 -0.2941  0.0851
10116W        W28970   8.108  11.468  14.634 -0.1074 -0.1565 -0.0114
10117W        W28971  11.440   2.910  13.049  0.0718  0.0686  0.0838
10118W        W28972   5.566  11.238  11.508 -0.0623  0.0520  0.2802
10119W        W28973  16.162   3.186  13.653 -0.0849 -0.0263  0.0134
10120W        W28974  16.520  13.254   0.377 -0.0389 -0.1724  0.2321
10121W        W28975  18.113   2.424   1.027 -0.0504  0.3160 -0.3550
10122W        W28976   9.673  17.586  11.595  0.0623  0.1372 -0.1167
10123W        W28977  13.766  12.639   2.356 -0.0201 -0.3711  0.1661
10124W        W28978   3.628  13.358  11.384 -0.0959  0.2171 -0.1693
10125W        W28979  16.019  17.444   0.694  0.0307 -0.1965  0.1980
10126W        W28980   7.650  14.085   3.433 -0.0835 -0.2179 -0.0222
10127W        W28981  12.931   2.067   3.429  0.1194 -0.0150 -0.2000
10128W        W28982   2.736  15.835  14.399 -0.0274 -0.3113 -0.1875
10129W        W28983  18.584  14.169   0.343 -0.2256  0.1244 -0.4014
10130W        W28984  15.500   9.294  13.539  0.0295 -0.0762  0.1364
10131W        W28985   4.988  18.387   0.281  0.1273 -0.0940 -0.2431
10132W        W28986   7.148  11.954  11.869 -0.0961  0.1088  0.0380
10133W        W28987   3.312   7.734   4.532 -0.0183 -0.0552 -0.0520
10134W        W28988   8.964  11.431   8.861 -0.0729  0.1162 -0.1615
10135W        W28989  16.048   5.086   2.577  0.0840 -0.1405 -0.2205
10136W        W28990   6.173   6.015   5.301  0.0553  0.1231  0.2201
10137W        W28991   6.436   0.324  13.117  0.0102 -0.0563  0.0898
10138W        W28992   8.250   4.451  12.979  0.2895  0.0476 -0.0394
10139W        W28993  17.698   6.891   2.971 -0.1885 -0.1896  0.1857
10140W        W28994   6.430  12.272   2.031  0.0772 -0.1602 -0.2590
10141W        W28995  11.160   8.642  14.276 -0.0002 -0.0584  0.1355
10142W        W28996   8.636   2.368   1.800 -0.1917 -0.0627  0.2434
10143W        W28997   4.212  12.595  14.068 -0.2050 -0.2523  0.2964
10144W        W28998   4.972  14.047  10.588  0.2879 -0.1894 -0.1640
10145W        W28999   6.814   3.834  11.529 -0.0279  0.1520  0.0054
10146W        W29000  16.844   1.950   0.116  0.0339 -0.1660 -0.1042
10147W        W29001   2.927  12.584  11.815 -0.3185  0.0693  0.1913
10148W        W29002   8.842   2.969  11.187 -0.2862 -0.0536 -0.1488
10149W        W29003  10.362  18.191  10.693  0.0964  0.4066  0.1257
10150W        W29004  10.023  12.603   3.091 -0.1130  0.1968  0.1152
10151W        W29005   7.902   4.480   1.244  0.2011 -0.0561  0.1770
10152W        W29006  13.899   4.227  10.744  0.1281 -0.0567  0.0503
10153W        W29007  12.318   3.343  11.451  0.4203 -0.1740  0.1587
10154W        W29008   0.343   4.428   3.556  0.2406  0.0987 -0.1993
10155W        W29009   3.293  17.128   1.343 -0.0357  0.1122  0.1832
10156W        W29010  12.467  16.275   2.948  0.3163  0.2050 -0.3203
10157W        W29011   5.972   8.072  14.691  0.2450 -0.1074 -0.1389
10158W        W29012  16.698   1.147   5.071 -0.0640 -0.1608 -0.3701
10159W        W29013   6.159  15.569  11.074  0.0429 -0.0570 -0.3054
10160W        W29014   8.908  14.092  13.434  0.0545  0.2931 -0.0382
10161W        W29015   4.941   8.125  12.625  0.3727 -0.1241  0.0772
10162W        W29016  12.211   4.326   2.618  0.2393 -0.1345 -0.0347
10163W        W29017   1.895   0.306  13.578 -0.0319  0.0058 -0.0703
10164W        W29018  15.974  13.835   0.771  0.0059  0.3701  0.3446
10165W        W29019  17.057   8.245  14.539  0.2877  0.0991  0.3352
10166W        W29020   8.668  19.132  14.510  0.1010 -0.1678 -0.0728
10167W        W29021   3.797  16.390   1.886 -0.0470  0.0951  0.0496
10168W        W29022   0.039  13.289  10.066  0.2952 -0.0495 -0.1957
10169W        W29023   2.956  12.314   0.695 -0.1364 -0.1901  0.0083
10170W        W29024  15.490  15.378  12.498  0.1861  0.2166  0.1708
10171W        W29025   1.054  17.330   2.941 -0.1679  0.3461 -0.2983
10172W        W29026  16.865  10.973  11.149 -0.2675  0.0539 -0.2168
10173W        W29027   6.255  10.052  14.606  0.1335 -0.0139 -0.3249
10174W        W29028   3.694   5.483  10.721 -0.0645  0.0583  0.0462
10175W        W29029  19.179   7.742  12.760 -0.0878 -0.0902  0.1462
10176W        W29030  15.033  10.902   0.884 -0.0257  0.2341  0.2262
10177W        W29031   3.474  13.975  13.481  0.1544  0.4624  0.0932
10178W        W29032   0.900   0.625  11.297  0.2484 -0.1541 -0.1222
10179W        W29033   1.199   1.687   1.251 -0.0144 -0.1020  0.1195
10180W        W29034   4.476  14.510  12.736  0.2240  0.0306  0.1269
10181W        W29035   8.987   4.347  14.423  0.0296 -0.0838 -0.0878
10182W        W29036  14.024  14.324  11.455 -0.0902 -0.0781 -0.1446
10183W        W29037  16.790  18.655   3.992 -0.0972  0.2739  0.2253
10184W        W29038  12.911  11.982  11.480  0.2228  0.1785  0.2411
10185W        W29039  17.275  11.402   1.684 -0.1176 -0.3677 -0.1326
10186W        W29040  11.562   4.448  12.866  0.1892 -0.2527  0.1473
10187W        W29041  15.905  19.102  11.653 -0.2641  0.3343 -0.2361
10188W        W29042   4.370  15.979   1.235  0.2227 -0.0041 -0.0757
10189W        W29043   4.520   2.623  12.720 -0.1051 -0.3679 -0.0079
10190W        W29044  12.244  12.145  13.897 -0.1145  0.2104 -0.3348
10191W        W29045   5.823  18.360   2.926 -0.4484 -0.3474 -0.0951
10192W        W29046   0.929  13.647   3.959  0.3092 -0.1432 -0.2331
10193W        W29047   5.586   4.966  11.480 -0.0322 -0.3402  0.3507
10194W        W29048   5.419   5.421   0.535 -0.1287  0.2380  0.0395
10195W        W29049   4.370   4.921  11.183 -0.1311  0.1393  0.2090
10196W        W29050  11.476   2.680  11.743 -0.0739 -0.0626  0.2349
10197W        W29051   6.571   6.882   2.880  0.1629  0.0986  0.1090
10198W        W29052   5.573   5.321  12.701 -0.2939  0.0668  0.0378
10199W        W29053  16.400   0.291   0.342 -0.2656  0.0579  0.0703
10200W        W29054   4.630  15.912   2.793 -0.2645  0.2046 -0.2631
10201W        W29055   9.325  14.755  13.875  0.0828  0.2172 -0.2163
10202W        W29056   1.659  11.407   1.489 -0.0905  0.2135  0.0187
10203W        W29057   1.017  16.829  13.657  0.1153  0.3596 -0.2687
10204W        W29058  14.809  15.461   3.569  0.0369 -0.0095  0.1747
10205W        W29059   6.603   1.543   1.423  0.0174 -0.3212  0.1891
10206W        W29060  12.203   0.722  14.640  0.0171 -0.0665  0.1514
10207W        W29061  15.691  15.048  14.399 -0.1375 -0.0323  0.1402
10208W        W29062  15.263   7.147   0.082 -0.0625 -0.0804 -0.0325
10209W        W29063   2.831   0.207   3.414 -0.0597  0.0204 -0.1157
10210W        W29064  15.372   1.345   1.945  0.4116  0.2427 -0.1086
10211W        W29065   7.138   7.580  12.564 -0.0015 -0.3997  0.0283
10212W        W29066  17.293   1.956   3.216  0.1126 -0.1967 -0.1089
10213W        W29067  18.114  12.768   3.197  0.1178  0.0355  0.3717
10214W        W29068  15.282  15.025   9.636 -0.1218  0.0273 -0.1984
10215W        W29069  17.801   3.951   0.680 -0.0266 -0.1434 -0.1125
10216W        W29070   3.526  15.741  11.697  0.0598  0.0824 -0.1993
10217W        W29071  10.511   3.087  12.112  0.1958 -0.1594  0.3344
10218W        W29072   1.175   3.583   0.094  0.1786 -0.1276  0.2937
10219W        W29073  11.204  13.209  10.386  0.1337  0.1172 -0.0709
10220W        W29074  17.927   2.736  11.233  0.1508  0.1127 -0.1882
10221W        W29075   2.400   3.290  14.561  0.0167  0.1826 -0.0392
10222W        W29076  14.176  18.315   4.268  0.1634  0.2599 -0.1036
10223W        W29077  15.729   5.912   0.069  0.2417 -0.1139  0.0252
10224W        W29078   9.242   5.675  14.476 -0.1176 -0.4148 -0.0135
10225W        W29079   8.723   1.114   4.507 -0.1857  0.1961  0.1929
10226W        W29080  16.091   8.253  10.795  0.1306  0.2052 -0.0226
10227W        W29081  18.088  13.369   2.296  0.2359 -0.0866  0.3412
10228W        W29082  15.500  16.653   4.225 -0.1924 -0.2275  0.0144
10229W        W29083  17.632   2.664   3.502  0.1425  0.1080  0.0323
10230W        W29084   0.501  14.791  14.486 -0.1325  0.1052  0.1795
10231W        W29085  15.771   1.100  13.305  0.0491 -0.1681  0.2619
10232W        W29086  12.766  18.375  14.162 -0.0297  0.2196 -0.0726
10233W        W29087   5.789   7.980  10.651 -0.1518 -0.1396 -0.1679
10234W        W29088  17.644   3.896  12.284  0.1680  0.1499 -0.0703
10235W        W29089   1.120  18.739   1.649  0.0267 -0.4783 -0.3598
10236W        W29090   4.504  14.607  13.470 -0.1468  0.0915  0.0146
10237W        W29091  11.887  15.605   2.458 -0.2702 -0.1535  0.1656
10238W        W29092  17.374   1.529  14.135 -0.1904 -0.0562  0.1366
10239W        W29093   3.740   9.219  11.466 -0.0331 -0.1176 -0.0856
10240W        W29094  16.997  19.181  10.940  0.1722  0.0531  0.3365
10241W        W29095  13.894  13.750  14.449  0.4572 -0.0098 -0.3008
10242W        W29096   2.633  17.466   2.902 -0.2204 -0.0971  0.1088
10243W        W29097  12.513  10.054   0.352 -0.0868 -0.1966 -0.1855
10244W        W29098   3.126  14.668  14.125 -0.0804 -0.0527  0.0338
10245W        W29099  18.310  13.614   1.203 -0.2285 -0.3194 -0.0758
10246W        W29100  11.577  15.066   5.256  0.0046 -0.0536  0.1659
10247W        W29101  12.046  13.922   5.108  0.2394 -0.3127 -0.1030
10248W        W29102   6.890   5.082  13.153  0.1052 -0.0841  0.2275
10249W        W29103  12.897   8.097   1.743 -0.0093  0.1450 -0.1484
10250W        W29104   6.163   9.003   3.934  0.1744  0.1645 -0.2706
10251W        W29105  11.117   0.969   4.092  0.0580 -0.0142 -0.0246
10252W        W29106  10.237  11.992  13.639 -0.2020  0.0730  0.1942
10253W        W29107   9.506  10.793   0.765 -0.1637 -0.2380 -0.2547
10254W        W29108   7.230   1.803  11.624  0.2915 -0.0965  0.2683
10255W        W29109   1.306  10.425  12.116  0.1808  0.0508 -0.0072
10256W        W29110   8.050   1.783  12.958 -0.0839  0.2779  0.0356
10257W        W29111   4.907  15.974  14.180 -0.2792  0.5565  0.0745
10258W        W29112  18.792  16.475   4.333 -0.1050 -0.1077  0.0668
10259W        W29113  15.974  16.930  14.215  0.3271 -0.0139  0.4311
10260W        W29114   9.831  15.499   3.665 -0.2878 -0.0096  0.2051
10261W        W29115   8.334   9.320   3.254 -0.0589  0.0548 -0.0035
10262W        W29116   3.669  15.655  10.701 -0.2034 -0.0107  0.3161
10263W        W29117   0.621  10.837   0.434 -0.0845  0.2322  0.0604
10264W        W29118  17.473  18.453  11.513  0.0235 -0.2811 -0.1143
10265W        W29119  15.361   6.276  12.329 -0.3191 -0.0918  0.0412
10266W        W29120  14.374   2.213   3.700 -0.1431 -0.0965 -0.0284
10267W        W29121  13.666   8.430   3.353  0.1480  0.0123 -0.3168
10268W        W29122   8.688   8.791   2.435 -0.3990  0.2296  0.2479
10269W        W29123  14.568  16.730   2.062  0.4068 -0.1591 -0.2603
10270W        W29124   9.445  14.317  11.594  0.0050  0.0376 -0.0309
10271W        W29125   4.956   6.845   1.150 -0.0742  0.1543  0.1327
10272W        W29126  10.048   7.194  12.543  0.0914 -0.2952  0.4633
10273W        W29127   3.275   8.138   0.865 -0.1522 -0.3795 -0.1644
10274W        W29128   7.100   7.060  11.904  0.0513 -0.0048 -0.0536
10275W        W29129   0.426   2.738  11.532 -0.1781 -0.1030 -0.1856
10276W        W29130   1.147   8.081  13.532 -0.2478  0.1293  0.1077
10277W        W29131  11.863   5.882  12.925 -0.0075  0.0035 -0.1248
10278W        W29132   3.539   7.968   3.747  0.0588  0.0006  0.0063
10279W        W29133   3.138  12.666  12.650  0.0218 -0.0001 -0.1957
10280W        W29134   7.637  18.079  11.331  0.0867 -0.0279  0.6800
10281W        W29135   5.748  12.790  14.334 -0.1583  0.0100 -0.4143
10282W        W29136   8.658   7.476  13.551  0.4234  0.0700 -0.1573
10283W        W29137   5.224   1.474   2.085  0.4012  0.2099 -0.2432
10284W        W29138   3.655   2.513  10.688  0.0285 -0.0986  0.1060
10285W        W29139   0.573   7.775   0.058  0.0827 -0.0747 -0.0147
10286W        W29140   6.952   0.913  10.579 -0.0239  0.0395  0.3029
10287W        W29141   8.795  18.784   2.819 -0.1753  0.1112 -0.0520
10288W        W29142  17.312  11.195   3.423 -0.1348 -0.0176  0.0019
10289W        W29143   2.763   7.802   1.543  0.0174 -0.2945 -0.3562
10290W        W29144  12.989  12.080   3.828 -0.0556 -0.0382 -0.0107
10291W        W29145  17.623  19.055  14.470  0.0536 -0.0266  0.0602
10292W        W29146   8.202   5.015  12.241  0.2055 -0.0844 -0.1064
10293W        W29147  14.681   8.036  14.141 -0.0391 -0.0660 -0.3241
10294W        W29148   6.922  14.713   3.868  0.0915 -0.1144  0.2140
10295W        W29149   1.747   8.378  14.308 -0.0948  0.2539  0.0979
10296W        W29150  14.610  14.320   2.085 -0.2113  0.3635  0.2084
10297W        W29151   4.625   0.457  11.596  0.0805 -0.0638 -0.1853
10298W        W29152   6.144  10.824  11.744  0.2420  0.0276  0.1229
10299W        W29153   7.846  12.009  13.266  0.0440  0.1853  0.2156
10300W        W29154   5.819   2.811  11.954 -0.1432 -0.1287  0.0905
10301W        W29155  12.046  15.297   0.877  0.0435 -0.0709  0.1443
10302W        W29156   4.401   2.739  13.851 -0.3391  0.3748 -0.4047
10303W        W29157  16.333   8.209  12.716 -0.0391  0.0354 -0.0047
10304W        W29158   8.486   2.873  14.449  0.2659 -0.5314 -0.0645
10305W        W29159  16.378  17.630   1.085 -0.0469 -0.2550 -0.0867
10306W        W29160  19.178   2.468  11.425  0.0316  0.0883 -0.0623
10307W        W29161   5.095   1.958   0.182  0.0402  0.2997 -0.2884
10308W        W29162   5.987  14.026  13.222  0.3610  0.1254  0.1389
10309W        W29163  14.763  12.921  14.164 -0.1066  0.2025  0.0762
10310W        W29164   3.992   1.177   0.256  0.1076 -0.0250 -0.0866
10311W        W29165  13.580   0.581  11.551 -0.0284 -0.0699 -0.0687
10312W        W29166  18.158  14.893   0.831  0.0135 -0.2066 -0.2109
10313W        W29167  14.199   3.517   2.025  0.2567 -0.0457  0.0781
10314W        W29168  11.161   5.054  12.115  0.0463 -0.1553 -0.3058
10315W        W29169   9.393  18.453  12.494 -0.0892  0.1397 -0.2169
10316W        W29170   9.698  17.211  13.267  0.0880  0.1567  0.0817
10317W        W29171  13.751  10.412  13.749  0.0557 -0.1857  0.1626
10318W        W29172  11.342  12.928  14.247  0.0388  0.1733 -0.0044
10319W        W29173   0.885   8.720   5.490  0.1153  0.0644 -0.0872
10320W        W29174   2.528  15.106   1.073 -0.0993  0.1319 -0.1696
10321W        W29175   5.812   5.723  13.639 -0.1164 -0.1075 -0.0516
10322W        W29176   1.994   5.027   9.888 -0.0566  0.3315  0.0241
10323W        W29177  18.368   1.140   0.608  0.0950  0.5731  0.1723
10324W        W29178   0.529  11.566   3.870  0.1978 -0.1371 -0.0389
10325W        W29179   3.090   5.487  12.414  0.1554 -0.0603 -0.2113
10326W        W29180   4.760  13.580  13.213  0.2390  0.0507  0.2852
10327W        W29181  13.197   2.082  12.201 -0.1000  0.1528  0.1158
10328W        W29182  17.456  18.888   3.090  0.2052  0.2366  0.0030
10329W        W29183   6.206   4.469   0.284 -0.1010  0.4500 -0.0281
10330W        W29184  18.487  15.462  13.552 -0.0624  0.0543 -0.0550
10331W        W29185   0.321   2.896   0.150 -0.0829 -0.1099  0.2167
10332W        W29186  11.368   6.814   1.074 -0.1949  0.1443 -0.1625
10333W        W29187   2.344   6.278  10.495  0.2718  0.0318 -0.2977
10334W        W29188  10.092   2.243   1.759 -0.0341 -0.0730 -0.3165
10335W        W29189  13.750   7.165   3.079  0.2600  0.3122 -0.1291
10336W        W29190   4.380   7.738   3.555 -0.1042  0.2890 -0.0885
10337W        W29191   1.844   1.728  11.014  0.1647 -0.1654  0.0520
10338W        W29192   7.936  18.201  10.982  0.6320 -0.3853 -0.0278
10339W        W29193  19.043  14.314  12.045  0.0997 -0.2615  0.3977
10340W        W29194  10.745  10.497   2.488  0.0683  0.0921  0.1246
10341W        W29195  16.340  16.854   2.077 -0.2959  0.1832  0.0172
10342W        W29196  15.957  10.896  12.656  0.2585  0.0316  0.2146
10343W        W29197   2.132  16.148  11.460  0.0557  0.1639 -0.1510
10344W        W29198   6.431  16.522  12.796  0.4000 -0.3648 -0.4504
10345W        W29199  15.729  12.246   2.099  0.1046 -0.1576  0.1528
10346W        W29200   8.173  14.353   0.801 -0.2233 -0.0961 -0.1404
10347W        W29201   5.478   7.774  14.224  0.2105 -0.1169 -0.2078
10348W        W29202   3.317  16.868   3.285 -0.2025 -0.2543  0.0208
10349W        W29203   2.449  10.506  11.628 -0.1790  0.1705  0.1732
10350W        W29204   4.390   0.568  11.143 -0.2254 -0.0676 -0.1856
10351W        W29205   3.534   8.770   4.273 -0.0245  0.0572 -0.1741
10352W        W29206   8.704   6.696   3.500  0.7320 -0.1943  0.2191
10353W        W29207  14.549   3.994  10.833  0.0767  0.1092 -0.0054
10354W        W29208  10.072   4.983   1.836  0.1606 -0.1729  0.4136
10355W        W29209   3.282   0.692   1.175  0.0574  0.1317  0.0125
10356W        W29210   6.229   7.695   1.623 -0.0633  0.1055 -0.1438
10357W        W29211  18.775  13.753   1.227  0.1480 -0.5237 -0.0755
10358W        W29212  13.238   7.125   2.955  0.0554 -0.0429  0.1012
10359W        W29213  10.742  12.354  14.478 -0.3573  0.0610 -0.0195
10360W        W29214  13.838  16.257   3.302 -0.2586 -0.0194 -0.3377
10361W        W29215   0.816  10.044  13.875  0.1210 -0.2529 -0.1760
10362W        W29216  18.388   4.548   2.711  0.2967 -0.2857 -0.0690
10363W        W29217   6.100  14.920   4.022 -0.0553 -0.0073 -0.1162
10364W        W29218   3.189   3.379  13.931 -0.3364  0.2391 -0.0606
10365W        W29219  18.086  18.122   2.335 -0.0885 -0.3834  0.0448
10366W        W29220   7.582   3.862  12.079 -0.2132 -0.1279 -0.1569
10367W        W29221  13.531  15.580   4.018 -0.0807  0.1309  0.0111
10368W        W29222   4.327  17.433  11.305 -0.0276 -0.0612  0.2244
10369W        W29223  12.299   0.560   4.031 -0.0131  0.0767  0.0357
10370W        W29224   4.616   2.892   4.901 -0.0684  0.0817 -0.3139
10371W        W29225   1.484   3.760   0.538 -0.1084  0.2109  0.0003
10372W        W29226  12.185   8.021   3.869 -0.2764 -0.2123 -0.2291
10373W        W29227  13.064   3.685  11.674 -0.1004 -0.1274 -0.1483
10374W        W29228  18.292   0.438   3.041 -0.2142 -0.2516  0.0889
10375W        W29229   1.416   5.226  11.315 -0.0432 -0.1000 -0.0480
10376W        W29230  13.717   2.176  13.814  0.0849 -0.1893 -0.0504
10377W        W29231  10.119  14.689  11.106 -0.1481  0.2416  0.0194
10378W        W29232   2.755  10.048   5.006 -0.3079 -0.0537 -0.0048
10379W        W29233   9.852  10.232   2.077 -0.1076  0.0575  0.1816
10380W        W29234   5.604  18.910   0.525  0.3024  0.2116 -0.0571
10381W        W29235   6.705   4.126   4.280  0.1837  0.3738  0.2523
10382W        W29236  16.816   5.191  12.120 -0.3242  0.4368 -0.1264
10383W        W29237   0.308   0.582  13.565 -0.0157  0.0400 -0.0361
10384W        W29238   5.183   2.155  12.394  0.0707 -0.3979  0.0372
10385W        W29239  12.713   5.556  12.627 -0.2096 -0.1021  0.0259
10386W        W29240  12.669  10.751  10.727 -0.1529  0.0344  0.2744
10387W        W29241  14.346   0.599  11.902  0.2262  0.1032 -0.0237
10388W        W29242   8.595  17.609  11.404 -0.1180 -0.2011  0.0666
10389W        W29243   3.053   9.250  13.276  0.1362  0.2071 -0.0441
10390W        W29244   6.219  16.143  11.053  0.0238  0.1836  0.0675
10391W        W29245   3.881   8.164   1.614 -0.3524  0.1524 -0.1391
10392W        W29246  17.282   6.103  14.062 -0.1672  0.1107 -0.1192
10393W        W29247  14.113  18.026   5.368 -0.0241 -0.3038 -0.0926
10394W        W29248  18.315   0.722   2.569  0.1426  0.1359 -0.2968
10395W        W29249   0.947   6.875   3.782 -0.2947 -0.0841  0.0427
10396W        W29250  15.183  12.626  12.749 -0.3362  0.3145 -0.0840
10397W        W29251  18.071   2.402   3.636 -0.2105 -0.1200 -0.0681
10398W        W29252   7.296  16.809  10.057  0.0378  0.0632 -0.1474
10399W        W29253   0.045  11.667   3.197 -0.1463 -0.0287 -0.3151
10400W        W29254  14.930   0.052   3.327 -0.1694  0.1427  0.0279
10401W        W29255   6.936  11.993  11.417  0.1192  0.0161  0.0301
10402W        W29256   4.986   0.489   2.801  0.1140  0.2639 -0.0636
10403W        W29257  16.920  11.341   0.760 -0.0253 -0.2258  0.1347
10404W        W29258  12.924  16.400   2.669  0.2913 -0.0149  0.0387
10405W        W29259   1.549  11.463  11.954 -0.0981  0.0993 -0.1056
10406W        W29260  14.234   1.278  14.692 -0.0819  0.0684 -0.0258
10407W        W29261  16.865   8.004  12.016 -0.2220 -0.3273 -0.2953
10408W        W29262   6.163   5.826  13.350 -0.1527 -0.1187  0.0152
10409W        W29263   4.307   1.135   2.761  0.1754 -0.1483  0.0388
10410W        W29264   3.898  13.815   5.290  0.3074  0.0841  0.0303
10411W        W29265   1.903   0.125  13.094  0.4185 -0.1570  0.2867
10412W        W29266  18.641   7.236   0.308 -0.2106 -0.0003  0.0379
10413W        W29267   5.417  11.670   3.652 -0.3020  0.2682 -0.0942
10414W        W29268   2.029  19.044   1.740  0.2608 -0.2162 -0.1665
10415W        W29269  15.779   2.812   3.700 -0.1521 -0.0928 -0.3184
10416W        W29270   9.115  12.661   0.096  0.1563  0.0952 -0.2047
10417W        W29271   4.343   7.664   2.274  0.1988  0.3431  0.3243
10418W        W29272  14.903  12.156  10.633 -0.1012 -0.2838  0.2603
10419W        W29273   8.251  15.886  11.873 -0.1142 -0.0745  0.1404
10420W        W29274   5.737  10.100   2.578  0.0678  0.2919  0.1755
10421W        W29275  11.776  15.024   3.808  0.3597  0.0318  0.2588
10422W        W29276   7.295   9.713  10.711  0.1343  0.0895  0.2032
10423W        W29277  18.476   9.299  13.612  0.0598  0.1873 -0.0360
10424W        W29278  15.998   7.637   3.887  0.0963  0.1272  0.2908
10425W        W29279   6.768   2.227  14.210  0.1121  0.0936 -0.3324
10426W        W29280   7.457   8.885  12.850  0.0365 -0.0581  0.2580
10427W        W29281   8.881  10.750   3.730  0.0066 -0.0178  0.1594
10428W        W29282   8.582  10.887  12.847  0.1642  0.0148  0.0305
10429W        W29283  12.957  11.426  11.950  0.0529 -0.2387  0.0092
10430W        W29284  12.806   8.251  11.378 -0.2202 -0.0997 -0.0502
10431W        W29285  11.573  14.457  12.553 -0.1346 -0.1170  0.1479
10432W        W29286  15.709  12.336  13.827 -0.3208 -0.0505  0.0468
10433W        W29287   1.588   2.962   2.898  0.1978  0.0702  0.0352
10434W        W29288   6.392   4.340  13.143  0.0640  0.0783 -0.1764
10435W        W29289  15.575  14.007  11.710  0.0848  0.1289 -0.1284
10436W        W29290   1.692   2.102  10.725  0.2054 -0.1849 -0.0127
10437W        W29291  11.387   0.851  11.794 -0.4781  0.3306  0.0707
10438W        W29292  11.329   2.782   0.033  0.3299 -0.0996 -0.3949
10439W        W29293   3.784  17.720  10.760 -0.1029  0.2782  0.0792
10440W        W29294   6.616  10.511   0.801 -0.0835  0.0898 -0.3435
10441W        W29295  13.323   5.492  14.478 -0.0725 -0.1332  0.1199
10442W        W29296  16.357   2.079   4.118 -0.0155  0.0731 -0.2509
10443W        W29297  14.270   0.092   2.267  0.1966  0.3089 -0.0605
10444W        W29298   6.895   6.234  13.258 -0.1954 -0.0471 -0.3661
10445W        W29299  10.489   1.812  12.486  0.0041 -0.4349 -0.4586
10446W        W29300   1.285  17.015  10.544 -0.2494 -0.0532  0.1930
10447W        W29301  13.211   6.687  14.315  0.0129  0.0333 -0.0833
10448W        W29302   2.446  16.806  13.017 -0.2115 -0.1923  0.0587
10449W        W29303  12.043  16.027   1.470 -0.0589 -0.3359  0.0972
10450W        W29304  15.059  10.097   0.063  0.0819  0.2174 -0.2762
10451W        W29305  14.364  13.502  13.484 -0.0679 -0.0948 -0.2359
10452W        W29306   4.632   0.280  10.791 -0.1160  0.0699  0.0483
10453W        W29307   0.867   1.773   1.971 -0.0853  0.0198 -0.1034
10454W        W29308  10.068  18.509  12.060 -0.4421  0.3618  0.2786
10455W        W29309  10.713   2.521  10.261  0.3523  0.0179  0.0949
10456W        W29310  10.033  19.036   0.403  0.0716  0.0991 -0.0730
10457W        W29311  12.299   6.849  13.813 -0.0370 -0.1336  0.0801
10458W        W29312  15.814   9.773   9.588  0.3801  0.1962 -0.0866
10459W        W29313   2.977  12.276  13.276 -0.1849  0.1337  0.0495
10460W        W29314   8.115  12.695   2.424  0.0005 -0.1103  0.0573
10461W        W29315  18.484   9.729  10.647 -0.2643  0.1377  0.0562
10462W        W29316  12.058  14.578  12.628  0.2879  0.3790  0.0258
10463W        W29317  12.943  17.852  14.069  0.1104 -0.3854  0.0223
10464W        W29318   2.511  10.100   0.381 -0.2572  0.2754  0.3588
10465W        W29319   3.527   4.850   3.846  0.0863  0.2350  0.2220
10466W        W29320   1.254  17.792   0.598  0.1324  0.3944 -0.1283
10467W        W29321  14.185  15.130  11.393 -0.1518  0.1985 -0.1737
10468W        W29322   4.193  14.870  11.962  0.0531  0.0352  0.0037
10469W        W29323   8.190  13.653   2.672  0.1658  0.0796  0.2084
10470W        W29324   7.226   9.049   0.923  0.0852 -0.3243 -0.1106
10471W        W29325   5.275  13.629   3.996 -0.0124 -0.1846  0.0730
10472W        W29326   9.350   9.954  10.477  0.0728 -0.1112  0.0763
10473W        W29327   8.024   7.180  12.151  0.0460 -0.0109  0.0051
10474W        W29328   2.010   5.258  11.913  0.0949 -0.1376  0.0519
10475W        W29329  18.042   6.860  13.657  0.0866  0.0216  0.0604
10476W        W29330  10.727   9.532  11.887 -0.1508 -0.0691 -0.1499
10477W        W29331   1.437  18.210   0.983  0.0073  0.2869  0.2067
10478W        W29332   3.488   0.940  13.370 -0.1437 -0.1267 -0.0221
10479W        W29333  11.832  12.573  13.370 -0.3350  0.0449  0.0812
10480W        W29334   8.635   0.692   2.355  0.4579 -0.1153  0.0427
10481W        W29335  10.156   7.931  13.354  0.0809  0.2920 -0.2143
10482W        W29336   7.177  12.275  12.214 -0.0491 -0.0438 -0.1871
10483W        W29337   2.173   3.348  11.395 -0.2400  0.2713  0.1388
10484W        W29338  17.237  12.970  13.254 -0.0033  0.2761 -0.2364
10485W        W29339   6.260  16.636  14.016 -0.0271 -0.1075 -0.2346
10486W        W29340  16.365   2.595   0.170  0.0359  0.2420  0.1486
10487W        W29341   0.812   7.410  10.673 -0.0843  0.1099  0.0193
10488W        W29342  15.997  16.940  13.276  0.0643 -0.0957 -0.0156
10489W        W29343   1.320  18.321  14.134  0.2092 -0.1627  0.0960
10490W        W29344   9.193  13.541  13.302 -0.2398 -0.1897  0.1886
10491W        W29345  11.911  11.649   1.900 -0.3965  0.1185  0.0121
10492W        W29346   7.755   7.885  11.409 -0.1662 -0.0217 -0.2882
10493W        W29347  18.561   7.150  11.088 -0.0196  0.6165  0.1295
10494W        W29348   8.158   4.280   0.873  0.1749 -0.1421  0.0448
10495W        W29349  18.147   9.064   5.212  0.0718 -0.1234 -0.0725
10496W        W29350   8.174  18.063  12.920 -0.2715  0.1821 -0.0997
10497W        W29351  10.896   0.515   4.178  0.2008 -0.1167 -0.0106
10498W        W29352  15.148   8.272   2.559 -0.1157 -0.1894 -0.0078
10499W        W29353  16.089   9.533   2.129  0.1477 -0.0904 -0.1586
10500W        W29354  13.230  15.413   4.400  0.0760 -0.2319  0.0285
10501W        W29355   9.953   7.298   1.653  0.0909 -0.1572 -0.0243
10502W        W29356   5.928   5.772   4.370  0.4070 -0.2456  0.2733
10503W        W29357  12.570   6.859   1.644  0.0114 -0.0755  0.0041
10504W        W29358   3.764  13.466  14.297 -0.1344 -0.0668  0.0897
10505W        W29359   4.466  10.916   3.311 -0.1737 -0.1217 -0.1827
10506W        W29360  10.302  12.749  12.733  0.2622 -0.0851 -0.2116
10507W        W29361   6.802   6.037   3.718  0.0563  0.0204  0.2194
10508W        W29362  18.193   1.147   4.043 -0.0866 -0.0641 -0.0598
10509W        W29363  12.167  16.646  13.970  0.4396 -0.1195 -0.0863
10510W        W29364  10.568   7.385   2.700  0.1542  0.1845  0.0242
10511W        W29365   6.324   1.133   1.565  0.1667  0.2127 -0.0802
10512W        W29366   7.547   4.766  14.406  0.0959 -0.0144 -0.1659
10513W        W29367   9.106   7.131  12.933 -0.1602  0.5008 -0.0404
10514W        W29368   0.982  15.790   4.793 -0.2019 -0.0319 -0.0110
10515W        W29369   9.605  16.254  12.702 -0.0667 -0.2011 -0.1417
10516W        W29370   6.951  12.396  11.693 -0.0594  0.0667  0.0663
10517W        W29371  11.063   5.963   0.014 -0.0681 -0.1035  0.0463
10518W        W29372   9.476   5.728   2.548  0.1962 -0.4903  0.0134
10519W        W29373  15.539   8.454   1.869  0.0381  0.1688 -0.2880
10520W        W29374   7.364  19.042   0.554 -0.1462 -0.0565 -0.1734
10521W        W29375   6.706  18.001  13.087  0.1896  0.3149  0.2410
10522W        W29376   8.411   5.205   4.591 -0.1306  0.1226  0.0131
10523W        W29377   2.739  12.782   9.853 -0.1209 -0.2081  0.0834
10524W        W29378  18.849   7.680   3.798 -0.0059 -0.3967 -0.0399
10525W        W29379  11.567   4.591   1.635  0.1663  0.1335 -0.1928
10526W        W29380  16.301  14.883   2.011  0.2106 -0.0466  0.0772
10527W        W29381   5.361   1.396   4.568 -0.2780 -0.1151 -0.1058
10528W        W29382  16.506   8.937  14.418 -0.1108  0.2001 -0.0261
10529W        W29383  13.996  15.086  12.411  0.1942 -0.1270 -0.1997
10530W        W29384  18.850  15.742   0.890 -0.0334  0.2177 -0.0636
10531W        W29385  14.198  10.277   0.366 -0.0120 -0.0051  0.0692
10532W        W29386  13.870   1.217  11.447 -0.0153 -0.0595 -0.0227
10533W        W29387  15.500   9.431   2.149  0.2355  0.0812 -0.0627
10534W        W29388   5.766   3.109   5.166 -0.1568 -0.1222  0.1726
10535W        W29389  11.757  13.502  11.872  0.0252  0.0722  0.0694
10536W        W29390  16.058  17.853  14.615  0.1477 -0.3657 -0.2501
10537W        W29391  18.413   0.220   2.625 -0.2044 -0.2162 -0.0597
10538W        W29392  18.589   0.371  11.118  0.0944  0.1204 -0.2924
10539W        W29393   7.430  12.964   1.001  0.0911 -0.4573  0.1196
10540W        W29394  14.515  16.916   3.945  0.0523 -0.1151 -0.2352
10541W        W29395   5.259   8.555   1.864  0.2147 -0.2106  0.0920
10542W        W29396  11.463  18.699   3.611 -0.0360  0.0093  0.0792
10543W        W29397  15.117  16.342   4.369  0.4243  0.0370 -0.2549
10544W        W29398  10.490  15.102  12.667 -0.0293 -0.0103 -0.0125
10545W        W29399   6.538  18.550   1.009 -0.0187  0.0727  0.0744
10546W        W29400  18.438   8.800  14.428  0.2443  0.0797  0.2977
10547W        W29401   9.130   5.205   2.756 -0.0238 -0.1965  0.2026
10548W        W29402   3.226   0.261   0.891 -0.1621  0.0398  0.0415
10549W        W29403  18.203   1.193  12.987  0.2392 -0.1359 -0.0447
10550W        W29404  15.914   0.359   0.475  0.0703 -0.3497  0.0493
10551W        W29405  12.604   6.822  11.129 -0.2124  0.0849 -0.0326
10552W        W29406   7.494   7.697   3.877 -0.1842 -0.0447 -0.0448
10553W        W29407  16.101  17.265  14.639  0.0664 -0.1435 -0.0027
10554W        W29408  11.935   9.759  14.408 -0.2979 -0.0089  0.0614
10555W        W29409   7.846  12.283  11.120 -0.1178  0.2449 -0.0960
10556W        W29410   2.501  10.863   1.980  0.0431 -0.1975 -0.4953
10557W        W29411  12.661   9.065  13.655  0.2035 -0.0719 -0.1802
10558W        W29412  16.184   6.254   3.692 -0.1345  0.0217 -0.1468
10559W        W29413  13.401   2.498  10.805 -0.2633 -0.0621 -0.1368
10560W        W29414   7.128  13.874   3.366 -0.1782  0.1317  0.0760
10561W        W29415  19.126  17.561  12.340  0.0595 -0.3142 -0.0381
10562W        W29416   2.940   1.898   1.453  0.1032 -0.0069 -0.1707
10563W        W29417   5.083   1.908  13.905 -0.3706  0.0833 -0.3741
10564W        W29418   7.480  10.922  10.940 -0.1843  0.1380 -0.0356
10565W        W29419   1.493  14.250  13.023  0.1249 -0.0532 -0.2224
10566W        W29420  19.061  12.150   3.063  0.0511 -0.2725  0.1395
10567W        W29421  10.212  17.375  12.855  0.0461  0.2084  0.3792
10568W        W29422  14.161   8.050  13.116 -0.0983  0.1739 -0.0734
10569W        W29423   3.549   5.317  12.500 -0.2684 -0.1319 -0.1133
10570W        W29424  17.717  18.192   3.562 -0.0046  0.1102  0.0382
10571W        W29425   1.085   5.923  13.584 -0.0454 -0.1930  0.4639
10572W        W29426   1.321  15.967   4.406 -0.0788 -0.0412  0.0164
10573W        W29427  11.027   2.657  13.282  0.1744  0.0780 -0.1383
10574W        W29428   8.887  16.717   1.939 -0.0594  0.1430  0.1489
10575W        W29429  15.510  17.504   2.108  0.0990 -0.1106  0.0572
10576W        W29430   7.743  12.829  13.318 -0.0915  0.2189 -0.0992
10577W        W29431   5.815   7.133   5.063 -0.0460  0.1678  0.0595
10578W        W29432   8.553  15.664  11.287  0.0273 -0.0922  0.3305
10579W        W29433  12.116  10.353   0.251 -0.3146 -0.0867  0.1280
10580W        W29434   4.444   7.068  11.820  0.1467  0.1002  0.0503
10581W        W29435   0.764  18.921  12.706  0.1750 -0.3458 -0.0075
10582W        W29436   7.785  13.344  14.651 -0.0737 -0.1653 -0.2222
10583W        W29437  14.931  18.820  11.367 -0.3033  0.1953  0.1501
10584W        W29438  13.038  14.119   2.407  0.0158  0.1197  0.0748
10585W        W29439   7.077  14.330   3.554 -0.1027  0.1733  0.0602
10586W        W29440   4.085   3.250  12.248 -0.3009  0.0941 -0.0009
10587W        W29441  16.181   2.590  12.548 -0.2758  0.1288 -0.1233
10588W        W29442   2.689   2.309   3.005  0.0667  0.0661  0.0901
10589W        W29443  12.038  11.482   3.456  0.1637 -0.0490 -0.1883
10590W        W29444   4.321   6.006  14.460 -0.0824 -0.1872  0.0671
10591W        W29445  12.877  12.368   1.790 -0.1124 -0.2782 -0.0005
10592W        W29446  13.664   2.542   3.885  0.0198  0.3323  0.1966
10593W        W29447   4.606   7.971  14.388  0.1462  0.2854 -0.1087
10594W        W29448   1.008   5.176  14.368 -0.0945 -0.0453 -0.0614
10595W        W29449   5.267  10.259   3.407  0.0165  0.3709  0.4292
10596W        W29450   3.379   3.917  10.511 -0.1814 -0.0184 -0.0680
10597W        W29451   4.384   1.029   1.756  0.1938  0.2304  0.1587
10598W        W29452   1.050  10.090  10.722 -0.0429  0.1755  0.3564
10599W        W29453   5.938   4.112   0.133  0.0979  0.0449 -0.0809
10600W        W29454   8.570   4.300  11.534 -0.1132  0.2239 -0.4104
10601W        W29455   9.408  10.930   2.701  0.2273  0.0132  0.0193
10602W        W29456  18.582  17.682  12.283  0.1596 -0.0830 -0.0020
10603W        W29457   8.387   2.500   0.083  0.1679 -0.0794  0.0242
10604W        W29458   1.155  13.923  13.664 -0.0745 -0.1089  0.3517
10605W        W29459   3.460   8.577  11.981  0.2691 -0.1637 -0.1105
10606W        W29460  11.098  15.127   0.336 -0.4658  0.0580 -0.2338
10607W        W29461   3.101  13.917  11.040 -0.1211  0.0473  0.0741
10608W        W29462  16.182   1.022  10.513  0.0931 -0.1001  0.4179
10609W        W29463  14.262   2.436   1.302  0.0178  0.5207  0.0735
10610W        W29464   5.520  15.149  10.816  0.0426  0.1992 -0.1124
10611W        W29465  16.850   8.057  11.119 -0.1302  0.0528  0.2095
10612W        W29466  15.898   3.497   3.134  0.0967  0.2990 -0.4648
10613W        W29467  12.789  11.638   2.580  0.1078 -0.5043 -0.0798
10614W        W29468   4.821  15.712   0.655 -0.0068 -0.0743 -0.0910
10615W        W29469  12.256  17.686   3.987  0.0942  0.3485 -0.2160
10616W        W29470  10.084   4.445   1.994 -0.0840 -0.2242  0.1399
10617W        W29471  17.004  19.038   2.962  0.0081  0.1588 -0.1950
10618W        W29472  15.415   9.274  14.128  0.0963  0.2651 -0.0958
10619W        W29473   6.152  14.489   0.422  0.0985  0.0581  0.0892
10620W        W29474   9.247  16.905  12.414  0.0730  0.1084 -0.1960
10621W        W29475  16.974  10.363   3.083 -0.3619  0.1152 -0.0259
10622W        W29476   4.009   7.301   1.440  0.1322 -0.0948 -0.1678
10623W        W29477  13.526  10.194  11.912  0.2449 -0.0251  0.1796
10624W        W29478   9.980  11.147   0.096 -0.0782  0.0346  0.0269
10625W        W29479  14.946   2.752   0.653  0.1156 -0.0227 -0.2303
10626W        W29480   5.085  16.594  14.033  0.1097  0.0776 -0.1171
10627W        W29481   1.999   8.551  13.919 -0.0621 -0.4192 -0.0803
10628W        W29482   5.178   9.053   1.971 -0.1431 -0.0313  0.2134
10629W        W29483  12.490   5.442   5.144  0.1752  0.3830  0.1808
10630W        W29484  12.161  16.516   1.321  0.0781  0.2105  0.0088
10631W        W29485  14.787   3.017   4.000 -0.2479  0.6265 -0.2644
10632W        W29486   2.217   3.464  13.473 -0.0075 -0.1333  0.0042
10633W        W29487  12.618  12.176   4.200  0.3100  0.0982 -0.1281
10634W        W29488   1.696  18.618  11.862 -0.1280 -0.2010  0.1624
10635W        W29489  18.446   4.441   4.304  0.0386 -0.1075  0.2025
10636W        W29490   7.626  12.099   1.291 -0.0005  0.1123 -0.2164
10637W        W29491   4.110   5.915   0.398  0.0973  0.3590 -0.1694
10638W        W29492  16.843   9.916  14.533 -0.0448 -0.2200  0.2668
10639W        W29493  15.217   5.930  10.162 -0.0816 -0.0107 -0.2420
10640W        W29494   1.267   8.677   2.123  0.1381  0.2408  0.2627
10641W        W29495   6.644   4.041   0.900  0.1036 -0.1363  0.0306
10642W        W29496  18.199  17.413  14.296  0.0667  0.1445 -0.4508
10643W        W29497   2.703   0.537   1.865  0.0948 -0.0197  0.1182
10644W        W29498   5.601   5.759   1.868 -0.1483 -0.2213 -0.0742
10645W        W29499   7.656   6.888   3.173 -0.0303 -0.1416  0.0258
10646W        W29500   6.801  16.893  14.075 -0.3008 -0.0475  0.0267
10647W        W29501   5.753   9.603  12.021 -0.1907 -0.1636  0.0212
10648W        W29502   0.288   7.866   3.983  0.0917 -0.1283 -0.0842
10649W        W29503   6.440  15.989  11.508 -0.0809 -0.2543 -0.0225
10650W        W29504  15.957  10.567   0.664  0.1097 -0.3788  0.1723
10651W        W29505  11.090  18.846  14.044 -0.2680  0.1785  0.0426
10652W        W29506   5.945  18.822   4.233 -0.1703  0.0428 -0.2804
10653W        W29507  13.434   0.146  11.221 -0.0044 -0.0987  0.1035
10654W        W29508   0.508   9.433   3.134 -0.1632 -0.0784 -0.2283
10655W        W29509   0.355  14.064  10.833  0.0536 -0.0493 -0.0796
10656W        W29510   4.166   5.883   0.922  0.2209  0.1439  0.0316
10657W        W29511  15.642  10.668  12.222  0.2981 -0.2895 -0.0262
10658W        W29512   1.850  10.118   2.945  0.0991  0.4043 -0.0014
10659W        W29513   0.665   7.476  13.530 -0.2616  0.0607 -0.0593
10660W        W29514   5.927  17.140   4.196 -0.2033  0.1177  0.2159
10661W        W29515   0.504   9.269   2.597 -0.2334  0.5015  0.2803
10662W        W29516   2.139   7.101   2.788 -0.0207  0.0650 -0.2049
10663W        W29517   6.968   0.456   0.595 -0.0039  0.2946  0.0404
10664W        W29518   8.871   6.758  13.649 -0.0046  0.3247  0.0213
10665W        W29519   2.132  17.967  12.765 -0.2337  0.1458 -0.1983
10666W        W29520   4.917  14.370   0.270 -0.0175 -0.5121 -0.0350
10667W        W29521  16.606   3.496   0.255 -0.1984 -0.0673  0.0425
10668W        W29522  13.987   9.919   3.244  0.0237 -0.1621  0.0276
10669W        W29523   9.291   9.639   3.236 -0.3480 -0.3275  0.2321
10670W        W29524   2.390  12.066   1.785  0.0842 -0.2003  0.1389
10671W        W29525   0.511   2.566   2.040 -0.2377  0.3016  0.1502
10672W        W29526  11.636  19.129   3.827 -0.1688  0.0000 -0.1808
10673W        W29527   8.668  13.142  13.105  0.1668  0.3443 -0.1345
10674W        W29528  12.816   8.150   2.963  0.0037  0.0039  0.0915
10675W        W29529   8.324  18.712   1.321  0.0057 -0.0711 -0.1305
10676W        W29530  18.886   1.527   0.032  0.0876 -0.1128  0.0509
10677W        W29531  12.109   5.033  13.154  0.2199  0.0352  0.1844
10678W        W29532  17.013  15.685  14.567  0.0008  0.0607 -0.1401
10679W        W29533   8.156   2.859   3.995 -0.2208 -0.1917  0.2169
10680W        W29534  18.173   0.521  10.831 -0.1531 -0.3806  0.2195
10681W        W29535  16.782   7.908   1.869 -0.2221 -0.1054  0.4346
10682W        W29536   8.411   3.753   4.197  0.2220 -0.1372  0.1475
10683W        W29537   7.440  11.340   4.213 -0.3264 -0.1633 -0.1519
10684W        W29538  10.040  13.112  12.379  0.2009  0.1525  0.2560
10685W        W29539   0.423   1.824  13.170 -0.1563 -0.0157 -0.0906
10686W        W29540   3.878   7.988  10.927 -0.2481 -0.0327 -0.3592
10687W        W29541   2.524  11.318   0.812 -0.0260  0.0137 -0.0256
10688W        W29542  14.172  18.687   2.269 -0.0215 -0.3199  0.0060
10689W        W29543   3.708   1.192  12.111  0.0515  0.0945 -0.3422
10690W        W29544  18.470   8.406  12.554  0.0104  0.3179  0.0956
10691W        W29545   3.966  11.074  11.358  0.1474  0.3308 -0.0723
10692W        W29546  11.825   9.409  13.021 -0.2608  0.0490  0.1198
10693W        W29547   3.331   7.215   3.613  0.0648  0.4356  0.1889
10694W        W29548   0.826   7.977   9.999  0.0382 -0.0758 -0.0617
10695W        W29549   3.280   7.837   0.348 -0.3359 -0.4558  0.0654
10696W        W29550  11.758  16.591  14.219  0.1434 -0.1133 -0.1769
10697W        W29551  11.311  18.126  12.993 -0.4864  0.4257  0.1193
10698W        W29552   1.583   3.112   3.616  0.1981  0.2863 -0.2067
10699W        W29553   0.068   4.480   0.601  0.0782 -0.0558  0.1449
10700W        W29554   9.361  17.422   2.929 -0.0467  0.0227 -0.2535
10701W        W29555  11.774   1.063   2.072 -0.1055 -0.0373 -0.1374
10702W        W29556  16.382  17.536  12.614  0.2145  0.2004  0.1778
10703W        W29557   7.419  10.218   3.743  0.2146  0.0473 -0.1413
10704W        W29558   6.329   0.703   3.774  0.1722 -0.1358 -0.1346
10705W        W29559  16.442  18.886  13.048 -0.0238 -0.0465  0.0956
10706W        W29560   1.030   6.333   4.131  0.0760 -0.1443 -0.1684
10707W        W29561   4.603  12.987   0.045  0.0552  0.3124  0.2384
10708W        W29562   9.959  17.251   2.292 -0.2942  0.0473  0.0251
10709W        W29563   0.922  18.760  12.203  0.1215 -0.0332  0.2340
10710W        W29564   4.447  16.730   5.316 -0.2363 -0.0713 -0.1239
10711W        W29565   2.426  18.029  12.101 -0.1665 -0.3010 -0.2348
10712W        W29566   1.094   2.061  11.734  0.0492 -0.1957  0.2261
10713W        W29567  11.404  17.380   4.037 -0.0934 -0.1880 -0.1137
10714W        W29568   3.007   1.488   1.163  0.0919  0.1814 -0.2283
10715W        W29569   6.707  11.991   2.366 -0.2187  0.5226  0.0005
10716W        W29570  18.112   8.611   3.408 -0.1791  0.0412 -0.0828
10717W        W29571   2.424   1.128  12.530  0.3484 -0.0489 -0.0455
10718W        W29572  15.689  13.866   0.347  0.2966 -0.1386  0.1698
10719W        W29573  13.988   6.645  10.833 -0.0329  0.0794 -0.1131
10720W        W29574  15.339  18.992   0.984  0.2032  0.2230  0.0286
10721W        W29575  11.801   5.414   0.494 -0.1538 -0.0355 -0.3162
10722W        W29576  13.325   1.550  12.194 -0.1239  0.0652  0.1141
10723W        W29577   5.632  14.026   1.163 -0.0867  0.0142 -0.1854
10724W        W29578   2.152   7.763   4.059 -0.1589 -0.1037 -0.1643
10725W        W29579  11.314  16.421  10.825 -0.2864 -0.1007  0.4392
10726W        W29580   6.861   1.421  11.461 -0.2390 -0.1894 -0.0277
10727W        W29581  17.270   8.360  11.296 -0.1045 -0.2123  0.1189
10728W        W29582   7.903   1.326   0.700 -0.1431 -0.0855  0.2788
10729W        W29583   5.752  15.401   3.620 -0.2021  0.0280  0.0789
10730W        W29584   7.237  13.822   2.410 -0.1277 -0.1467  0.1502
10731W        W29585   6.483  18.853   4.721 -0.1167  0.0557  0.0598
10732W        W29586  12.218  17.471  13.590  0.0835  0.2176  0.0059
10733W        W29587   1.269  18.663   2.769 -0.1425 -0.1137 -0.3219
10734W        W29588   9.204  16.578  13.680 -0.1447  0.1415 -0.1217
10735W        W29589   6.320   5.995   0.658 -0.1792 -0.3851 -0.0036
10736W        W29590   2.362   7.409  13.160  0.0898  0.1064  0.1091
10737W        W29591   7.183   7.350   2.578 -0.0628  0.0609  0.0142
10738W        W29592   7.168   6.043  10.679 -0.1109  0.0703 -0.1713
10739W        W29593  11.009   1.373  14.458  0.1482 -0.2546 -0.1642
10740W        W29594  12.160  12.475   3.236  0.2133  0.0085  0.2153
10741W        W29595  13.396   9.346  14.332 -0.0272 -0.2959  0.2536
10742W        W29596  17.216  11.678  10.840  0.2215 -0.0356  0.4352
10743W        W29597   0.594   5.499   4.069  0.1005 -0.2354 -0.0460
10744W        W29598   8.089   4.918   0.816 -0.0308 -0.3003 -0.2263
10745W        W29599   0.434  17.325  10.586 -0.0152 -0.3920 -0.1017
10746W        W29600   0.645  13.282   3.669  0.0459  0.1292 -0.2415
10747W        W29601   8.698  15.234   3.251  0.0974  0.0116  0.1242
10748W        W29602  18.111   0.502   0.644  0.0788 -0.1175 -0.0732
10749W        W29603  11.227  17.250  12.758 -0.4299 -0.2908  0.1754
10750W        W29604  10.238   7.284  10.664 -0.0534 -0.0701  0.4826
10751W        W29605  16.791  10.486   1.464 -0.0318  0.1713 -0.1390
10752W        W29606  16.157   3.281  10.863  0.2495 -0.4046 -0.1458
10753W        W29607   6.415  14.402  14.255 -0.4312 -0.0049  0.0042
10754W        W29608  13.198   0.269  12.832  0.3087  0.3923 -0.1783
10755W        W29609  13.382  15.690  11.856  0.2552 -0.0992  0.1286
10756W        W29610   8.442   3.119   4.869  0.0394  0.0432  0.1007
10757W        W29611  17.622  17.225   3.213 -0.1347  0.0507  0.2097
10758W        W29612  11.527   4.176   0.867  0.1346 -0.0666  0.1307
10759W        W29613  15.852  16.411  14.509 -0.0273 -0.1974 -0.0673
10760W        W29614  17.328  14.603   1.266 -0.3214 -0.0654  0.1308
10761W        W29615  15.239   2.854   3.686  0.0102  0.0939  0.0718
10762W        W29616   5.343  17.403   4.422 -0.2158  0.0045 -0.2451
10763W        W29617  12.055  12.522   1.369  0.1760 -0.1640  0.0399
10764W        W29618   0.839   5.097   4.083  0.0302  0.0207 -0.0081
10765W        W29619   5.286  16.161   1.226 -0.0791 -0.2363  0.2202
10766W        W29620   4.684   6.758  11.454  0.1642  0.1824  0.0440
10767W        W29621   2.258   6.490  12.454 -0.1443 -0.0080 -0.3704
10768W        W29622   2.032   3.249   3.492  0.1014  0.3773  0.1483
10769W        W29623   6.490  17.541  11.407  0.0422 -0.0965  0.3246
10770W        W29624  12.932  11.853  10.196 -0.4322  0.2085 -0.2850
10771W        W29625  14.332   2.172  13.732  0.0542  0.6838  0.2962
10772W        W29626   2.467  10.693   3.606  0.0598 -0.1335  0.0439
10773W        W29627  16.471  14.574   2.918 -0.0558 -0.3214 -0.0336
10774W        W29628  18.333   6.746   1.514 -0.1919  0.0189 -0.0950
10775W        W29629   1.295   9.723  11.106  0.2275 -0.0826 -0.0022
10776W        W29630  12.039  12.729   3.680 -0.0276  0.2676  0.0795
10777W        W29631  13.555   7.875   2.578  0.2570 -0.1039 -0.1254
10778W        W29632   8.474   4.742  14.208 -0.0861  0.2769  0.2804
10779W        W29633   4.931   8.881   3.079  0.1588  0.5024  0.0547
10780W        W29634  13.700  18.311  12.597 -0.2300  0.0565  0.0743
10781W        W29635  11.052   7.118  11.821 -0.4237  0.2592 -0.3601
10782W        W29636   2.223  16.194   0.614 -0.0809 -0.1600  0.4504
10783W        W29637   3.724  11.779  13.746  0.1907  0.1737 -0.1839
10784W        W29638  13.689  17.193  10.289  0.1409 -0.0896  0.2494
10785W        W29639   0.252   6.905  14.338 -0.1292  0.3213  0.2525
10786W        W29640  17.490   2.974  12.309 -0.2637 -0.2075  0.0085
10787W        W29641  16.526   7.937  11.591  0.0990  0.0201 -0.0988
10788W        W29642  10.158   4.127  10.573  0.2865  0.0847 -0.3445
10789W        W29643  18.319   3.731  14.066  0.0279 -0.2522  0.0044
10790W        W29644  10.689   9.718  13.913  0.1440  0.0326 -0.1528
10791W        W29645  14.208  16.651   3.161 -0.1060 -0.2083  0.4000
10792W        W29646   4.047   3.588  10.855  0.0020 -0.0726 -0.1885
10793W        W29647   6.443   2.071  13.695 -0.1698  0.0128 -0.0606
10794W        W29648  15.973  13.936   1.290 -0.2581  0.0418  0.3176
10795W        W29649   1.377   0.227  12.900  0.0913 -0.3384 -0.5293
10796W        W29650  15.758  12.326  10.680 -0.1031  0.1425 -0.0751
10797W        W29651   9.537  11.466   3.795 -0.0370 -0.3081 -0.2324
10798W        W29652   8.776   4.087   0.038  0.0614  0.0879 -0.2351
10799W        W29653   3.212   7.160  12.312  0.0219  0.1265 -0.1850
10800W        W29654   6.234   9.962   5.028 -0.1189 -0.0342  0.0510
10801W        W29655  15.804   2.736   0.649 -0.0563 -0.0174  0.0233
10802W        W29656   3.752  16.062   4.249  0.0601 -0.0815 -0.0004
10803W        W29657  14.592  15.651   1.630  0.4563 -0.1606 -0.0012
10804W        W29658  11.147  14.759  12.429 -0.0762  0.2444  0.0450
10805W        W29659   3.926  12.087  12.464  0.0582 -0.1254 -0.0337
10806W        W29660  15.091  11.800   1.323  0.1300  0.1134  0.1638
10807W        W29661   5.936   6.644  12.773 -0.1543 -0.3772 -0.1919
10808W        W29662   0.374   3.930   3.972  0.1049 -0.2872 -0.2010
10809W        W29663   2.256  10.226   2.619 -0.4844 -0.0150  0.0097
10810W        W29664  14.620   9.299  11.516 -0.2472  0.0315  0.0343
10811W        W29665  12.799   4.844  13.774  0.0425  0.1816  0.0412
10812W        W29666  12.399   2.849  11.414  0.2001 -0.0625 -0.0146
10813W        W29667  11.082   4.379  12.431 -0.2236  0.2975 -0.2935
10814W        W29668   6.963   2.843   4.338  0.0103  0.0122  0.1710
10815W        W29669  12.191  17.811   0.943  0.2256  0.1211 -0.1692
10816W        W29670   2.390   8.921   1.534  0.1084  0.4530 -0.2676
10817W        W29671   3.955  18.564   0.477 -0.1954 -0.2643 -0.0556
10818W        W29672   4.383  13.308  12.705 -0.1416  0.4092  0.2451
10819W        W29673   9.027  14.785  12.897  0.2916  0.0718  0.0901
10820W        W29674   4.177   5.692  13.747 -0.0002 -0.2733 -0.1306
10821W        W29675   1.228   9.952  14.195  0.2362  0.1909 -0.2791
10822W        W29676  14.330   1.060  11.488 -0.0140  0.2197 -0.1458
10823W        W29677  10.649  17.750  14.285  0.2700  0.0652  0.1243
10824W        W29678   5.127  13.641  13.687  0.1672  0.0897 -0.1922
10825W        W29679   3.760   8.627  13.052 -0.0585  0.2841  0.2982
10826W        W29680   4.865  18.169  14.017 -0.0249 -0.0597 -0.0518
10827W        W29681   9.047  10.437   2.617  0.3243 -0.0092 -0.0553
10828W        W29682   1.566   3.219  11.067 -0.0117  0.0734 -0.3362
10829W        W29683  19.147  17.814  11.887  0.0006  0.0684  0.1367
10830W        W29684  17.538  10.718   1.545  0.3987  0.1264  0.1915
10831W        W29685   8.219   4.186   0.082  0.1330  0.1890  0.0548
10832W        W29686   4.894  11.957  11.003  0.1352 -0.1516 -0.0342
10833W        W29687   1.502   0.521  13.293 -0.3429 -0.0080  0.1554
10834W        W29688   0.172  11.647  14.373 -0.0867  0.1285  0.0194
10835W        W29689  12.208   7.021  11.598  0.0377 -0.0042 -0.0342
10836W        W29690   6.844  12.825  11.372 -0.0847 -0.1132  0.4682
10837W        W29691   6.690  10.169  13.392  0.1641  0.1460  0.2305
10838W        W29692  13.644  14.065   0.745 -0.1736 -0.0053  0.0010
10839W        W29693   3.789   6.074  14.664 -0.2340  0.0448  0.0956
10840W        W29694  11.279  11.404   0.678  0.3028  0.2731 -0.0047
10841W        W29695  14.671   2.168  14.734 -0.1815  0.2646  0.0181
10842W        W29696   3.855   7.653  13.065  0.3528 -0.1889  0.0152
10843W        W29697   6.074   2.673  12.387 -0.1662 -0.0677 -0.1299
10844W        W29698   0.629  15.401  12.050 -0.0842 -0.0562  0.1827
10845W        W29699   8.132   0.161  11.703 -0.4538  0.0566 -0.0009
10846W        W29700   0.185  15.079  12.776  0.1445 -0.1988 -0.0894
10847W        W29701   5.768   6.656   3.581  0.0623 -0.2530 -0.0483
10848W        W29702   1.959   5.187   3.134  0.0154 -0.1542  0.1351
10849W        W29703   0.755   3.398   1.152 -0.3062 -0.1643 -0.3668
10850W        W29704  17.893   9.404   2.884  0.3494 -0.2140 -0.3227
10851W        W29705  12.861   1.354  13.990 -0.4396  0.1618  0.0670
10852W        W29706  11.451   9.229   0.687  0.1629  0.2647  0.0962
10853W        W29707  15.750  11.295   2.383 -0.0486 -0.1355  0.1563
10854W        W29708   8.553   5.231   2.949  0.0844  0.0944  0.3022
10855W        W29709  17.817  14.862  13.762  0.2287 -0.1146  0.1708
10856W        W29710  10.871   8.781   2.584  0.0873 -0.2839 -0.0466
10857W        W29711   1.463  12.154   3.243 -0.1306  0.2672 -0.1521
10858W        W29712  16.151   9.658  10.860 -0.0786 -0.0383 -0.0029
10859W        W29713   1.418   3.439  11.596 -0.1653 -0.0179 -0.0014
10860W        W29714  13.410  11.755  13.816  0.0518  0.3812  0.1445
10861W        W29715  13.244   0.321   2.438  0.5489  0.1034  0.2172
10862W        W29716   2.224  12.517   3.651 -0.0916  0.0538 -0.2487
10863W        W29717  17.558  13.634  13.143  0.0334  0.4685 -0.0810
10864W        W29718  11.039   1.270   3.716 -0.1079  0.2987 -0.0945
10865W        W29719  19.162   7.707   3.125  0.2565 -0.1502 -0.2517
10866W        W29720   6.752  13.476   1.320  0.0125  0.0718  0.3500
10867W        W29721  14.640  18.578   3.874 -0.0705 -0.1836  0.0329
10868W        W29722   7.866   7.385  11.267  0.0864 -0.2312 -0.0124
10869W        W29723   3.190   9.827   0.988 -0.1111  0.1245 -0.3572
10870W        W29724   2.112  10.269   4.849 -0.0314  0.1199 -0.1975
10871W        W29725   1.591   6.143   2.245  0.2006 -0.0510 -0.1440
10872W        W29726   1.268   9.523  14.609  0.1573 -0.0733 -0.0134
10873W        W29727  18.767  13.982   2.567  0.2526  0.0674  0.0494
10874W        W29728  11.567  18.873  13.935 -0.3008 -0.1370 -0.3163
10875W        W29729  13.501  15.073  11.366  0.0877 -0.1421  0.0492
10876W        W29730  14.757  11.264  12.754  0.0496 -0.2123 -0.0293
10877W        W29731  18.687  11.755   1.686  0.0993  0.3034 -0.0156
10878W        W29732  18.891  12.455  14.065 -0.0378  0.2022 -0.0167
10879W        W29733  12.107   5.221  14.045  0.3502  0.1355 -0.1086
10880W        W29734   5.765  14.506   5.289 -0.0910  0.0220 -0.0758
10881W        W29735   9.728  14.999   2.462 -0.0372  0.0666 -0.1296
10882W        W29736  12.025  11.979   2.766 -0.0628  0.0931  0.0486
10883W        W29737   8.719   8.299  14.456  0.0189  0.2191  0.0765
10884W        W29738  19.041  12.753  12.759  0.0412 -0.4849  0.1268
10885W        W29739  16.638   1.145   2.385 -0.0967 -0.0974 -0.0800
10886W        W29740  15.204   9.823  11.668  0.1710 -0.0029  0.0241
10887W        W29741  15.030   8.547  11.874  0.1545 -0.1115 -0.3814
10888W        W29742   4.282  11.074   1.805  0.0932  0.2224 -0.1311
10889W        W29743   8.483  12.057  12.406  0.2241 -0.1404  0.0600
10890W        W29744   2.759   2.600   1.490 -0.1349  0.3173  0.2982
10891W        W29745  14.856   2.067  13.706  0.2055 -0.0868  0.0498
10892W        W29746   0.457  15.814   3.860  0.0263 -0.1281  0.0492
10893W        W29747   8.070   7.721  10.345 -0.2395 -0.4017 -0.1089
10894W        W29748  13.152  13.957  11.407 -0.2536 -0.2399 -0.1666
10895W        W29749   3.012   3.755  13.639  0.1368 -0.0838  0.1816
10896W        W29750   4.333   9.304   3.917 -0.0965  0.1968  0.0824
10897W        W29751   1.546   5.294   3.511 -0.0574  0.0739 -0.1874
10898W        W29752  13.352  10.572   9.997  0.0738 -0.2841  0.6291
10899W        W29753   1.631   8.603   1.789 -0.2021 -0.1156  0.0314
10900W        W29754  16.417   3.069   0.337  0.1764 -0.0122 -0.1574
10901W        W29755   5.940   0.154   2.906  0.1009 -0.0116 -0.1192
10902W        W29756   2.915  18.220  11.971 -0.0382 -0.4005  0.1839
10903W        W29757  16.466   4.204   2.881  0.1502 -0.1226  0.2436
10904W        W29758  15.515  13.743   1.187 -0.2422  0.0468 -0.0163
10905W        W29759  15.294   9.528  10.250 -0.2436  0.1079 -0.1287
10906W        W29760   6.805  10.381  10.382  0.0017  0.0149  0.0236
10907W        W29761  18.231   4.772   1.357  0.0537 -0.3464  0.2402
10908W        W29762   2.933   8.840   2.293  0.2038 -0.3939 -0.2454
10909W        W29763   9.907  14.227  11.325 -0.0599  0.1286 -0.0123
10910W        W29764  13.398  13.604   0.135 -0.0568 -0.2694 -0.0855
10911W        W29765  10.442   9.463  14.228 -0.1080  0.1127 -0.0570
10912W        W29766   5.621  18.142  11.240  0.0180 -0.0491  0.3396
10913W        W29767   3.882  13.004  11.113 -0.0056 -0.0904 -0.4586
10914W        W29768  10.176   8.570  12.063 -0.2713 -0.1474 -0.1723
10915W        W29769  10.318   9.619   3.462  0.1897 -0.1318  0.2279
10916W        W29770   9.293   7.542   3.385 -0.0137  0.0204 -0.0422
10917W        W29771  14.654   0.728   1.369  0.0798 -0.1894 -0.0433
10918W        W29772   8.917  10.783  10.998 -0.1353  0.1124  0.0898
10919W        W29773   6.341   8.583   2.602 -0.1634  0.0441 -0.0270
10920W        W29774  13.142   2.909   3.843  0.1114 -0.2008 -0.0336
10921W        W29775   1.451  14.058   1.990  0.1181  0.2025 -0.0175
10922W        W29776   0.439   8.356  12.688  0.1035 -0.2631  0.0882
10923W        W29777  13.252   3.962   0.826 -0.0029 -0.3281  0.1809
10924W        W29778   4.942   5.590   1.264 -0.0734  0.1387  0.3067
10925W        W29779   6.326  16.484  11.977  0.1248 -0.1713  0.1178
10926W        W29780  18.571  13.638  13.042 -0.2005 -0.0901 -0.0797
10927W        W29781   7.953   0.498  12.574  0.1199 -0.2339 -0.1392
10928W        W29782  17.579  18.303   3.080  0.2150  0.0658  0.0706
10929W        W29783   7.042   3.935   2.405 -0.0555  0.0481 -0.1558
10930W        W29784  11.077   9.972  13.138 -0.1347 -0.0841 -0.2781
10931W        W29785  15.534   4.320  12.551 -0.0291  0.1130  0.0603
10932W        W29786  11.508   3.409   3.863  0.1557 -0.0108  0.0148
10933W        W29787  17.967  12.034   2.332 -0.2033  0.0385  0.0658
10934W        W29788  17.215   8.282   3.976 -0.0945 -0.2984  0.2234
10935W        W29789  12.798  15.149  13.863  0.2824  0.0506 -0.0577
10936W        W29790   4.361   9.954   0.207  0.0383 -0.1946  0.2373
10937W        W29791   6.835   8.324   1.130  0.0819  0.1091 -0.1013
10938W        W29792  13.732   9.418  11.278  0.4426 -0.1641 -0.0277
10939W        W29793   5.766  15.796  12.539 -0.1417  0.0966  0.0082
10940W        W29794  15.988  15.280  11.351 -0.0554  0.0661 -0.1843
10941W        W29795  14.279   8.183  12.154 -0.1198 -0.1502 -0.0660
10942W        W29796  14.924   4.004   9.543 -0.1663  0.1445 -0.2402
10943W        W29797  16.562   6.196  11.257  0.3452  0.0774 -0.0575
10944W        W29798   7.101  18.033  11.937 -0.3525 -0.1655 -0.2897
10945W        W29799  15.075   3.091  11.678 -0.1403 -0.2216  0.1669
10946W        W29800  19.167   6.922  12.956  0.0148  0.1635  0.0192
10947W        W29801   9.171   6.186  13.692 -0.0943  0.3975 -0.2990
10948W        W29802  11.792  14.000  12.695 -0.0184 -0.0463  0.2954
10949W        W29803   6.665   3.628   0.646 -0.3991  0.2093 -0.1490
10950W        W29804   9.001  13.476  14.356  0.0877  0.3477 -0.2720
10951W        W29805  18.116  14.548  11.167  0.0908 -0.0453 -0.1381
10952W        W29806  15.500  10.320  13.124 -0.1013 -0.1729  0.5453
10953W        W29807   3.221  14.649  12.298 -0.0618  0.2864 -0.1012
10954W        W29808  10.425  10.279   1.600  0.0203 -0.2405 -0.0432
10955W        W29809   6.344   5.039  13.706  0.2026  0.0546  0.1062
10956W        W29810  13.844   7.082  12.176  0.1086 -0.0850 -0.0352
10957W        W29811   8.774   9.213   1.322 -0.1408 -0.2329 -0.2434
10958W        W29812  12.984  19.161  14.549  0.0045  0.0520  0.4036
10959W        W29813   1.619  18.132  10.827  0.2781 -0.0780 -0.0222
10960W        W29814  10.071  18.912   4.621 -0.0831 -0.1669 -0.0953
10961W        W29815  12.534   4.678  13.336  0.0715 -0.1942  0.1581
10962W        W29816  15.684  12.940  11.357  0.6007 -0.0355  0.0431
10963W        W29817  15.445   5.977   1.397 -0.0927 -0.1373 -0.1123
10964W        W29818   9.673  15.522  11.195  0.3605  0.2213  0.2431
10965W        W29819   4.348  17.530  13.334  0.1823 -0.0799 -0.1911
10966W        W29820  18.809  10.825   1.843 -0.2607  0.1052 -0.0286
10967W        W29821   8.013  13.170  11.979 -0.1922  0.3226  0.0588
10968W        W29822   6.625   1.491   0.561 -0.1674  0.0475 -0.1694
10969W        W29823   9.017  17.987  11.526  0.1589  0.0268 -0.1096
10970W        W29824  12.599  18.264   3.696  0.1639  0.1416 -0.1721
10971W        W29825  15.452  14.704   0.001 -0.1595 -0.2360 -0.0521
10972W        W29826  17.462   8.411   2.330  0.2916  0.2265  0.0542
10973W        W29827  15.315   2.095  12.541 -0.0426  0.2282  0.0180
10974W        W29828   0.107   0.522  11.703 -0.1443  0.1405 -0.0589
10975W        W29829  13.591   7.469   0.117 -0.0944  0.2255 -0.1356
10976W        W29830   7.523   4.970  11.299 -0.2266 -0.1074  0.0543
10977W        W29831  11.567  19.086   0.837  0.2779  0.1539  0.0906
10978W        W29832   7.524   1.274   3.313 -0.2931 -0.1807  0.1195
10979W        W29833   2.252  15.897  11.922  0.1455  0.2781 -0.1043
10980W        W29834   1.839  16.440   0.882 -0.1558 -0.3463 -0.1380
10981W        W29835  16.570  17.840  10.847  0.1081 -0.1401  0.0439
10982W        W29836   5.147  19.154  11.605  0.0434  0.1291 -0.0188
10983W        W29837   9.338  15.833  14.057 -0.3569 -0.1572 -0.2354
10984W        W29838   4.598   4.828   2.015 -0.1020 -0.0157  0.2319
10985W        W29839  16.354   3.773  11.003  0.2480 -0.0718 -0.1354
10986W        W29840   3.985   1.217  14.189 -0.0451  0.1676  0.1436
10987W        W29841   6.112  17.219   2.204 -0.2669 -0.1582  0.1860
10988W        W29842   0.582  14.480  10.988  0.0969  0.1556  0.4787
10989W        W29843   9.445   3.255  13.342 -0.0956 -0.0687  0.0208
10990W        W29844  16.376   5.761   0.512  0.1149  0.1539 -0.2904
10991W        W29845  13.614  19.193  11.920 -0.0148 -0.0518 -0.1088
10992W        W29846  18.354  14.867   3.139  0.0382  0.1310  0.1116
10993W        W29847  14.479   3.053  11.632  0.1389  0.1937  0.2253
10994W        W29848   2.395  17.883  10.916  0.1941  0.0459  0.1595
10995W        W29849   4.588  10.204   3.995  0.1253 -0.0096 -0.0525
10996W        W29850  15.846  13.653  14.556  0.0098 -0.1702 -0.0869
10997W        W29851  18.436   8.030   3.847  0.4450  0.1577 -0.2145
10998W        W29852   2.960   3.046  12.509 -0.0740 -0.0743  0.3640
10999W        W29853   8.157  10.195   2.710 -0.2220 -0.2789 -0.1699
11000W        W29854  17.656  18.485  11.042 -0.2700 -0.0429  0.0912
11001W        W29855  11.789   9.342   1.134 -0.2152  0.1954  0.2311
11002W        W29856  11.202   2.597   2.887 -0.1963  0.4151 -0.0656
11003W        W29857  15.504  17.831   3.272  0.0966 -0.0737  0.1294
11004W        W29858   3.891  11.014   0.583 -0.0422  0.0289 -0.2979
11005W        W29859   6.041   0.671  13.294  0.2954 -0.0624 -0.1063
11006W        W29860   1.223  14.444  13.498 -0.3880  0.2378  0.0193
11007W        W29861  16.087  17.080  12.595 -0.1774  0.1100  0.2387
11008W        W29862  16.881   6.141   2.632 -0.0929 -0.1703 -0.2486
11009W        W29863  16.168   5.735  13.213  0.1725  0.2002  0.1128
11010W        W29864  13.598   4.941   4.011 -0.1586 -0.0645 -0.2137
11011W        W29865   9.122   5.271   4.026  0.0801 -0.2146  0.1069
11012W        W29866   9.722   2.233  12.616  0.2207  0.1210  0.2344
11013W        W29867   2.668  14.572   2.037 -0.1124  0.0680 -0.0735
11014W        W29868   9.806   9.268  10.861  0.1244 -0.2451 -0.2937
11015W        W29869  18.051  11.336   1.699  0.1107 -0.0306 -0.1315
11016W        W29870  11.185  16.966   3.798 -0.3051  0.1586 -0.2482
11017W        W29871   8.220  15.110   2.062  0.1806 -0.3194  0.0812
11018W        W29872  18.013   5.884   0.389 -0.2483  0.0487 -0.0079
11019W        W29873   0.983   5.923   1.404 -0.2322  0.1198 -0.2925
11020W        W29874  16.088   2.021  13.319 -0.0441  0.0936 -0.1055
11021W        W29875   9.821   0.298   5.117  0.1314  0.0884  0.3443
11022W        W29876   1.177  16.749   0.005 -0.0592 -0.2074 -0.1204
11023W        W29877   4.874   6.537   1.910  0.3817  0.1445 -0.2124
11024W        W29878  10.742   4.614   0.712  0.0003 -0.1892 -0.2313
11025W        W29879   6.797   7.714   2.380 -0.1485  0.0299  0.0063
11026W        W29880   2.767   4.723   2.793  0.0756 -0.1343  0.0695
11027W        W29881   8.061  17.525  14.163  0.0185 -0.0666  0.2025
11028W        W29882   7.823  16.587  14.085  0.0737 -0.1670 -0.0600
11029W        W29883  17.501   7.389   3.182  0.1830 -0.0090 -0.3073
11030W        W29884   1.601   1.702   1.527  0.2039  0.2497  0.0229
11031W        W29885   5.477   9.945  12.351  0.2052 -0.1646  0.0870
11032W        W29886   4.241   8.530   0.507 -0.4412 -0.0790  0.1736
11033W        W29887  11.734   6.702  14.516 -0.1318  0.0021 -0.0430
11034W        W29888  12.202   0.122  12.748  0.0523 -0.3176 -0.0061
11035W        W29889  12.269   4.119   0.951  0.0298  0.1581  0.1565
11036W        W29890  14.555   7.712   3.588  0.1815 -0.2261 -0.1110
11037W        W29891  16.463   5.351  11.793  0.1186 -0.0288 -0.1136
11038W        W29892  11.848   2.393  11.861 -0.1232 -0.0564  0.2257
11039W        W29893   0.050   1.970   3.944 -0.2055  0.1013  0.0159
11040W        W29894   3.205   4.635   2.472 -0.2865 -0.3908 -0.2088
11041W        W29895  18.843  15.468  11.233 -0.2763 -0.4830  0.1533
11042W        W29896  12.047  13.782   1.497  0.1871  0.0626 -0.0485
11043W        W29897   2.179   9.499  14.220 -0.5385 -0.0348  0.1493
11044W        W29898   8.731   9.618  12.060 -0.1458 -0.1295 -0.0657
11045W        W29899  13.110  12.754   4.491 -0.1945 -0.2404 -0.0743
11046W        W29900  14.659  17.646  11.694  0.0879  0.3387  0.1142
11047W        W29901  16.535   5.183   2.739  0.1821 -0.1283 -0.2004
11048W        W29902  16.340   8.334   3.984  0.1727  0.0417 -0.3629
11049W        W29903  15.176  13.734  12.001 -0.2493 -0.4835  0.4135
11050W        W29904   2.349  12.906  14.571 -0.0735  0.0836  0.0258
11051W        W29905   0.888   2.099   3.548  0.2636  0.0003 -0.1195
11052W        W29906   7.401   8.038   4.649  0.2073 -0.0846  0.0928
11053W        W29907  12.063   0.766   1.158  0.1644 -0.1277 -0.1587
11054W        W29908  17.442  16.125   1.130 -0.0653  0.2139  0.0715
11055W        W29909  10.341  18.588   0.338  0.0550  0.1095 -0.3766
11056W        W29910   9.556   6.064  14.042 -0.0238  0.0044  0.1223
11057W        W29911  14.540   6.254   1.062 -0.1836  0.1535  0.0157
11058W        W29912   4.064   5.588  14.731  0.0156 -0.0329  0.2810
11059W        W29913   5.692  14.844   9.491  0.2375 -0.3485 -0.4199
11060W        W29914  10.064  16.858  13.030 -0.1944  0.2809 -0.1390
11061W        W29915   4.875   6.009   3.141 -0.1029 -0.0835  0.1334
11062W        W29916   2.882   0.896   2.877 -0.0650 -0.0359  0.0293
11063W        W29917   5.538  10.573   2.526 -0.0067  0.3755 -0.1101
11064W        W29918   1.509   1.594  10.607  0.0523  0.1681  0.0949
11065W        W29919   2.648   3.366  13.247 -0.0647 -0.1992  0.1743
11066W        W29920  15.648  19.181  10.794 -0.4045 -0.3000  0.2575
11067W        W29921   1.860  11.394  13.547 -0.1184 -0.1671 -0.1578
11068W        W29922   5.821   9.471   2.619  0.1550 -0.0486  0.1718
11069W        W29923  16.161   7.175  14.244  0.1144 -0.0669  0.1312
11070W        W29924   7.257  12.456  14.397  0.0843 -0.1941  0.3076
11071W        W29925   6.007   5.596   2.710 -0.0164 -0.0259  0.0849
11072W        W29926   3.279   0.496  13.168  0.0545 -0.2160 -0.2375
11073W        W29927  15.734  11.746  11.144  0.1121 -0.1051 -0.0937
11074W        W29928  15.505  16.835  13.309  0.0402 -0.1695  0.0662
11075W        W29929   4.701   8.726  10.689  0.0316 -0.0337 -0.1212
11076W        W29930   8.856  14.779  10.705  0.0583  0.1099  0.0934
11077W        W29931   2.369  15.225  11.254 -0.0246  0.1343 -0.0532
11078W        W29932   0.323  16.161   1.319  0.3140 -0.1028 -0.4016
11079W        W29933  16.834   7.794   2.419 -0.2933  0.0380 -0.1152
11080W        W29934  18.127  16.147   0.005  0.1749 -0.2683 -0.1819
11081W        W29935  16.764   9.718  12.678  0.0046  0.2021 -0.0562
11082W        W29936   6.683   0.966   4.061  0.0893 -0.1164  0.0258
11083W        W29937   4.738  13.962  13.915 -0.0097 -0.3486 -0.5209
11084W        W29938   0.406  18.711  10.667 -0.0012 -0.2190 -0.0418
11085W        W29939  18.893  12.818  13.273  0.1671  0.1957 -0.1494
11086W        W29940   7.976   3.007   9.813 -0.2602 -0.0854 -0.1199
11087W        W29941  11.339  11.799   4.192 -0.1834 -0.0760 -0.0436
11088W        W29942   8.086   3.191  11.661 -0.2384 -0.1394  0.0500
11089W        W29943  17.205  16.636   4.836  0.0684  0.2250 -0.1356
11090W        W29944   3.432   3.134   0.063 -0.3655  0.1279  0.2500
11091W        W29945  11.354  11.499   2.500  0.0055 -0.0060  0.2454
11092W        W29946  12.016  14.228  10.405 -0.2403 -0.0322 -0.0392
11093W        W29947   2.839   7.885   0.658 -0.1260  0.1939 -0.1758
11094W        W29948  17.703   5.912  13.278  0.2866 -0.0574  0.2094
11095W        W29949  14.919  11.965  10.158 -0.3775  0.3330 -0.2342
11096W        W29950   6.482   8.282  14.086  0.2071 -0.0050 -0.1181
11097W        W29951   7.506  11.646   0.484 -0.0311 -0.1424  0.1588
11098W        W29952   9.771   5.923   2.031 -0.0723  0.3187 -0.1208
11099W        W29953   5.043  17.817   2.529  0.3648  0.1738 -0.4593
11100W        W29954  10.574   7.634  13.404  0.0152 -0.0179  0.2458
11101W        W29955  16.814   9.550   2.885 -0.2272 -0.0497  0.0660
11102W        W29956  13.212  15.629  14.174  0.0704  0.0931 -0.0842
11103W        W29957  17.578  13.206   2.099 -0.2977 -0.2585  0.2202
11104W        W29958   8.786  12.516   3.530  0.3094 -0.0625  0.4670
11105W        W29959   9.769   3.621   3.672  0.0476  0.0158  0.0632
11106W        W29960  12.762  14.436   2.194  0.1846 -0.1999 -0.4105
11107W        W29961   9.393  10.852  10.912  0.0649  0.1823  0.2601
11108W        W29962   6.064   3.080   3.081  0.1010 -0.1673 -0.3074
11109W        W29963  10.488   2.183   2.058 -0.1452  0.0743 -0.0640
11110W        W29964  13.713   9.157   0.173 -0.1007  0.1121  0.1086
11111W        W29965  17.441  16.661   0.502 -0.1502  0.1551 -0.1582
11112W        W29966  17.162   2.662   1.331 -0.0979 -0.0457 -0.0362
11113W        W29967   7.041   3.649   2.828  0.1188  0.0330  0.1205
11114W        W29968  13.098   6.711   3.232  0.2089 -0.2364  0.1776
11115W        W29969  17.796  16.699   2.772  0.1948 -0.1926 -0.0591
11116W        W29970  10.922   3.292   4.141  0.0520  0.0663  0.0945
11117W        W29971   7.784  16.336   2.901 -0.0720  0.1710  0.2754
11118W        W29972  10.879   2.157  13.193 -0.0560 -0.0451  0.1937
11119W        W29973   4.055   7.317  13.336  0.1729  0.2030  0.1037
11120W        W29974   9.807  10.429  12.938 -0.1815 -0.2764 -0.0857
11121W        W29975   0.972  14.838   3.699  0.3746  0.1137  0.1162
11122W        W29976   5.239   5.330   0.098  0.0473 -0.0212 -0.0024
11123W        W29977   1.534  17.355  12.965 -0.1813 -0.1082  0.1373
11124W        W29978  14.600  13.451   1.832 -0.1417  0.1110 -0.0241
11125W        W29979  12.188   5.863  11.741 -0.2706  0.2224  0.1728
11126W        W29980   9.370   4.308   3.204 -0.2181 -0.0283  0.0198
11127W        W29981   6.900  17.202   1.068 -0.4070  0.0844  0.0468
11128W        W29982   6.448  11.492   0.378  0.2033 -0.0893 -0.4728
11129W        W29983  18.716  11.370  13.087 -0.3761 -0.2334  0.2006
11130W        W29984   3.724  18.153  10.419  0.0401  0.1492 -0.4262
11131W        W29985   5.797   5.520  14.606 -0.4100 -0.2416 -0.0499
11132W        W29986  16.433  12.972   3.275 -0.0611 -0.1746 -0.2655
11133W        W29987  10.095   5.317  13.174 -0.1270  0.1455 -0.3241
11134W        W29988  11.126   8.932  13.159 -0.0666 -0.2092 -0.0766
11135W        W29989   1.850   4.273  11.818 -0.1342 -0.1689  0.0019
11136W        W29990  14.972  10.339   2.296 -0.0759 -0.0692 -0.0411
11137W        W29991   8.366   4.564  12.336 -0.0138 -0.2291 -0.0062
11138W        W29992   5.897   9.071  13.231  0.2971  0.3219  0.3528
11139W        W29993  16.377  16.651   0.576 -0.1284  0.0396  0.1054
11140W        W29994  14.969   4.661  14.518 -0.1600  0.0212  0.0140
11141W        W29995  14.953   7.869   2.743 -0.0643 -0.2539  0.3842
11142W        W29996  17.812   6.826   0.485  0.1027  0.1115  0.0512
11143W        W29997   9.518   2.181  13.665  0.1619  0.0305 -0.0601
11144W        W29998   3.251   2.315   1.413  0.4239 -0.1263  0.1896
11145W        W29999   8.905  11.527   1.535 -0.1375  0.1106 -0.1793
11146W        W30000   3.662  10.726  11.604 -0.0685  0.0718  0.0894
11147W        W30001  19.040   8.431   2.264  0.0411 -0.0483 -0.3722
11148W        W30002   6.470   8.525   3.095  0.1749 -0.1927  0.1436
11149W        W30003  18.498  10.054   0.445 -0.1925 -0.0580  0.2680
11150W        W30004  11.143  14.241  14.551  0.2128 -0.3089  0.0556
11151W        W30005  12.858   8.693  12.649  0.0933 -0.0883  0.1834
11152W        W30006  16.607   5.827   1.100  0.3700  0.2695  0.0179
11153W        W30007  17.152  10.824  10.208  0.0996  0.1390  0.0660
11154W        W30008  15.557  17.398   3.048 -0.1011  0.0543  0.3032
11155W        W30009   2.317  10.569  13.091  0.0726  0.3976 -0.1362
11156W        W30010  13.197  10.069  12.262  0.2496 -0.1991  0.2372
11157W        W30011  10.026  12.786  13.160 -0.2158  0.0264 -0.0475
11158W        W30012  17.230  17.491   2.552  0.3287  0.0013  0.3262
11159W        W30013  12.574   8.888   2.291 -0.3652  0.1607 -0.0152
11160W        W30014   5.320  17.828  14.252 -0.0358 -0.2053  0.1546
11161W        W30015   6.495   2.304  11.477 -0.0067  0.6237  0.1314
11162W        W30016  18.556  11.700   4.759 -0.0622  0.0049 -0.3592
11163W        W30017  13.401  17.036   0.882  0.2186  0.0798 -0.0433
11164W        W30018  14.248   0.328  13.642  0.1132 -0.2572 -0.0770
11165W        W30019   8.680   3.086   3.464 -0.1913 -0.0288  0.3961
11166W        W30020  13.342   2.046  14.107  0.4451  0.0700  0.0490
11167W        W30021   4.558   1.959   0.057  0.0242 -0.2653 -0.2617
11168W        W30022   7.290  13.235   4.530  0.1561  0.1156 -0.0500
11169W        W30023  14.132  15.264  14.623  0.0711  0.1382 -0.1210
11170W        W30024   7.630  13.678  13.163  0.0229  0.1729  0.3946
11171W        W30025  12.459   5.817  14.563  0.2028 -0.1005  0.1509
11172W        W30026  12.924   5.298   2.029 -0.0766  0.0191 -0.2583
11173W        W30027  12.636   0.657  13.536  0.3839  0.0355  0.0105
11174W        W30028  11.236  16.418   4.008 -0.1760  0.0230  0.0073
11175W        W30029   2.275  14.166   0.954 -0.1014  0.0427  0.2136
11176W        W30030   2.013   1.893  12.310  0.0701  0.4851 -0.0560
11177W        W30031  15.133   8.643   3.002  0.1875 -0.2518  0.0158
11178W        W30032  13.797  17.091  14.661 -0.1214 -0.0908  0.2881
11179W        W30033  10.834  15.746   1.904 -0.2884 -0.0086 -0.1050
11180W        W30034  12.268  15.895   0.202  0.1856 -0.2645  0.1699
11181W        W30035   0.618  12.347   1.102 -0.2301  0.1021  0.0847
11182W        W30036   8.169  12.151   3.984  0.0847 -0.1797 -0.1469
11183W        W30037  13.049   3.867   0.061 -0.1352 -0.0115 -0.2088
11184W        W30038   5.242  12.179   0.167  0.1190 -0.3328  0.1614
11185W        W30039   3.872   0.436  11.103 -0.2463 -0.1668 -0.3445
11186W        W30040   4.126  11.632  13.179  0.0311  0.1440 -0.0512
11187W        W30041   0.618   8.478  11.497  0.2720  0.0837 -0.1028
11188W        W30042   5.553  16.666   0.909  0.0453  0.0461  0.1587
11189W        W30043   4.147  10.368   1.226  0.3123 -0.0492  0.0534
11190W        W30044   9.161   2.812   0.469  0.2652 -0.2314  0.2049
11191W        W30045  12.168  17.591   1.428 -0.1467  0.1888  0.0061
11192W        W30046   8.198   4.892  10.580 -0.2712 -0.0180 -0.1169
11193W        W30047  12.773   0.182   0.702  0.0288  0.0538  0.1176
11194W        W30048   4.264  17.443   0.132 -0.2036  0.1755  0.1193
11195W        W30049  18.563   4.205  14.254  0.2030 -0.0681 -0.3124
11196W        W30050  10.003  18.055   2.678  0.2286 -0.1005 -0.3173
11197W        W30051  15.060   8.307   0.870  0.4267 -0.4161  0.2149
11198W        W30052  17.282   1.309  10.906  0.2189  0.0522  0.4084
11199W        W30053   5.648   9.116   1.422 -0.3153  0.0786  0.0834
11200W        W30054   2.897  16.143   1.394 -0.0424 -0.4147 -0.2004
11201W        W30055   0.984   7.120   4.265  0.1021 -0.2986 -0.1283
11202W        W30056   5.782   5.460  11.493 -0.3025 -0.0624 -0.2846
11203W        W30057  12.416  18.082   0.583  0.1017  0.2237  0.0082
11204W        W30058   6.574   3.441  11.387 -0.0200 -0.0858 -0.0664
11205W        W30059  12.492   9.597  11.345  0.4076 -0.2399 -0.4740
11206W        W30060   9.989   1.402   2.601  0.1123  0.1071  0.1506
11207W        W30061   6.811   5.650   2.475  0.1782  0.0247 -0.0049
11208W        W30062  18.697  18.805   1.311  0.4888 -0.0570  0.0616
11209W        W30063  17.276   1.838  10.993 -0.0902  0.0579  0.1672
11210W        W30064  12.918  11.386   2.129  0.3826 -0.2202 -0.0266
11211W        W30065  14.334   0.918   0.412 -0.1003 -0.3601  0.1602
11212W        W30066  17.340   5.627  14.286  0.0390 -0.1707 -0.2967
11213W        W30067  17.893  10.243   1.989 -0.2527 -0.0984  0.2100
11214W        W30068  13.675  12.918  12.643 -0.0781 -0.2689 -0.0798
11215W        W30069  18.201   5.437  11.321  0.0725 -0.1385  0.0965
11216W        W30070   3.948   1.715  10.829  0.5366  0.3208  0.2288
11217W        W30071   8.372  15.023  11.822  0.0371  0.5511  0.0828
11218W        W30072   1.907   9.141  14.347  0.0832  0.4119 -0.0899
11219W        W30073  13.219   7.519  14.470 -0.1173  0.0924 -0.0629
11220W        W30074  15.257   7.997   0.326 -0.1557 -0.0645  0.3142
11221W        W30075   2.521   3.481   1.320 -0.0671  0.1767  0.0380
11222W        W30076   9.271   2.027  12.381 -0.2495  0.5404  0.1781
11223W        W30077   3.808   6.913  13.364 -0.1043 -0.1210 -0.2461
11224W        W30078  18.894  14.420  14.369  0.1334 -0.0393  0.2754
11225W        W30079  15.124   4.114   3.035  0.2279  0.0752 -0.1171
11226W        W30080  10.400  18.451  14.630 -0.1047  0.4110 -0.0689
11227W        W30081  15.802  10.309   9.594 -0.1547  0.0977  0.0959
11228W        W30082   1.881  17.314   1.601 -0.0245 -0.2050  0.1602
11229W        W30083   9.183  17.471  11.484 -0.0041  0.0457 -0.0363
11230W        W30084  11.583   0.425  12.677 -0.4365  0.5813  0.2669
11231W        W30085   8.050   8.308   2.705  0.1030 -0.0481 -0.1288
11232W        W30086  11.759   8.601   9.406 -0.0261  0.2046  0.3309
11233W        W30087  16.395   3.521   3.611 -0.2087  0.0533 -0.1462
11234W        W30088   3.421   4.271  11.791  0.0146 -0.0082  0.0663
11235W        W30089  14.539  13.880  10.007 -0.0097  0.2764  0.0078
11236W        W30090   3.278  10.208   0.153 -0.3534 -0.3527  0.1679
11237W        W30091  14.216  13.850  13.063  0.1779  0.0951 -0.1268
11238W        W30092   8.282  10.472   0.654  0.0261 -0.1238  0.0114
11239W        W30093   3.543   8.071  12.970  0.3166 -0.1849  0.3962
11240W        W30094   6.948   4.282   2.071 -0.0533  0.1693  0.0454
11241W        W30095  15.092  17.471   4.822 -0.3457  0.0065  0.0751
11242W        W30096  18.838   9.720   4.101  0.1948 -0.0840 -0.0425
11243W        W30097  11.789  11.094   3.167 -0.0577  0.1315 -0.1923
11244W        W30098   1.373  14.868   3.311  0.0389  0.0346 -0.1649
11245W        W30099  19.008   1.098   2.210 -0.2103  0.3494  0.2240
11246W        W30100  10.736  19.067  13.725  0.2441 -0.0563 -0.0317
11247W        W30101  11.966   4.559   3.643 -0.1569 -0.0345  0.1782
11248W        W30102   7.094  18.637   3.446  0.2263 -0.0018  0.1511
11249W        W30103  16.780  12.110   3.230  0.5052 -0.0145  0.3927
11250W        W30104   3.707   4.312   3.724  0.0356 -0.2601 -0.3477
11251W        W30105   8.413  15.643   3.214 -0.0543 -0.3018  0.2411
11252W        W30106  13.956  11.786   2.312 -0.1149 -0.1707 -0.0334
11253W        W30107   5.045   1.005  10.200  0.0704 -0.1709  0.0367
11254W        W30108   1.454  17.673  12.251 -0.0350 -0.1023 -0.0727
11255W        W30109  10.213  12.145   3.379 -0.2149 -0.3483 -0.1096
11256W        W30110  12.278   4.704  12.021 -0.5067  0.1314 -0.2411
11257W        W30111   5.800  18.585  14.356 -0.0397  0.3307  0.0633
11258W        W30112  12.422   2.644   2.254 -0.1120 -0.0774 -0.0504
11259W        W30113  14.119  10.365  14.632  0.0623  0.0861  0.1481
11260W        W30114  13.490  11.478  13.144  0.0323  0.1229  0.0451
11261W        W30115   0.773  17.919  13.465  0.0517 -0.0201 -0.2169
11262W        W30116  11.503  15.637  13.374 -0.1772 -0.3220 -0.2448
11263W        W30117   4.220  16.651   1.540  0.0392  0.3525 -0.1068
11264W        W30118   4.876   9.744   2.456  0.0264 -0.0574  0.1686
11265W        W30119   3.667  16.526  14.504 -0.1981 -0.4207  0.0820
11266W        W30120   0.596   4.736   1.319  0.2531 -0.1946  0.0268
11267W        W30121   1.851   4.031   0.720 -0.0924  0.1886 -0.0697
11268W        W30122  11.250   2.179  11.021  0.2303 -0.0115 -0.3271
11269W        W30123  18.304   5.671   9.785 -0.0863  0.0653 -0.2025
11270W        W30124  12.080  14.733   4.593 -0.2685 -0.0362  0.0578
11271W        W30125  12.249   7.182  14.693 -0.1280 -0.3987 -0.1151
11272W        W30126   8.131   7.784   0.447  0.3037  0.0704 -0.1850
11273W        W30127  13.106  15.159  10.766  0.1069  0.2441  0.0209
11274W        W30128   1.929  14.600   4.741 -0.2228 -0.1295  0.2866
11275W        W30129  12.782   3.074   0.663 -0.1584  0.0860 -0.5107
11276W        W30130  11.655  17.216   2.552  0.1996 -0.0952  0.1184
11277W        W30131   5.750  14.723   0.245 -0.1400 -0.0387 -0.1661
11278W        W30132   1.138  17.288   3.982 -0.0059 -0.0291 -0.4825
11279W        W30133  13.764   5.537   0.653 -0.0233  0.0236 -0.2131
11280W        W30134  15.726   9.662   1.321  0.0598  0.3937 -0.2042
11281W        W30135   1.690   1.292   3.646 -0.2027 -0.0567 -0.3365
11282W        W30136   0.669   0.224  13.619 -0.1307 -0.0234  0.0323
11283W        W30137   3.499   4.763  11.585  0.0866  0.3445  0.0125
11284W        W30138  14.422  12.357  12.011  0.1209  0.1531  0.2716
11285W        W30139  19.185   1.825   1.534  0.0104  0.0497  0.1762
11286W        W30140  17.009  15.311  12.425  0.1563  0.1326 -0.1802
11287W        W30141   1.291   7.662   4.261  0.0334 -0.3859  0.1293
11288W        W30142   3.695   5.615  13.818  0.0139  0.1317  0.0552
11289W        W30143  11.655   6.808  13.455 -0.2629 -0.1808  0.1924
11290W        W30144   1.850   8.128   1.934  0.2159  0.2159  0.1368
11291W        W30145   6.214   3.341  13.469 -0.1799  0.0116 -0.0637
11292W        W30146   8.146  16.551   0.680 -0.0056 -0.2346 -0.2160
11293W        W30147   4.610   0.071   0.844 -0.0990 -0.0090  0.2025
11294W        W30148  11.286   5.719  14.383 -0.1787  0.2887 -0.0897
11295W        W30149   7.474   0.038  12.969  0.0193  0.3645  0.2073
11296W        W30150   3.674   1.997   1.304 -0.1604 -0.1921 -0.0401
11297W        W30151  10.885  16.764  11.797 -0.0236  0.2241 -0.4224
11298W        W30152  13.965  18.164   3.218  0.0034 -0.0930 -0.1266
11299W        W30153  10.834  18.525   3.655  0.1829  0.0510 -0.3416
11300W        W30154  18.980   0.324   0.192 -0.4088 -0.1061  0.2711
11301W        W30155   2.747   3.925  13.164 -0.1082  0.4654 -0.0466
11302W        W30156  14.079  10.518  11.136 -0.1686 -0.2099 -0.4943
11303W        W30157  17.838   1.994  12.599 -0.0649  0.0501  0.1553
11304W        W30158   0.053  15.951   3.432  0.1601  0.1140  0.0838
11305W        W30159   6.538  16.019   3.418 -0.0128  0.1064  0.0210
11306W        W30160  12.622   0.206   4.271  0.0253 -0.1494  0.2477
11307W        W30161  17.230  11.403  13.709  0.1319 -0.3323  0.1309
11308W        W30162   6.308  10.501   0.270 -0.1998  0.1117  0.0770
11309W        W30163  10.821   0.313  12.971  0.2373  0.1127  0.1584
11310W        W30164  11.716   6.779  10.046  0.0208 -0.2357  0.0299
11311W        W30165  16.559   0.352   3.623  0.0185 -0.2580 -0.0468
11312W        W30166  11.199  16.848   4.844  0.0580  0.0724 -0.0212
11313W        W30167   3.699  18.777   4.948  0.0907 -0.0031  0.0774
11314W        W30168  16.279  14.268   3.916  0.3275  0.0922 -0.3157
11315W        W30169   5.945   2.819  12.826 -0.4283 -0.1342 -0.1361
11316W        W30170  16.330  17.928   1.605  0.0880  0.4236  0.0925
11317W        W30171   6.594   1.073  12.308  0.1374 -0.2554  0.1460
11318W        W30172   2.069   7.941  13.177  0.2085 -0.0408  0.0050
11319W        W30173  18.090   1.116  12.090 -0.2009  0.0022  0.1408
11320W        W30174   7.103   9.724   3.006  0.2669  0.0824  0.0187
11321W        W30175   9.795  13.070   9.717 -0.0466 -0.2602 -0.1368
11322W        W30176   5.118  11.290   1.987  0.2128  0.2253  0.2878
11323W        W30177  17.545  14.957  13.292  0.1009  0.2630 -0.0028
11324W        W30178   8.730   0.721  14.523 -0.1314 -0.0989  0.3927
11325W        W30179   1.399  17.734   3.679  0.0041 -0.0616  0.1115
11326W        W30180  16.671   8.299   2.155  0.0001 -0.2372  0.0818
11327W        W30181  14.498   7.073   0.470  0.0050  0.2294  0.4648
11328W        W30182   4.602  13.392   2.243  0.1767  0.0741  0.1489
11329W        W30183   6.957   4.819   2.703 -0.0494  0.1960 -0.3434
11330W        W30184   5.824  11.737   3.896  0.0782 -0.0459 -0.0083
11331W        W30185   1.050   6.178  11.587 -0.0611  0.4025 -0.1101
11332W        W30186  13.767   7.124  12.735 -0.0209  0.1369  0.2861
11333W        W30187   9.264   8.575  10.480  0.0398 -0.4359 -0.0750
11334W        W30188   7.598   3.507  13.510  0.1901 -0.0236 -0.0191
11335W        W30189  17.292   2.297  11.698 -0.1498  0.3441 -0.1443
11336W        W30190   4.307  10.692  11.347 -0.0895 -0.1990 -0.1539
11337W        W30191   3.275   3.117   1.809 -0.0949 -0.0181 -0.1248
11338W        W30192   7.273   6.110   3.353  0.0003 -0.0135 -0.0796
11339W        W30193   6.588   8.714  13.908 -0.1628 -0.2697  0.1617
11340W        W30194  10.399   8.832   2.134  0.1715  0.2022  0.1590
11341W        W30195  17.738  14.356  11.501  0.0962 -0.0018 -0.0066
11342W        W30196  12.576  13.881  11.124 -0.1024  0.2537 -0.2799
11343W        W30197   4.700  14.080   2.333 -0.2726  0.2900  0.1669
11344W        W30198   9.987  18.920  12.874  0.1924 -0.0717  0.1217
11345W        W30199   0.558  12.025  12.696 -0.3054 -0.0551  0.0127
11346W        W30200  17.373  18.214  14.276  0.0127  0.3448 -0.1114
11347W        W30201   3.986   8.301  11.327  0.0479 -0.1635  0.3901
11348W        W30202  18.143   6.858  11.444  0.0555 -0.1453 -0.1157
11349W        W30203  16.617   3.793  10.572 -0.0193  0.0326 -0.0193
11350W        W30204   4.923  14.826   1.760 -0.2872  0.0114 -0.1838
11351W        W30205   7.846   7.205  14.503  0.0673  0.1585  0.0940
11352W        W30206   4.200  13.349   1.854  0.0823 -0.0316 -0.0126
11353W        W30207   8.645  17.968  13.612  0.0392  0.0467 -0.1514
11354W        W30208   9.461   4.996   3.666  0.1117 -0.3565  0.0821
11355W        W30209   2.733  16.903  11.599 -0.0710 -0.3107  0.3580
11356W        W30210   9.956   4.301   0.658 -0.0052  0.1828  0.0135
11357W        W30211   5.489  18.113   3.232  0.2239  0.0103  0.1969
11358W        W30212   8.451  10.679   3.264  0.0778  0.0166  0.1484
11359W        W30213  16.095   4.267  13.997  0.0309 -0.0536  0.0903
11360W        W30214   3.333  13.029  11.655 -0.3563  0.0237 -0.0142
11361W        W30215  14.683  17.899  13.712  0.3949 -0.1717 -0.1736
11362W        W30216   2.386  15.332   4.078 -0.1638  0.0561 -0.5034
11363W        W30217  18.001  14.556   2.705  0.0479  0.0885 -0.3379
11364W        W30218   3.672   9.492  12.059 -0.1395  0.2071  0.3050
11365W        W30219  18.703   2.802   0.944 -0.0541 -0.1661  0.3474
11366W        W30220  10.615  10.203  12.656  0.2637  0.1046  0.0103
11367W        W30221   0.703  14.288   0.015 -0.3026  0.3111 -0.1591
11368W        W30222   1.812   5.139  12.379 -0.0214 -0.2134 -0.2656
11369W        W30223   3.736  17.502   3.725 -0.2564 -0.1311 -0.3855
11370W        W30224   4.444  15.922  10.605 -0.0434  0.1060  0.2148
11371W        W30225  11.785  12.722   1.743 -0.0003 -0.3000 -0.1336
11372W        W30226   5.135   4.700   9.507  0.0014  0.3217 -0.4202
11373W        W30227  10.493  17.469   1.305 -0.2293  0.0450 -0.0983
11374W        W30228  11.357   9.488  10.175 -0.2538  0.2297  0.2471
11375W        W30229  16.473   4.803   3.595 -0.3656  0.0535 -0.0217
11376W        W30230   1.778   2.324   2.712  0.2205 -0.2091 -0.2144
11377W        W30231   3.895   0.433   3.825 -0.1336 -0.0096  0.1518
11378W        W30232  18.676  12.644   2.275 -0.1142  0.0310 -0.2239
11379W        W30233  14.519  18.951   2.533 -0.1054 -0.1373  0.0015
11380W        W30234  14.370  10.616  11.579  0.0052 -0.1479  0.2208
11381W        W30235   1.569   8.817   0.717 -0.2264  0.2513 -0.1133
11382W        W30236  11.653  14.125   2.566  0.2818 -0.1858  0.0457
11383W        W30237   3.569  14.809   3.100  0.0972 -0.1506  0.1934
11384W        W30238   8.524   7.511   0.380 -0.2544  0.2330 -0.3059
11385W        W30239  18.036  18.064   1.010 -0.2092 -0.2912 -0.2270
11386W        W30240   1.312  13.680  11.041 -0.1160 -0.2326  0.1783
11387W        W30241   5.631   8.943   3.908  0.1061 -0.0966 -0.2522
11388W        W30242  16.746  18.583   4.942  0.0510  0.2112  0.0841
11389W        W30243   9.742   4.030  13.720  0.0149  0.0498  0.3236
11390W        W30244   4.914   5.380   3.484  0.0549  0.1162  0.0138
11391W        W30245  10.921  10.673  11.479 -0.1819 -0.3307 -0.0760
11392W        W30246   7.008  19.026   3.694  0.1217  0.2144  0.1598
11393W        W30247  12.356  17.185   3.224  0.0136  0.1536  0.0407
11394W        W30248  18.501   8.800   4.417  0.0394  0.1837  0.0255
11395W        W30249   2.579   1.712   3.739  0.0757 -0.1638 -0.5949
11396W        W30250  13.729   8.420  12.909  0.3233 -0.0509 -0.2932
11397W        W30251   6.277  17.141   3.453 -0.0754  0.1364  0.0385
11398W        W30252   3.625  16.255  13.612 -0.0782  0.0431  0.1920
11399W        W30253  17.828  11.904  13.025  0.0571 -0.1201  0.5275
11400W        W30254   6.555  12.316  11.424 -0.0439  0.0136  0.1183
11401W        W30255  13.908   9.012   2.314 -0.0626 -0.1047  0.0955
11402W        W30256   0.021   3.296  12.168  0.0048  0.4314  0.4711
11403W        W30257   8.639   3.873  11.783  0.1540  0.0815  0.0200
11404W        W30258   9.764  11.033  10.566 -0.0263 -0.1867 -0.0380
11405W        W30259  18.743  11.686   4.282  0.1160 -0.1156  0.2025
11406W        W30260  14.120   9.901  13.781  0.0443  0.0712 -0.1853
11407W        W30261   9.960  16.059   1.750 -0.1583  0.0444 -0.1025
11408W        W30262   8.626  16.250  12.761 -0.0489 -0.0835  0.1019
11409W        W30263   3.223   0.550   3.204 -0.0733  0.4179 -0.0378
11410W        W30264   4.320  15.513   2.881  0.1780  0.0348 -0.0278
11411W        W30265  14.282  16.472  11.899 -0.2455  0.0290  0.0724
11412W        W30266   5.972  16.025   2.625  0.0901 -0.1495 -0.0630
11413W        W30267  11.338  13.025  13.205 -0.0210 -0.1840  0.2835
11414W        W30268   3.044   0.177   4.220 -0.1245 -0.0571 -0.3680
11415W        W30269   7.748  13.105  14.214 -0.2773 -0.1310 -0.0347
11416W        W30270   4.142   5.997   2.182  0.0160 -0.3393 -0.3021
11417W        W30271   1.525  12.896   4.554 -0.0871 -0.3218 -0.3052
11418W        W30272  18.733  12.097  11.657  0.0791  0.2653 -0.1091
11419W        W30273   9.415  10.906   4.950 -0.3055 -0.0578 -0.2276
11420W        W30274  17.541   7.014  13.800 -0.0121 -0.0283 -0.3966
11421W        W30275  11.153   0.606  13.809 -0.0023  0.1221 -0.1583
11422W        W30276   5.525  14.153  10.616  0.1071  0.3823  0.2686
11423W        W30277  17.077   5.583   1.549  0.0806 -0.0691 -0.0162
11424W        W30278   9.652  12.564  14.724  0.3543 -0.3030 -0.1745
11425W        W30279   5.405  10.484   2.990 -0.1203  0.1524  0.1348
11426W        W30280  16.571  17.439   0.618  0.1933  0.0124 -0.0768
11427W        W30281   5.435   6.589  12.655 -0.0436  0.0189 -0.0269
11428W        W30282  10.493   3.113   3.175 -0.0326 -0.1941 -0.0300
11429W        W30283   6.387  17.500  13.424 -0.1841  0.0005 -0.0895
11430W        W30284  13.793  14.189   4.075  0.0787  0.0846 -0.3597
11431W        W30285  18.296  18.660   3.442 -0.1346  0.1838  0.0266
11432W        W30286  14.797   5.112   0.809 -0.1457 -0.0440 -0.0675
11433W        W30287  15.868   1.013  10.907 -0.2058 -0.0142  0.1065
11434W        W30288  10.016   2.143   2.254 -0.0740 -0.0111 -0.0569
11435W        W30289  12.284   0.824  11.038  0.1728 -0.0586 -0.1554
11436W        W30290   4.462  18.379  12.811 -0.1432 -0.0824  0.3632
11437W        W30291  10.943   0.591   1.963 -0.0679  0.1385  0.0671
11438W        W30292   5.063   8.261   3.664  0.0280  0.1302  0.0863
11439W        W30293   2.790   3.241   3.062  0.1426  0.1042  0.2392
11440W        W30294  14.652  15.885  12.445  0.1083  0.1706  0.0122
11441W        W30295  11.014  17.959   0.282 -0.2010  0.1270  0.4800
11442W        W30296   2.794   6.250   2.630  0.2710  0.5045 -0.0816
11443W        W30297  19.017  12.421   0.307 -0.2110 -0.1607  0.2640
11444W        W30298   8.083   7.849   3.407 -0.0475  0.2344 -0.0792
11445W        W30299   2.713  15.798  13.315 -0.3015  0.3543  0.1141
11446W        W30300  15.194  11.772  13.447  0.0088  0.0952 -0.0376
11447W        W30301  10.546  10.482   4.148  0.1849  0.3006 -0.2589
11448W        W30302  14.375  12.923   0.661 -0.0410  0.1884  0.1903
11449W        W30303   3.429  17.911  10.100 -0.1089 -0.3394  0.2170
11450W        W30304  14.450  18.799  13.008 -0.3226 -0.0675 -0.0740
11451W        W30305   8.302  13.947   2.208  0.0841 -0.0873 -0.3494
11452W        W30306   5.991   2.055  13.339 -0.2053  0.0039  0.3054
11453W        W30307   8.488   6.567   3.010  0.1231  0.1089  0.2188
11454W        W30308   0.234  14.419  14.684  0.1376 -0.4732 -0.0528
11455W        W30309  18.590  12.122   4.523 -0.1539 -0.2427  0.2303
11456W        W30310  14.866  12.647  13.133 -0.1372  0.1237  0.1542
11457W        W30311  10.206   1.601  13.864 -0.0278 -0.2512  0.0463
11458W        W30312   0.240  13.542   3.406 -0.1578 -0.2761  0.3523
11459W        W30313   1.123   0.162  14.596  0.0381  0.2238 -0.0648
11460W        W30314  18.611   8.665   2.211 -0.1441  0.0420 -0.3045
11461W        W30315   5.025   9.822  11.627  0.1550  0.0401  0.0958
11462W        W30316  17.899  18.050  13.565  0.3294 -0.0955  0.0993
11463W        W30317  17.918  14.937   1.851  0.1728  0.1441 -0.1563
11464W        W30318  14.449   8.478  14.032  0.1607  0.1307 -0.1966
11465W        W30319  13.132   5.994  14.440  0.0399  0.0764 -0.2549
11466W        W30320  18.236  11.777   1.926 -0.1330  0.2568 -0.0271
11467W        W30321   5.213   8.714  10.911 -0.2275 -0.1157  0.5355
11468W        W30322   6.044   6.761   4.659 -0.1800 -0.1324 -0.2202
11469W        W30323  11.539  10.104  14.353  0.0764 -0.2679 -0.2393
11470W        W30324  12.929   4.716   1.164  0.1429 -0.1794 -0.1748
11471W        W30325   4.657  17.175   0.879 -0.1314  0.1736 -0.0456
11472W        W30326   4.833  18.818   4.230 -0.0659 -0.1200 -0.1035
11473W        W30327  11.570   9.997  13.343 -0.4418 -0.0412  0.0206
11474W        W30328  17.654  11.752  14.681 -0.3148  0.0997 -0.0223
11475W        W30329  16.698   3.922   3.828 -0.1010  0.0017 -0.6280
11476W        W30330  12.810  15.970   0.401 -0.4040  0.1469  0.0300
11477W        W30331   8.250   1.731  10.837  0.3848  0.3636  0.1090
11478W        W30332  10.779   9.900  14.405  0.1701 -0.0629  0.0561
11479W        W30333  11.672   4.967  12.797  0.2770 -0.0281 -0.3145
11480W        W30334  14.529   7.096   0.976  0.1762 -0.0999  0.0373
11481W        W30335   4.938   4.623  11.932 -0.2752  0.0454 -0.0340
11482W        W30336   8.496  12.630   2.036  0.1073 -0.2437  0.1317
11483W        W30337   3.003   7.298   1.855 -0.3918 -0.5431 -0.1497
11484W        W30338  12.323   3.694  13.922  0.2085  0.0461  0.0668
11485W        W30339   9.199   1.633  13.873  0.2960 -0.1644 -0.0130
11486W        W30340  12.142  18.477   1.926 -0.2077 -0.0568  0.1400
11487W        W30341  15.262   0.207  14.467  0.2092  0.0732  0.0713
11488W        W30342  12.880  18.028  13.600 -0.3385  0.4082  0.0401
11489W        W30343   0.596  16.036  11.280  0.1801 -0.0597 -0.1593
11490W        W30344  19.088  17.265   1.962  0.0792 -0.0219 -0.2010
11491W        W30345   9.378  18.058   1.741 -0.0261 -0.2959 -0.0422
11492W        W30346   6.040  14.226   1.638  0.0917  0.3199  0.2168
11493W        W30347   1.717   0.943   3.120  0.2765 -0.0684 -0.0377
11494W        W30348   6.221  15.723   0.809  0.2926 -0.0000  0.1079
11495W        W30349  14.551  18.613  11.148 -0.3200  0.0547  0.0026
11496W        W30350  17.923   2.740  12.105  0.0730 -0.3413 -0.4527
11497W        W30351   6.129   0.129   3.822 -0.0253  0.1236  0.1789
11498W        W30352   1.695   1.103  11.227 -0.0355 -0.1749 -0.2876
11499W        W30353   0.528  14.054   2.291  0.1892 -0.3187 -0.2923
11500W        W30354   7.442  15.247  12.467 -0.0527  0.2631  0.1548
11501W        W30355   2.783  16.001  10.514  0.0811  0.0030 -0.2330
11502W        W30356   6.916   3.930   3.346  0.1120  0.0197  0.1502
11503W        W30357  10.491   4.680  13.764 -0.4699  0.1126  0.2603
11504W        W30358   9.429   4.473  13.215 -0.1353 -0.0866 -0.1318
11505W        W30359   1.105   9.067   1.780 -0.2264 -0.3069 -0.0226
11506W        W30360   1.716   1.628  13.161  0.4521  0.0667  0.1232
11507W        W30361   1.209  18.726  14.524  0.0778  0.0527 -0.1746
11508W        W30362   1.494  13.440   1.247  0.2815 -0.3275 -0.3472
11509W        W30363  14.770   3.304  14.280 -0.2631  0.5292 -0.2271
11510W        W30364  14.149  11.832  11.876  0.1771  0.0409  0.0960
11511W        W30365  13.963   8.436   3.776  0.1765  0.1089 -0.0983
11512W        W30366  17.333   7.189   1.369  0.3062  0.0692  0.0782
11513W        W30367  17.171  16.865  12.357  0.0066 -0.3426 -0.3026
11514W        W30368   1.883  10.166  13.450  0.1043  0.1397  0.4219
11515W        W30369   9.437  15.148   2.934  0.3303  0.3703  0.4175
11516W        W30370  18.452  18.304   0.842 -0.1283 -0.0364  0.2206
11517W        W30371   6.919  14.402  11.064 -0.1108  0.0593 -0.0964
11518W        W30372   9.461  15.482   2.466  0.2649  0.0533  0.1904
11519W        W30373  16.672  11.420  12.092  0.0614  0.0545 -0.1396
11520W        W30374   2.809   5.237   4.145 -0.0895  0.0602  0.0317
11521W        W30375   0.881  10.556   3.298  0.1842  0.0108 -0.4275
11522W        W30376   9.852   1.658   3.876 -0.2113  0.0564  0.2913
11523W        W30377  16.330  13.627  13.835  0.2738 -0.0986 -0.1682
11524W        W30378  15.701   5.276   3.081 -0.3238 -0.0035  0.0631
11525W        W30379   7.132   8.746  13.854 -0.2635  0.3189 -0.3562
11526W        W30380   0.486   0.135  13.160 -0.0645 -0.1387 -0.1301
11527W        W30381   6.953   6.734  10.461  0.1088 -0.1680 -0.1871
11528W        W30382  18.961  15.220   1.238 -0.4530 -0.1411  0.2584
11529W        W30383   1.230   0.010   1.855  0.2936  0.4893 -0.0681
11530W        W30384   7.722  11.514  13.490  0.1601 -0.2745 -0.1437
11531W        W30385   5.328   3.981   9.464  0.0440 -0.3938  0.1151
11532W        W30386   6.527   9.294  14.479 -0.1592 -0.2856  0.0867
11533W        W30387   4.776  10.381   3.267  0.0344 -0.3016 -0.1887
11534W        W30388   2.654  11.584   2.535  0.1261  0.0222 -0.0362
11535W        W30389   6.892   6.029   0.120 -0.1021  0.1211 -0.0694
11536W        W30390   1.053   8.550  10.161 -0.3675  0.1951 -0.1574
11537W        W30391  13.415   8.959   4.586  0.0654  0.0611  0.2127
11538W        W30392  18.568  16.925   1.147 -0.1426 -0.0094  0.0015
11539W        W30393  15.021  12.744  12.025  0.0144 -0.0415 -0.1114
11540W        W30394  10.708  13.203   0.068 -0.0920 -0.1233  0.0846
11541W        W30395  17.019   8.294   2.536  0.0794  0.0232  0.1336
11542W        W30396   2.403   2.011   0.850 -0.2526 -0.2137  0.1465
11543W        W30397   0.143   8.170  13.052 -0.0569  0.2257  0.2572
11544W        W30398   5.602  13.894  14.481  0.0337 -0.0434 -0.1537
11545W        W30399  13.635  14.400   0.256  0.0515 -0.0409 -0.0797
11546W        W30400   7.567   2.286  11.594 -0.4686  0.0474  0.3032
11547W        W30401  12.584  10.476   2.324  0.3096 -0.0478  0.0281
11548W        W30402  10.752   9.724   0.325 -0.0581  0.0161 -0.0080
11549W        W30403  10.096   1.712  10.828 -0.0390  0.0048  0.1240
11550W        W30404   9.548   2.125  11.292 -0.1576  0.0081  0.2146
11551W        W30405   2.881   5.225  14.157  0.3268 -0.0716 -0.0498
11552W        W30406  12.276   3.281   0.615  0.3344 -0.1108 -0.1092
11553W        W30407  13.193  11.353  14.296 -0.2162 -0.1325 -0.0869
11554W        W30408   1.509   5.493   0.261 -0.2793  0.0664  0.4434
11555W        W30409   5.852  12.762  12.594  0.0008  0.0231 -0.1303
11556W        W30410   6.347   0.664   0.151 -0.0971  0.1893  0.0793
11557W        W30411   0.690  13.299   4.889  0.0518  0.0305  0.0609
11558W        W30412  14.967  14.365   0.030 -0.3785 -0.0886 -0.1684
11559W        W30413   0.235   0.971   1.056  0.0589  0.0890  0.2330
11560W        W30414  10.909   1.824   1.479  0.1037 -0.0477 -0.3881
11561W        W30415   5.332  10.010  14.577  0.0697  0.0522  0.0503
11562W        W30416  18.946  13.491   1.810  0.0437  0.4153 -0.1895
11563W        W30417  17.596  17.698  14.007  0.1649  0.1421  0.1873
11564W        W30418   0.784  16.578   0.804 -0.0028 -0.2580 -0.2712
11565W        W30419   6.101  18.313  12.139  0.0790  0.0987 -0.0643
11566W        W30420   5.435  15.218  11.560 -0.1905 -0.0936 -0.0383
11567W        W30421  12.650  16.021  11.860  0.1125 -0.1094  0.2029
11568W        W30422  11.381   6.988   2.724  0.2031  0.0083  0.1146
11569W        W30423   1.877  16.745   1.723 -0.0686  0.1403  0.1118
11570W        W30424   9.124   2.779  13.252  0.0583 -0.1563  0.0957
11571W        W30425   5.427   1.402   3.648 -0.0608  0.1266  0.0059
11572W        W30426   3.673  12.871   9.899 -0.3272 -0.3092  0.1080
11573W        W30427  12.539  16.787   2.736 -0.0276  0.0058 -0.1284
11574W        W30428   3.943  14.658   4.017 -0.0046  0.1117  0.2849
11575W        W30429   9.403   9.400   3.639  0.0761 -0.1702 -0.1524
11576W        W30430   4.164   8.870  12.743  0.0929  0.0683  0.2456
11577W        W30431  19.139   5.163   3.505  0.1501  0.2150 -0.2486
11578W        W30432  18.448  13.716  14.194  0.2125  0.0179 -0.1670
11579W        W30433   9.512  16.498   3.314  0.1421 -0.1010  0.0433
11580W        W30434  15.132  13.508  12.956  0.1870  0.0002  0.0721
11581W        W30435  12.146   7.071   3.305 -0.0113  0.2827  0.1558
11582W        W30436  10.613  12.413  12.871  0.1908  0.1263  0.1365
11583W        W30437   1.359  12.694   2.988 -0.1689  0.1503  0.0794
11584W        W30438   8.239   2.886   2.698  0.0910 -0.1163 -0.2611
11585W        W30439  18.465   9.228   9.689 -0.1748 -0.2387 -0.1064
11586W        W30440   2.930   8.138   0.262 -0.0745  0.1008 -0.0087
11587W        W30441  13.290   9.594  10.879 -0.0595  0.0355 -0.1546
11588W        W30442   1.848   3.015  10.613 -0.0188  0.2401  0.0166
11589W        W30443   8.847  12.827   3.947  0.0494  0.2051 -0.0060
11590W        W30444   1.221  17.556  14.188 -0.0017 -0.3506 -0.0657
11591W        W30445  16.174   9.421  14.138  0.1593 -0.2012 -0.2061
11592W        W30446   3.253  13.915   4.156 -0.1269  0.1247 -0.1008
11593W        W30447   0.341  15.179   2.009  0.0920 -0.2541 -0.2320
11594W        W30448   0.075  18.406  13.218 -0.1642 -0.2109  0.0203
11595W        W30449   5.784  13.591   3.748  0.1085  0.1998  0.1929
11596W        W30450  15.438   0.876  11.148 -0.3425  0.1936 -0.0105
11597W        W30451  15.749   6.745   2.124 -0.0750  0.2261 -0.1983
11598W        W30452  14.260   2.720   2.779  0.0569  0.0319  0.3078
11599W        W30453   0.141   3.229   3.461  0.2018  0.0850 -0.1063
11600W        W30454  15.693   1.873   2.100  0.1708  0.2341 -0.1315
11601W        W30455  10.626   1.830  13.592 -0.0388  0.0007  0.2815
11602W        W30456   2.127   3.802  13.062  0.0807  0.1244  0.2029
11603W        W30457   0.949   6.793  13.651  0.0722  0.0614  0.2188
11604W        W30458  13.706   4.074  11.166  0.3469  0.0648 -0.1797
11605W        W30459   5.346   5.259   3.057  0.0229 -0.4914 -0.2763
11606W        W30460  18.415   0.508   5.379  0.0072 -0.3935  0.1726
11607W        W30461  18.341   9.213  11.476  0.0165  0.0267 -0.2453
11608W        W30462  11.917   8.102   0.085 -0.1220 -0.3693 -0.0317
11609W        W30463  13.273  16.115   0.556 -0.0460  0.0531 -0.1298
11610W        W30464  11.420   3.524   2.968 -0.2634 -0.1371 -0.0304
11611W        W30465  11.612  19.067   2.963  0.0172 -0.0945 -0.0032
11612W        W30466  17.558  15.618   2.924 -0.3221  0.1174 -0.0566
11613W        W30467  16.088   0.747   3.727  0.0965  0.3562 -0.2451
11614W        W30468   5.947  17.044  14.144  0.2960  0.0262 -0.2329
11615W        W30469  10.248   6.179  13.428  0.1669  0.3823  0.1297
11616W        W30470   6.814  12.409  13.007  0.1484 -0.0496  0.1115
11617W        W30471   9.614   2.115   1.911  0.1065 -0.0371  0.1352
11618W        W30472  16.073   9.841  11.770 -0.1095  0.1623  0.2706
11619W        W30473  14.065  16.457  12.350  0.0985 -0.0166 -0.0083
11620W        W30474   6.744   2.947  10.897 -0.0783 -0.3098 -0.0900
11621W        W30475  14.774   0.157  13.513  0.3572  0.0823 -0.0306
11622W        W30476   7.490  12.724  10.415  0.0357 -0.1960 -0.1150
11623W        W30477   2.687  13.259   2.505  0.1513  0.0914  0.3809
11624W        W30478  10.799  14.026   2.007 -0.0327 -0.1386  0.1592
11625W        W30479  13.869  16.012  14.008 -0.2092  0.3102 -0.2484
11626W        W30480   9.094  16.061  12.534  0.0038 -0.0293  0.0669
11627W        W30481   7.689   3.376  14.019  0.1649  0.0753  0.1367
11628W        W30482  10.763   5.685   9.513  0.0886  0.3070  0.2342
11629W        W30483  18.054  11.984  10.863 -0.3151  0.1929 -0.1916
11630W        W30484  15.115  10.461  12.258 -0.3158 -0.2237  0.0401
11631W        W30485  18.148   9.762   2.113 -0.2649  0.2627  0.2885
11632W        W30486  13.738   3.321   9.770 -0.0362 -0.1891  0.0958
11633W        W30487   9.633   1.594  13.026 -0.1839  0.2866 -0.1718
11634W        W30488   4.379   3.041   1.484  0.1033 -0.0401 -0.1357
11635W        W30489   2.164  17.909  14.725  0.3081 -0.0223 -0.2296
11636W        W30490   7.994   7.663  14.208  0.2098  0.0216 -0.3809
11637W        W30491   1.953  17.286   4.410 -0.2886  0.2550  0.1879
11638W        W30492   7.626  14.147  11.979  0.2949 -0.0612 -0.0223
11639W        W30493   3.468  16.669  11.458 -0.2336 -0.0555 -0.1056
11640W        W30494   2.035   5.903  13.158  0.3750 -0.1748 -0.2112
11641W        W30495  17.673  11.185   1.402  0.1152  0.0662  0.4186
11642W        W30496   2.738  12.682   0.076  0.1538 -0.0345  0.2670
11643W        W30497  13.769   0.957  13.063  0.1242  0.0144  0.0172
11644W        W30498   1.244  17.440   0.240 -0.1867 -0.0718  0.3163
11645W        W30499  10.986  15.311  14.493  0.3046 -0.0555 -0.3807
11646W        W30500   4.969  15.851  13.678  0.0873 -0.0667 -0.3406
11647W        W30501  10.188   3.312   2.823 -0.0840  0.1339 -0.2058
11648W        W30502   5.800  10.326  12.845  0.1730  0.0325 -0.0345
11649W        W30503   6.694  11.817  10.969 -0.0039  0.2835  0.0770
11650W        W30504   5.447  15.405   0.780  0.0472  0.2205 -0.1400
11651W        W30505  13.847   3.062   3.873 -0.1013  0.3028 -0.1117
11652W        W30506  18.088   3.524  14.486  0.2077  0.0004 -0.0487
11653W        W30507  17.874  16.059   2.675 -0.0707  0.2095 -0.0489
11654W        W30508   9.830   4.194  10.214  0.1946 -0.0212 -0.0713
11655W        W30509   5.529   3.639  11.159  0.1218  0.0852 -0.1612
11656W        W30510   1.882  10.323  10.896  0.3544  0.1904  0.1149
11657W        W30511  17.941  12.894  10.866 -0.0483  0.2163 -0.1810
11658W        W30512   6.783  17.913   2.120  0.1794  0.0888  0.1943
11659W        W30513  13.043  11.448   0.126 -0.1921 -0.0577  0.2978
11660W        W30514  13.973  12.297  11.673  0.0891  0.1330 -0.3565
11661W        W30515  14.522   3.578  10.611 -0.2026 -0.2084 -0.2104
11662W        W30516  18.930   5.852   2.392  0.2109 -0.2511  0.2938
11663W        W30517  16.789   3.774   2.766 -0.1321  0.1706 -0.2058
11664W        W30518   6.944   3.927   3.870  0.3290 -0.2061 -0.1019
11665W        W30519   6.162  11.144   3.001 -0.4283 -0.0622  0.1693
11666W        W30520   3.956  14.555   4.509  0.0012 -0.0329  0.1351
11667W        W30521  18.278  12.001  12.270  0.0882 -0.1402 -0.2771
11668W        W30522   9.450   3.277   3.977  0.0110  0.1496 -0.0336
11669W        W30523  16.909   7.543   3.893  0.2278 -0.0175  0.2097
11670W        W30524   9.278   9.398  10.996  0.0692 -0.0556  0.0563
11671W        W30525  12.002  10.063   1.004 -0.0885 -0.3137  0.0994
11672W        W30526   5.817  12.298   0.466  0.0941 -0.0317 -0.1385
11673W        W30527  17.387  14.283   2.996  0.0374  0.0688 -0.2086
11674W        W30528  15.056   7.386  12.797 -0.3283 -0.2861 -0.1448
11675W        W30529  16.108  15.661  12.212  0.0272 -0.1521 -0.1297
11676W        W30530  12.409   6.326  11.649 -0.1287  0.1151 -0.1884
11677W        W30531   2.295   7.768  12.308 -0.2227 -0.1364  0.3826
11678W        W30532  17.157   3.615   1.360  0.1888  0.1244 -0.0130
11679W        W30533   7.210   8.016  12.377  0.6095  0.0457 -0.1622
11680W        W30534   4.221  17.253  12.394  0.0760  0.1021 -0.2831
11681W        W30535   7.165   7.726  10.498 -0.1507 -0.0416  0.3026
11682W        W30536   9.080   6.165  10.405  0.1603 -0.2928  0.1079
11683W        W30537  10.465   9.438  10.450 -0.0695  0.1688 -0.0690
11684W        W30538   1.275  16.196  11.232 -0.1068 -0.0900 -0.2672
11685W        W30539   1.374   6.652   4.929 -0.1052  0.0106 -0.1672
11686W        W30540  17.109  13.128   2.575  0.2478  0.0474 -0.1886
11687W        W30541  14.691  16.255  13.874 -0.2742 -0.0220 -0.1137
11688W        W30542  12.764  15.646  11.222  0.1166 -0.0169  0.0156
11689W        W30543   5.310  18.839   4.249  0.3494 -0.0698  0.1114
11690W        W30544   4.576  16.691   3.963  0.2444 -0.3055  0.2694
11691W        W30545  17.995  12.495  13.401 -0.0271 -0.3348 -0.0318
11692W        W30546  14.690  12.459  13.945 -0.2650 -0.2624  0.1849
11693W        W30547  14.294   2.536   3.224  0.1394 -0.0285 -0.3175
11694W        W30548  12.200  11.772   0.766 -0.0344  0.0954 -0.1080
11695W        W30549   0.818  17.200  14.206  0.0885  0.1097 -0.3724
11696W        W30550   3.662  11.677   1.422  0.2546  0.1113  0.1694
11697W        W30551  11.685   8.483  10.007 -0.2635  0.2020 -0.0556
11698W        W30552  12.483  15.314   2.100  0.1675  0.0597 -0.2679
11699W        W30553  12.103   3.692   3.801  0.0157  0.1441  0.0657
11700W        W30554   3.109  14.653   3.942  0.1902  0.1826 -0.0157
11701W        W30555  14.087  14.029  14.124 -0.0366 -0.2574 -0.2051
11702W        W30556   0.806   2.655   3.817 -0.1427 -0.0133 -0.1583
11703W        W30557   1.597   8.393  13.310  0.1003 -0.0869 -0.0419
11704W        W30558  12.322   3.626   1.972 -0.0997  0.4052 -0.0256
11705W        W30559   3.798   6.556   2.659 -0.1145  0.0914 -0.2598
11706W        W30560   1.561  16.102  10.581 -0.0142 -0.3969  0.0771
11707W        W30561   3.894  11.188   1.516 -0.2659 -0.1324 -0.0127
11708W        W30562  13.118   9.012   1.037  0.2015 -0.3794  0.4233
11709W        W30563   5.951  14.701   1.688  0.0119  0.0237 -0.2585
11710W        W30564  10.756   0.750  13.309 -0.2886  0.4016 -0.1825
11711W        W30565  18.239   6.322   0.115  0.2136  0.0075 -0.4188
11712W        W30566  15.340  12.063  10.926 -0.2332 -0.5661 -0.0786
11713W        W30567   1.661   2.201   3.874 -0.2676 -0.2010 -0.2004
11714W        W30568   2.734  11.877  11.874 -0.2889 -0.0026 -0.0265
11715W        W30569  12.122  15.959   3.835 -0.1546 -0.2134 -0.0690
11716W        W30570   0.029   8.419  14.283  0.2412 -0.2664 -0.1638
11717W        W30571   9.550  19.016   0.189 -0.0100  0.2491 -0.0298
11718W        W30572  18.764   2.164  12.302  0.1170 -0.1519 -0.2414
11719W        W30573  10.919   9.198   2.927  0.0934  0.0473 -0.2437
11720W        W30574   2.526  13.736   2.362  0.0498 -0.1231 -0.2565
11721W        W30575  17.788   8.449   1.356  0.1424  0.1156 -0.2530
11722W        W30576   9.833  17.534  14.388  0.0881 -0.0607  0.0860
11723W        W30577  11.553   6.856  11.472  0.0352 -0.2024  0.3353
11724W        W30578  16.385  16.252  14.525  0.0651 -0.1628  0.4012
11725W        W30579  14.939   9.390   1.945  0.2860  0.0008  0.0257
11726W        W30580  16.175   2.822  11.116  0.0082  0.3209  0.0746
11727W        W30581  16.345  11.053   3.913  0.3977  0.2965 -0.0327
11728W        W30582  10.577   1.328  12.028  0.1660 -0.0901 -0.0096
11729W        W30583   5.607   2.982  14.625 -0.0921  0.2628  0.1607
11730W        W30584  10.285   4.464   1.002 -0.4648 -0.0133  0.0961
11731W        W30585   7.656  16.181  12.242  0.1559 -0.0207 -0.0188
11732W        W30586   2.637   3.647  11.522  0.1734 -0.2668  0.0377
11733W        W30587   8.830   9.249   0.389  0.0723 -0.1908 -0.0395
11734W        W30588   0.313   9.087   0.723  0.1435 -0.1820  0.2945
11735W        W30589  10.303   6.620   2.447  0.2047 -0.1822  0.3022
11736W        W30590  13.302  16.506  13.455 -0.2613 -0.0605 -0.0582
11737W        W30591   1.187  14.240  14.545  0.0059  0.3108  0.2202
11738W        W30592   2.071  13.992   2.495 -0.1832 -0.4724 -0.2816
11739W        W30593  16.451  13.952  12.273  0.0522  0.1832  0.0449
11740W        W30594   1.314  11.923   2.526 -0.2573 -0.2709  0.2601
11741W        W30595  11.888   8.826  11.612 -0.0713 -0.2833 -0.0125
11742W        W30596   6.147   8.210   2.835  0.1841  0.1053  0.2237
11743W        W30597  10.500  10.460   2.094  0.0635 -0.1566 -0.2459
11744W        W30598   7.125  18.440  14.586  0.0614 -0.3392  0.0623
11745W        W30599   6.613   2.534  10.671  0.0230 -0.1200 -0.2184
11746W        W30600   0.479   4.117   0.664 -0.1207 -0.1235 -0.0329
11747W        W30601   3.261   4.975  13.941  0.3194  0.0830  0.2289
11748W        W30602  12.279   2.979  14.158  0.0989 -0.0601  0.1922
11749W        W30603  18.639   2.270   1.027 -0.1605  0.0495  0.0094
11750W        W30604  15.318   5.540   3.799  0.0028 -0.1455  0.1254
11751W        W30605  16.226   1.032   1.002 -0.0554 -0.1769  0.0378
11752W        W30606   9.085  17.617   2.480 -0.0702 -0.2495  0.1623
11753W        W30607  10.973   8.079   1.945 -0.0100  0.0741 -0.1172
11754W        W30608   5.035   8.376  10.602 -0.0001 -0.0425  0.3800
11755W        W30609  10.348  11.424  13.178  0.2912  0.0078  0.3269
11756W        W30610  17.640  10.591  13.415 -0.1112  0.2445  0.3340
11757W        W30611   9.632   1.186   0.822 -0.0158 -0.1759 -0.0347
11758W        W30612  18.737   1.318  12.321  0.0284  0.1917  0.1393
11759W        W30613  18.817   3.998  13.869  0.0992  0.0147  0.0627
11760W        W30614  10.690  18.621   3.162 -0.1389 -0.2605 -0.4125
11761W        W30615   7.877   7.296   3.056 -0.2251 -0.0415 -0.0121
11762W        W30616   1.801  17.778   2.898 -0.2998 -0.0253 -0.2802
11763W        W30617  11.539  17.451  12.306 -0.0013 -0.0783 -0.2368
11764W        W30618   1.606   5.013   1.403  0.3527  0.0843 -0.0924
11765W        W30619   0.839  15.073  10.999 -0.0413  0.1209  0.0866
11766W        W30620  15.611  12.438  12.958 -0.0498 -0.0347  0.0319
11767W        W30621   7.929   8.865   1.607 -0.1209  0.1989  0.1773
11768W        W30622   7.018  10.673  13.970  0.0798  0.0863 -0.4697
11769W        W30623  11.749  16.299   1.085 -0.0328  0.2325  0.1670
11770W        W30624  12.941  16.041   3.141  0.0204  0.1510  0.0844
11771W        W30625  11.261   5.442   3.904  0.1090  0.1354  0.0008
11772W        W30626  12.000  10.579   3.069 -0.0145 -0.1811 -0.0298
11773W        W30627   7.335   9.316  10.997  0.0219 -0.3364  0.1977
11774W        W30628  11.355   3.048  12.512 -0.0897 -0.1025  0.3588
11775W        W30629  14.554  12.371  10.150  0.2577  0.4275  0.3427
11776W        W30630  16.750   5.701  12.926 -0.0474 -0.2232 -0.2159
11777W        W30631  18.463  14.456   3.733  0.0546  0.1312 -0.1034
11778W        W30632  13.225  14.557  13.403 -0.3816  0.0627  0.2600
11779W        W30633  12.469  15.249  11.212 -0.1904  0.2455 -0.3397
11780W        W30634   7.093  16.830  10.715  0.2191  0.1786 -0.1207
11781W        W30635  15.652   5.405  11.456 -0.0254  0.2107  0.0148
11782W        W30636   2.941  17.208   0.128 -0.0686  0.1809  0.1285
11783W        W30637   3.859   0.848  13.694 -0.2363  0.2275 -0.1599
11784W        W30638  18.815  15.168   4.385  0.3202  0.1366  0.0462
11785W        W30639   4.210  12.870   1.637  0.2319 -0.0865  0.6355
11786W        W30640   2.679   0.452   2.961 -0.0152 -0.0601  0.0168
11787W        W30641  16.288  17.461  11.078 -0.1298  0.0044  0.0642
11788W        W30642  16.944  12.250   2.266  0.0635 -0.3053  0.0162
11789W        W30643  14.731   0.541   4.309 -0.1004 -0.2590  0.0578
11790W        W30644   9.307   3.398   2.836  0.1948 -0.1907 -0.0259
11791W        W30645  14.963   9.508   0.625  0.1372 -0.2023  0.2236
11792W        W30646  12.921  10.582  14.412  0.0330  0.0605  0.2626
11793W        W30647   8.832   8.804   2.950  0.1790 -0.1596 -0.2348
11794W        W30648  16.593   5.760  11.482 -0.1429  0.0798 -0.0041
11795W        W30649   2.196  12.063  11.780  0.1985  0.0448 -0.2389
11796W        W30650  14.143   8.304   2.015 -0.1327  0.0039  0.2375
11797W        W30651   8.805   6.259   3.220  0.1888  0.1282 -0.1293
11798W        W30652  18.390  15.520  10.336  0.3668 -0.0635 -0.0300
11799W        W30653   0.176  18.731   1.940  0.2471 -0.2898  0.0322
11800W        W30654  17.636  11.439  14.222  0.0196 -0.0038 -0.2220
11801W        W30655  13.905  10.845  14.508  0.2289  0.0694  0.2494
11802W        W30656  14.527   1.784  12.884  0.1982  0.0599  0.3643
11803W        W30657  15.730  10.715   2.823  0.1387  0.0807 -0.3425
11804W        W30658  13.540   7.849   0.476  0.0607 -0.0138 -0.0871
11805W        W30659  15.015   3.198   1.433  0.0190  0.0203  0.1597
11806W        W30660  15.937   5.292   1.793 -0.2127 -0.0203 -0.0132
11807W        W30661  15.778  16.596   0.405 -0.1729  0.0585  0.2551
11808W        W30662  18.043   3.765  11.936 -0.0717 -0.0899  0.1802
11809W        W30663   1.198   3.210  12.670 -0.0599  0.0142 -0.0321
11810W        W30664   2.842  14.564  13.148  0.1646 -0.0456 -0.0399
11811W        W30665  10.652  16.685   2.823 -0.1365 -0.1272 -0.0164
11812W        W30666   2.043   0.946   0.259  0.1302 -0.1836  0.0910
11813W        W30667   4.772   6.851  13.200  0.2463  0.0934 -0.0020
11814W        W30668   2.553   7.099   2.329  0.3118 -0.3138  0.0026
11815W        W30669  17.875  18.632  10.049 -0.0104  0.1496  0.2297
11816W        W30670  17.959   7.726   3.848  0.0150  0.0290 -0.0059
11817W        W30671   3.969  12.501  11.865  0.3317  0.0485  0.0118
11818W        W30672  14.317  14.841  13.403 -0.1807  0.0312  0.0391
11819W        W30673  17.974  13.938  11.278  0.1931 -0.2051  0.1133
11820W        W30674   9.229   1.239  14.729 -0.0406  0.1581  0.1448
11821W        W30675  16.701   2.137  13.971  0.2682  0.3904 -0.2351
11822W        W30676   8.467   0.745   3.838  0.0200  0.0101  0.2066
11823W        W30677  10.685  10.608   1.146 -0.1064 -0.3037  0.3986
11824W        W30678  14.645   3.114   1.917  0.0739 -0.2235 -0.2742
11825W        W30679  10.071  11.870   2.966  0.1591  0.0105 -0.1172
11826W        W30680  18.642  13.559   4.040  0.4441 -0.2986 -0.1758
11827W        W30681   3.023  12.525   4.248 -0.1145 -0.2274 -0.2047
11828W        W30682   4.940  14.630  14.605 -0.1489 -0.1677  0.2860
11829W        W30683   2.760  16.014  11.899  0.2721 -0.3028  0.0991
11830W        W30684   0.176   4.889  13.656  0.0586  0.1867 -0.2189
11831W        W30685  10.578   2.813  10.637  0.2756 -0.5549  0.1430
11832W        W30686   7.382   0.795   2.259 -0.1348 -0.2689  0.0026
11833W        W30687   8.461  13.726  10.334  0.0041 -0.1584  0.0354
11834W        W30688   1.150  15.786  10.436 -0.0258  0.0949 -0.1758
11835W        W30689   2.565   4.184   2.572  0.1209 -0.2642  0.2636
11836W        W30690  15.741   0.087   1.283 -0.1148  0.0206 -0.2109
11837W        W30691  11.694  14.986   2.753  0.0299 -0.4335 -0.0534
11838W        W30692  11.603  16.791   1.713  0.2214 -0.0361 -0.0097
11839W        W30693   4.238   8.376  14.176  0.1245  0.0754 -0.0114
11840W        W30694   2.126   6.826   2.334 -0.0603  0.2607 -0.0790
11841W        W30695  18.078  11.722   4.715 -0.1107  0.1108  0.1260
11842W        W30696   4.293   4.822  13.326 -0.0782 -0.0718 -0.0942
11843W        W30697  12.910   6.106   4.002 -0.0648 -0.0123 -0.3282
11844W        W30698  19.085  11.153   4.332 -0.1817 -0.2970 -0.1068
11845W        W30699  18.566  14.960   0.497  0.2928  0.2540 -0.1469
11846W        W30700  13.878   6.152  12.118  0.0377 -0.4845 -0.0400
11847W        W30701  14.300   3.231   4.050 -0.1907  0.0510 -0.1076
11848W        W30702  13.305   9.751  10.434  0.0868  0.1230  0.0835
11849W        W30703   4.089  15.619  11.011 -0.0655 -0.2371  0.1686
11850W        W30704  18.815  13.243  10.659  0.0140 -0.2046  0.1418
11851W        W30705  18.113   6.754  10.160 -0.3863 -0.1590 -0.2474
11852W        W30706  15.745   4.674   3.314  0.1854 -0.1469 -0.0680
11853W        W30707   0.027  17.182   4.149 -0.1070  0.2168  0.0298
11854W        W30708  18.029   4.485   0.539 -0.2136 -0.0422  0.1006
11855W        W30709  18.371  13.969   3.062 -0.1607  0.0491  0.1544
11856W        W30710   6.265   6.024  14.482  0.0606 -0.2164  0.1784
11857W        W30711   7.651  18.519   3.187 -0.1267 -0.1934 -0.1146
11858W        W30712   4.574   1.079  11.588 -0.0438  0.2868  0.1071
11859W        W30713   6.942  14.571  11.517  0.3891  0.0207  0.1392
11860W        W30714  18.681   2.269  11.485  0.0701 -0.0786 -0.0073
11861W        W30715   9.976   9.404   4.911  0.1464 -0.0323  0.1531
11862W        W30716   1.018  10.882   4.678  0.2158 -0.2737  0.2117
11863W        W30717   9.056   9.783   1.808 -0.0438 -0.0596  0.0986
11864W        W30718   3.642  14.190  11.713  0.2299  0.1243  0.1597
11865W        W30719   4.170   7.062   0.593  0.0324 -0.3685  0.1413
11866W        W30720  13.500  10.930   2.786 -0.0727  0.0059  0.2800
11867W        W30721  12.616   1.659   2.229 -0.1244  0.0892 -0.0017
11868W        W30722   7.371  10.553  11.273 -0.1266  0.0124  0.1461
11869W        W30723   7.819   9.551  12.069 -0.0933 -0.3496  0.0780
11870W        W30724   9.637   8.566  12.828 -0.0051  0.2217  0.2705
11871W        W30725  13.202  11.851   1.126 -0.3213  0.1477  0.1414
11872W        W30726   2.035  18.208  11.100 -0.2537 -0.1201 -0.0499
11873W        W30727  14.528  12.553  14.378  0.0157  0.0943 -0.1412
11874W        W30728  10.419   0.023  12.805  0.1873  0.0493  0.0406
11875W        W30729  16.671  10.742   0.201 -0.2223 -0.0400 -0.1312
11876W        W30730   3.638  10.037   1.198 -0.1858 -0.0700  0.1767
11877W        W30731   6.835   5.696  12.377  0.3993 -0.0254 -0.2185
11878W        W30732   1.263  19.109  11.972  0.1891  0.0540 -0.1631
11879W        W30733  11.060  16.123   3.386  0.1832 -0.1032  0.1806
11880W        W30734  13.546  13.115  10.904 -0.0067  0.2877  0.0231
11881W        W30735   1.935   0.322   0.186 -0.2127 -0.0517 -0.1986
11882W        W30736   8.888   5.745   1.082  0.1205  0.2321  0.0445
11883W        W30737  18.428   5.081  10.971 -0.0194 -0.1043  0.0031
11884W        W30738   6.758   1.870  11.808 -0.1536  0.0828 -0.3607
11885W        W30739  13.534   0.553  13.409 -0.4536 -0.2465 -0.0262
11886W        W30740   8.953   0.617   0.783 -0.5058 -0.0388 -0.0308
11887W        W30741  10.581   8.987  11.220  0.0215  0.0808  0.0343
11888W        W30742   6.631  11.037   4.512 -0.0395  0.1302 -0.1238
11889W        W30743  14.259   8.763  14.378  0.0293  0.1307  0.1369
11890W        W30744   2.837  12.197  12.704 -0.1159 -0.1222 -0.0801
11891W        W30745   9.194  10.571   0.385 -0.0949  0.2315 -0.0432
11892W        W30746  17.910  12.821   1.764  0.2988  0.1048 -0.3535
11893W        W30747  17.757   5.207  12.270  0.0150 -0.0317 -0.1377
11894W        W30748  12.300   2.525  11.758  0.0128  0.1944  0.1415
11895W        W30749  13.072   4.952   0.745 -0.1682  0.2546 -0.0181
11896W        W30750   2.735   4.777  13.938  0.0596 -0.1521  0.0524
11897W        W30751  14.877  16.103  12.939  0.1259 -0.1643 -0.0948
11898W        W30752   3.346   9.052  13.884  0.0655 -0.2738  0.2639
11899W        W30753   1.539   6.380   1.358  0.0896 -0.2466 -0.0717
11900W        W30754  14.161   7.363   4.301 -0.2449 -0.0346  0.0047
11901W        W30755   8.046  10.185  13.049 -0.1613  0.0080  0.0530
11902W        W30756  10.694   8.818  10.721 -0.0546  0.0327  0.0057
11903W        W30757   9.711  18.270   9.489  0.0205 -0.2356  0.1934
11904W        W30758   7.715  16.705  10.352  0.0606 -0.2768  0.0853
11905W        W30759   3.498   8.525   1.164  0.0816 -0.0388  0.1979
11906W        W30760  14.165   2.936  11.300 -0.0991 -0.0727 -0.0387
11907W        W30761  17.363   0.815   3.218 -0.1478  0.1483  0.1965
11908W        W30762  16.266  16.235   0.253 -0.2459  0.2582  0.0441
11909W        W30763   0.793   0.356  10.536 -0.3756  0.0974 -0.0634
11910W        W30764   6.630   0.190  11.509  0.0152 -0.1548  0.1796
11911W        W30765   7.038  11.245   1.326 -0.0223 -0.1788  0.1811
11912W        W30766  17.054   0.534  12.646 -0.1484 -0.0623 -0.0918
11913W        W30767  10.246   4.831   1.390  0.1576 -0.1180 -0.1850
11914W        W30768   9.017   8.688  14.262 -0.0785  0.0787 -0.4398
11915W        W30769   4.455   2.311   0.566 -0.0893 -0.1196  0.3943
11916W        W30770  17.520   9.859  12.820 -0.2047  0.1138 -0.1558
11917W        W30771   5.701   3.089   2.295  0.0188  0.3058 -0.0115
11918W        W30772   3.334   2.034   3.836  0.0692 -0.3847 -0.1316
11919W        W30773   5.376  12.705   3.718 -0.0492  0.1927  0.3019
11920W        W30774  14.176   9.249  11.349  0.0533 -0.1625 -0.1503
11921W        W30775  16.302   4.640  10.406 -0.1615  0.1205  0.0148
11922W        W30776  14.988   8.373   1.757  0.2923 -0.3180 -0.1486
11923W        W30777   6.364   1.782   4.216 -0.1026  0.0988  0.1594
11924W        W30778  13.751  18.358   0.859  0.1781  0.4282 -0.0110
11925W        W30779  12.906  16.147  10.947  0.0432  0.0432  0.1490
11926W        W30780  10.686  18.511   1.601 -0.0969  0.0912 -0.1255
11927W        W30781  18.623   6.986   3.790 -0.3004 -0.0343  0.1896
11928W        W30782  16.986  12.643  13.589  0.0484 -0.0842  0.3214
11929W        W30783   8.541   7.843  14.726 -0.1688 -0.2640  0.0885
11930W        W30784  13.399  11.914  12.472 -0.1703 -0.0488 -0.3359
11931W        W30785  14.624   4.373  12.632  0.2717 -0.0302 -0.1406
11932W        W30786  16.026  14.360   2.986  0.1291  0.2741 -0.2950
11933W        W30787   4.628   3.848   3.828 -0.1032  0.2730  0.0606
11934W        W30788  17.599   8.069   1.090  0.2760  0.0629  0.3413
11935W        W30789   2.548  16.190  13.678 -0.0289  0.4049  0.0817
11936W        W30790  15.017   7.316   0.948  0.0729 -0.1096  0.1965
11937W        W30791   6.012  17.757  12.119  0.2543  0.0096  0.1424
11938W        W30792  18.648  17.042   4.244 -0.1261  0.1460  0.0992
11939W        W30793   4.618  15.980   1.702 -0.0533  0.1446 -0.1506
11940W        W30794   3.631  10.841  13.187 -0.0136  0.2879 -0.0701
11941W        W30795   0.392   4.347  10.762 -0.0169  0.0072  0.0630
11942W        W30796   7.242  10.100  10.387 -0.0384  0.5736 -0.1080
11943W        W30797   8.132   9.083  11.395 -0.1400 -0.0862  0.1347
11944W        W30798  13.277  12.225  13.923  0.1515  0.1333 -0.0405
11945W        W30799   2.095   3.329  12.475 -0.2043  0.2796  0.3289
11946W        W30800   8.742  11.344  12.705  0.1018 -0.2612  0.0567
11947W        W30801   1.819   8.479   0.454 -0.1632 -0.0911 -0.1372
11948W        W30802  10.118   2.242  11.835  0.1208  0.3483  0.2949
11949W        W30803   7.784   6.448  11.704  0.0594 -0.3973 -0.0111
11950W        W30804  16.457  13.893   1.458 -0.1449 -0.2321  0.2328
11951W        W30805   1.235  12.562   1.739  0.0515 -0.1639 -0.2393
11952W        W30806   3.017  14.082  13.277  0.0515 -0.0884  0.0160
11953W        W30807  13.578   6.009  10.381  0.1441 -0.2169  0.2209
11954W        W30808  14.939  17.992  12.684  0.2791 -0.0333  0.1555
11955W        W30809   1.927   0.373  12.603  0.2691 -0.0425 -0.1154
11956W        W30810   1.628  18.085   4.103  0.0908  0.2264 -0.1339
11957W        W30811  12.549  16.460   0.009  0.2166  0.1659  0.1030
11958W        W30812  18.061  13.775   3.400 -0.0799 -0.4232 -0.0134
11959W        W30813  13.865   2.228   2.135 -0.0838  0.2597 -0.0754
11960W        W30814   0.886  18.342  11.214 -0.0532  0.1640 -0.2456
11961W        W30815   5.170   8.702   3.933  0.2630  0.2016  0.0483
11962W        W30816  12.945   1.153   2.869  0.1188  0.2307 -0.2545
11963W        W30817  16.031  18.215   2.354  0.1481 -0.0298  0.0969
11964W        W30818   5.372  14.169   3.919 -0.3558  0.5272 -0.0467
11965W        W30819   7.266   7.181   1.654 -0.0880  0.0414 -0.2971
11966W        W30820  18.963   3.254   2.429  0.1679  0.2349  0.2363
11967W        W30821   9.369   7.340   2.547 -0.2539 -0.1963 -0.1185
11968W        W30822   7.308  12.564   1.287  0.1950 -0.1241  0.2871
11969W        W30823  14.146   6.829  10.221  0.1868  0.0232  0.0319
11970W        W30824  19.017   0.163  11.860  0.3536  0.2532  0.0018
11971W        W30825   6.460  15.571  11.858 -0.1225 -0.0142 -0.2624
11972W        W30826  10.896   3.508   3.186 -0.0630  0.0698 -0.1995
11973W        W30827  16.843   7.008  10.413 -0.2144 -0.1794  0.1272
11974W        W30828  11.867   6.794   0.846 -0.0859 -0.1507 -0.1314
11975W        W30829  15.758   5.935  11.526 -0.1395  0.0641 -0.0447
11976W        W30830   8.338   5.555   3.888  0.2626  0.0034  0.0531
11977W        W30831  17.941  10.751  13.743  0.2185 -0.2654  0.2538
11978W        W30832  10.994   1.888   4.625  0.2160 -0.2046 -0.3405
11979W        W30833  12.586   0.771  12.767 -0.0212 -0.1592  0.0530
11980W        W30834  15.184   4.789   1.975  0.4706 -0.1462  0.2291
11981W        W30835   4.068  18.941   0.867 -0.2808 -0.2505  0.0091
11982W        W30836   8.136   6.939  10.019  0.0520 -0.3317  0.0395
11983W        W30837  11.317   4.686  10.436 -0.1334 -0.0863  0.4083
11984W        W30838   3.184   7.823  13.234 -0.0474  0.2542  0.1310
11985W        W30839   4.349   4.346   2.890 -0.1244 -0.1668  0.0879
11986W        W30840   6.808  14.585   9.595 -0.0549  0.1990  0.3221
11987W        W30841  13.941   2.997  10.711 -0.2965  0.1727  0.1085
11988W        W30842  16.160  13.574   1.654 -0.1673  0.1749 -0.4486
11989W        W30843  15.945  10.092  13.347  0.1466 -0.3593 -0.1796
11990W        W30844   4.109  18.106  13.688 -0.2262  0.1383  0.2482
11991W        W30845  18.336   6.481   2.511  0.0659 -0.1635  0.0066
11992W        W30846   4.901   3.362  13.374 -0.1458  0.2474 -0.1394
11993W        W30847   8.554   7.409  11.033  0.1990 -0.0617  0.3349
11994W        W30848   0.271  10.836   3.660 -0.1814  0.2559 -0.1291
11995W        W30849   0.416  15.292   0.445 -0.0680 -0.1473 -0.0286
11996W        W30850   9.216   8.325   9.687  0.1095  0.1539 -0.1418
11997W        W30851  17.856  18.228  14.089  0.2909 -0.0459 -0.1620
11998W        W30852  16.847   7.551  13.887  0.1371  0.1323  0.1259
11999W        W30853   7.786  18.240  13.217  0.0502 -0.0574  0.2352
12000W        W30854  10.897  13.391  13.022  0.1034 -0.3069 -0.0103
12001W        W30855   4.316  13.842   1.393 -0.1005 -0.1752  0.1264
12002W        W30856  18.856  10.858  13.051 -0.0957  0.2061  0.3205
12003W        W30857  18.469  11.630   0.711 -0.1659  0.2669  0.1958
12004W        W30858  19.158  12.691   4.768 -0.2352  0.2541 -0.2512
12005W        W30859   9.809  16.203   2.997  0.1560  0.1914  0.0301
12006W        W30860   1.767   2.524   0.894  0.0334  0.1845  0.2741
12007W        W30861   5.522   9.452   0.631  0.2154 -0.1576 -0.0871
12008W        W30862   0.050   6.301   4.189  0.2076  0.1369  0.1290
12009W        W30863  10.311   5.257   3.470 -0.0896 -0.2550 -0.0151
12010W        W30864   9.909  10.862   3.947  0.2568 -0.2646  0.2079
12011W        W30865  11.250  12.713  11.153 -0.1740  0.0297  0.3854
12012W        W30866   2.997   6.430  11.675  0.2365  0.0839 -0.0915
12013W        W30867  17.568  10.453  12.777 -0.0381 -0.0170  0.0637
12014W        W30868   9.076  19.198   9.822 -0.2387  0.0376 -0.2039
12015W        W30869  17.203   6.206  11.464  0.4074  0.3162  0.0517
12016W        W30870  13.571   5.922  13.778 -0.1322 -0.1566  0.3535
12017W        W30871  12.561   5.759   2.693  0.1767  0.0624  0.3652
12018W        W30872   7.233  12.457   2.264  0.2440 -0.0271  0.1249
12019W        W30873  10.020   0.971   3.952 -0.0142  0.1951 -0.1625
12020W        W30874  12.821  13.724  10.710 -0.0326  0.1739  0.2040
12021W        W30875   0.118   4.052  14.041  0.2471 -0.4134  0.3322
12022W        W30876   8.327   0.969  12.110  0.2417  0.0503  0.0058
12023W        W30877   7.093   8.368  13.543 -0.0588 -0.1408 -0.4017
12024W        W30878   6.442   9.491   2.144  0.1312 -0.0345  0.1215
12025W        W30879   2.558  13.342  12.906 -0.0001 -0.3812  0.1727
12026W        W30880  17.329   4.437  11.714 -0.2397 -0.0019  0.1537
12027W        W30881  10.655   5.220  11.869  0.0268 -0.0854  0.0412
12028W        W30882   2.219   8.497   1.826  0.0491 -0.1293  0.2939
12029W        W30883  14.204  15.006   0.537 -0.1462  0.1954  0.3030
12030W        W30884   0.640   7.605   4.246  0.0416 -0.2957 -0.2217
12031W        W30885   7.206   1.989  12.062  0.5950 -0.0519 -0.1662
12032W        W30886   9.718   1.592  11.114  0.0265 -0.0549  0.1382
12033W        W30887  10.540  18.832   4.308  0.0389  0.0326  0.2154
12034W        W30888  13.194  14.266   4.296 -0.2662  0.2952 -0.1667
12035W        W30889  12.280   9.933  12.233 -0.0088 -0.1147  0.0504
12036W        W30890  17.489   1.777   1.837 -0.2871  0.0188 -0.0111
12037W        W30891   3.961  15.137   2.929 -0.0285 -0.0816 -0.1728
12038W        W30892  10.143   2.110  14.729 -0.2135  0.1462 -0.0264
12039W        W30893   2.062  14.246  11.926 -0.4608  0.1517  0.0695
12040W        W30894   1.716  16.091  13.469  0.0899  0.1393  0.0671
12041W        W30895   6.374  10.111   1.208 -0.0306 -0.3701  0.0281
12042W        W30896   3.758   7.487   0.969 -0.1246  0.1348 -0.3205
12043W        W30897   8.531   1.319   3.568  0.1830 -0.0892  0.0276
12044W        W30898   1.659  14.190   4.725  0.0464  0.1175  0.0421
12045W        W30899   0.942  12.842  13.588 -0.1193  0.0293 -0.0063
12046W        W30900  15.947   8.745   3.770  0.0712 -0.0629  0.0428
12047W        W30901  14.481  17.897   3.415 -0.0683 -0.1532 -0.0894
12048W        W30902  17.376  13.149  10.578 -0.0886  0.0023 -0.1949
12049W        W30903  12.407   3.796   0.048  0.2915 -0.2151  0.0003
12050W        W30904  18.336   0.731  14.026 -0.1903  0.3222  0.0534
12051W        W30905   3.433   1.062   4.361 -0.0807 -0.0923  0.1317
12052W        W30906   9.354   9.985   2.680  0.0609 -0.4408  0.0209
12053W        W30907   7.556   3.557   3.944 -0.1683 -0.2313 -0.2830
12054W        W30908  11.207   5.422   0.469  0.0948 -0.1255  0.0549
12055W        W30909   2.620   6.455   3.431 -0.1503 -0.2596  0.0943
12056W        W30910  15.474   8.101   0.797  0.2458 -0.0336  0.3087
12057W        W30911   0.520  18.018   0.134 -0.2233  0.1098 -0.0985
12058W        W30912   6.825  18.428   2.890  0.0861  0.0207 -0.1312
12059W        W30913   4.707  12.111   2.588 -0.0759  0.0836  0.0346
12060W        W30914  14.641   8.876  10.618 -0.0825 -0.2417 -0.0277
12061W        W30915   5.494   7.759   3.222 -0.0811  0.0994 -0.1815
12062W        W30916  16.469   7.963  13.697  0.1140  0.1206 -0.2615
12063W        W30917   1.556   6.136  13.188 -0.0765  0.0429 -0.2265
12064W        W30918  12.824   6.356  10.213 -0.3240  0.2940  0.2486
12065W        W30919   4.594  14.895  13.051  0.1668  0.2583  0.1901
12066W        W30920   2.691  18.852   4.838  0.4136 -0.0596  0.3799
12067W        W30921   5.779   8.095   3.480  0.0611  0.1746 -0.1271
12068W        W30922   9.177   8.940  11.242  0.3258  0.2963 -0.0739
12069W        W30923  18.259  17.761  13.269 -0.0621 -0.0597  0.0522
12070W        W30924  13.478  10.416   3.805  0.0831  0.1161  0.1757
12071W        W30925   7.385   6.186   4.685  0.2632  0.0659 -0.1281
12072W        W30926  10.910  15.175   2.607  0.3161 -0.0067 -0.0238
12073W        W30927   8.113   6.572  12.604  0.3815  0.1363 -0.0285
12074W        W30928  12.818   4.816   3.735  0.0258  0.0459 -0.4356
12075W        W30929  12.770  10.237  13.231 -0.3317 -0.1381  0.0149
12076W        W30930  11.122  15.035   3.542 -0.2085  0.4363 -0.0167
12077W        W30931  10.667   5.853   0.937  0.1057  0.1687  0.1003
12078W        W30932  10.251   0.457   0.705  0.3470  0.0660  0.0517
12079W        W30933  10.403   5.963  12.531 -0.1132  0.0065 -0.2211
12080W        W30934   2.326   0.158   3.839  0.0469 -0.0988 -0.0934
12081W        W30935   8.698   1.119  11.256 -0.0020 -0.0829  0.2834
12082W        W30936  17.179  13.867  14.016  0.1794  0.0586  0.2365
12083W        W30937  15.229   7.869  13.314 -0.1546 -0.1130  0.1471
12084W        W30938  18.560  15.837  14.698 -0.1384 -0.2435 -0.1722
12085W        W30939   0.792   7.501  12.519 -0.0521 -0.0519 -0.2643
12086W        W30940  12.740  12.042   3.255 -0.2844  0.2361 -0.1213
12087W        W30941  18.168  12.727   4.536  0.2048 -0.1188  0.0166
12088W        W30942  17.343  12.751   0.904 -0.0869  0.1711 -0.1808
12089W        W30943  12.653  17.514   3.041 -0.2362 -0.0020  0.1360
12090W        W30944   8.398   5.079  14.519  0.0531 -0.0449  0.1011
12091W        W30945  15.769  13.312  10.939 -0.1138  0.1776 -0.2139
12092W        W30946  16.458   1.631  13.144  0.0253  0.0470 -0.1141
12093W        W30947   6.500  17.030  12.770 -0.2941 -0.1946 -0.0052
12094W        W30948  15.790   0.583  13.304 -0.1497 -0.2655 -0.2569
12095W        W30949   9.200   2.153   2.129 -0.0081 -0.1630 -0.0347
12096W        W30950   7.691   7.437   0.307 -0.0842  0.1505 -0.0511
12097W        W30951  14.672   0.970  12.280  0.1250 -0.0921  0.2475
12098W        W30952  11.514  12.690  11.650  0.0790 -0.2290 -0.5014
12099W        W30953  15.920   8.645  11.555 -0.0071 -0.0238 -0.0797
12100W        W30954  10.162   2.626  10.938 -0.1132 -0.0782 -0.1301
12101W        W30955   2.924   6.231   2.065  0.0334 -0.4026 -0.2574
12102W        W30956  12.992   5.516  11.879 -0.0653 -0.0290  0.0238
12103W        W30957   2.502  12.433  13.017 -0.0565  0.0958  0.4643
12104W        W30958  16.518   9.784  14.115  0.1414 -0.1878 -0.0498
12105W        W30959  10.649  17.738   3.354 -0.2146 -0.0026  0.0093
12106W        W30960  17.557  11.274  10.730  0.0322 -0.1204 -0.0215
12107W        W30961  16.089   3.810  11.453  0.1262 -0.0282  0.0071
12108W        W30962   3.002  19.002  13.952 -0.0418 -0.1761  0.2024
12109W        W30963  14.070   1.516   3.815 -0.2213  0.3974  0.4683
12110W        W30964  14.769   6.291  10.811 -0.0429  0.0658 -0.0850
12111W        W30965  16.041  17.569   1.521 -0.1615  0.3047  0.1613
12112W        W30966  17.925  15.400   2.711  0.1005 -0.2509  0.1770
12113W        W30967   0.684  14.030   4.192  0.1023  0.0709 -0.2814
12114W        W30968  13.709   6.976   2.609  0.1412 -0.2028  0.0931
12115W        W30969   8.517   8.475  14.012  0.0446  0.2857 -0.0390
12116W        W30970  14.976   8.306  13.265 -0.0981 -0.1486 -0.0119
12117W        W30971  12.428   4.522   3.820 -0.0906 -0.1022  0.2766
12118W        W30972  16.544   1.113  14.112  0.0282  0.3421 -0.1338
12119W        W30973   8.692  17.532  12.836  0.1006 -0.0128  0.2491
12120W        W30974   1.695  15.183  13.580  0.1697 -0.1686  0.1543
12121W        W30975   4.023   8.068   3.698  0.0508  0.0317 -0.0317
12122W        W30976  11.497   0.947  13.680 -0.3909 -0.0685 -0.1626
12123W        W30977   5.709   9.841   2.079 -0.2360 -0.0062  0.2043
12124W        W30978  15.390  16.045  14.457  0.0162 -0.4476 -0.1677
12125W        W30979   4.675  17.307   0.406  0.1669  0.0303 -0.2008
12126W        W30980  10.840  15.669  12.424  0.2543  0.0614 -0.1328
12127W        W30981  17.363   7.908   2.501 -0.0144 -0.0662 -0.2400
12128W        W30982   8.725   4.208  13.045  0.2012  0.0681 -0.0499
12129W        W30983   5.096   8.182   0.573 -0.1454  0.2446  0.0972
12130W        W30984   8.074   5.064  14.189  0.1628 -0.1098  0.3438
12131W        W30985   3.839   0.736   0.423 -0.0130  0.0885 -0.0858
12132W        W30986  13.543   5.009  12.622 -0.3750 -0.1713 -0.0501
12133W        W30987   9.977  16.052   0.791 -0.0660  0.0678 -0.0059
12134W        W30988  16.205  12.801   3.805  0.0830  0.2584 -0.0891
12135W        W30989   6.534   2.945   4.597  0.0300  0.0654 -0.1822
12136W        W30990  12.017   9.158  10.965  0.1250  0.0377  0.1770
12137W        W30991  12.276  13.314  13.845 -0.2228 -0.2358 -0.1626
12138W        W30992  16.689   7.159   0.471  0.0928  0.0763 -0.0412
12139W        W30993  13.460   3.901  10.809 -0.0041 -0.0544  0.0985
12140W        W30994   3.777  16.864  12.353 -0.1499  0.1132 -0.1174
12141W        W30995  18.651  10.886  11.393  0.1669  0.0020  0.0866
12142W        W30996   9.168  11.554  10.030  0.3361 -0.1075 -0.1618
12143W        W30997  13.864  12.723  12.197  0.2141 -0.0156  0.4451
12144W        W30998   0.158   0.804  13.993  0.1870  0.0647  0.0793
12145W        W30999   4.810   1.153  13.264  0.1399  0.0556 -0.1189
12146W        W31000   5.133   0.456  13.785  0.2985  0.0636  0.2128
12147W        W31001  11.397  11.525   1.224 -0.0719 -0.1575  0.4680
12148W        W31002   3.951  13.109  12.445 -0.0845  0.2098  0.1444
12149W        W31003  18.203   2.298  11.226  0.1495 -0.0435 -0.0183
12150W        W31004  15.065   6.837   3.306  0.0266  0.0042 -0.0967
12151W        W31005   6.785   6.165   0.551  0.2451  0.1182 -0.2971
12152W        W31006   0.202  14.029  13.569 -0.1676  0.0257 -0.0290
12153W        W31007  12.379   9.036  11.310  0.0336  0.2901 -0.1043
12154W        W31008   9.731  15.176  13.798 -0.1709  0.1414 -0.1278
12155W        W31009   8.713   0.318   1.646 -0.1142  0.2189  0.0767
12156W        W31010   9.115  10.590   1.579  0.1868  0.0943  0.1124
12157W        W31011  10.267  17.631  10.883 -0.0298 -0.2659 -0.0495
12158W        W31012   5.556  17.780  11.564  0.1026 -0.0210  0.0246
12159W        W31013   2.454  11.308  13.026  0.1302 -0.1357  0.0080
12160W        W31014  19.069   2.318   2.705  0.1958  0.0899 -0.0219
12161W        W31015  16.826  11.224  14.458 -0.0197 -0.2386  0.2021
12162W        W31016   3.445   1.244  10.990  0.0019  0.0335  0.2742
12163W        W31017   7.930  14.806  10.984 -0.0404 -0.0317  0.3635
12164W        W31018  18.681  12.920  13.755  0.3489 -0.1249  0.3409
12165W        W31019   7.742   3.959   9.742  0.1805 -0.1775  0.1224
12166W        W31020   3.959   5.674   3.587 -0.1382  0.1275  0.2701
12167W        W31021   1.752   0.215   2.525 -0.5396  0.0858  0.3563
12168W        W31022   1.847   5.386   1.121 -0.3583  0.1151  0.2428
12169W        W31023  13.345  18.902   3.651  0.0649 -0.0312  0.1608
12170W        W31024  17.458  15.482   2.410  0.0987  0.0737 -0.3425
12171W        W31025   7.275   3.227   2.589 -0.2099  0.0700  0.3720
12172W        W31026  14.622   1.332   0.253 -0.1946  0.1317  0.2474
12173W        W31027  17.845  15.262   1.034 -0.0065  0.3239 -0.0360
12174W        W31028  12.966  10.832   1.855 -0.1760 -0.0518  0.2650
12175W        W31029   4.693   2.512  11.192 -0.0487 -0.1188  0.0475
12176W        W31030   7.899  15.322  11.166  0.0648 -0.1428  0.0526
12177W        W31031   4.405  19.145  12.767 -0.0334 -0.0023 -0.1841
12178W        W31032   4.437   6.600  12.132 -0.0388  0.1389 -0.1961
12179W        W31033  12.787  16.978   5.880 -0.0473 -0.0449 -0.2110
12180W        W31034  10.492   3.631  13.121  0.2657 -0.2607  0.0226
12181W        W31035   9.607  11.332  10.947 -0.1974 -0.4738  0.0403
12182W        W31036  17.394  12.298   3.876  0.2037  0.0652  0.0291
12183W        W31037  11.473  16.764   2.750  0.2670 -0.0849  0.1332
12184W        W31038  13.707  12.662  13.829  0.0525  0.0702  0.1360
12185W        W31039   2.997  10.413  14.003 -0.0177  0.2800  0.1133
12186W        W31040   0.024  15.737  11.354 -0.2292 -0.3564 -0.3548
12187W        W31041   8.784  15.158  11.050 -0.2175  0.0758 -0.0805
12188W        W31042  15.194   1.970  14.384 -0.0405  0.1295  0.1711
12189W        W31043  15.449   1.381  12.341  0.1671 -0.1062 -0.1188
12190W        W31044  16.191  12.524  10.572 -0.1042 -0.0597 -0.3753
12191W        W31045   6.442   0.810   5.080  0.3742 -0.3132  0.1020
12192W        W31046  14.697   2.674   0.235  0.0643 -0.2976 -0.0992
12193W        W31047   5.308   9.204   1.016 -0.2229  0.1506  0.0348
12194W        W31048  10.426  12.223   3.916  0.2767  0.2937  0.2365
12195W        W31049  13.784   4.390   2.207 -0.0744  0.0817 -0.2451
12196W        W31050   2.771   4.571   1.178 -0.0155 -0.1643  0.0629
12197W        W31051  13.313  14.023  13.103  0.0606 -0.0336 -0.2108
12198W        W31052   0.851  17.935   9.878 -0.0775  0.0503 -0.1785
12199W        W31053   5.594  15.465  12.922  0.3106  0.1859  0.2093
12200W        W31054  16.432  19.034  11.670  0.0885  0.0725 -0.1388
12201W        W31055   4.510   0.865  10.751 -0.1161 -0.0274  0.1062
12202W        W31056   8.635  18.735  11.910 -0.2473 -0.1638  0.0570
12203W        W31057   6.827  17.517   1.778 -0.1618 -0.2202  0.0546
12204W        W31058   0.688  17.535   3.342 -0.2680 -0.0089  0.1921
12205W        W31059  17.292   3.105  11.851  0.0622 -0.3627 -0.2006
12206W        W31060  10.375   7.488   1.812 -0.1089 -0.2398  0.2923
12207W        W31061  13.725  16.457  13.842 -0.0195  0.2404 -0.0882
12208W        W31062  12.548  18.025   1.190  0.2127 -0.0863 -0.6351
12209W        W31063  17.058   4.896  11.657 -0.1264 -0.1232  0.2549
12210W        W31064  15.567   1.190  14.577  0.0459  0.3862 -0.0230
12211W        W31065  17.039  12.910   3.023  0.1975 -0.2362  0.0251
12212W        W31066  15.724   8.265   0.377  0.3238  0.0812  0.3211
12213W        W31067  15.565  16.282  13.367  0.3493 -0.2009  0.0353
12214W        W31068  15.307   0.227   2.200 -0.1786 -0.2572 -0.1872
12215W        W31069   0.975  16.503   0.369 -0.1490  0.3020  0.0203
12216W        W31070   6.200   8.603   1.227 -0.0925 -0.2748 -0.0319
12217W        W31071  18.376  12.253  10.541  0.2571 -0.5297  0.1004
12218W        W31072  12.685   7.131  14.062  0.0761 -0.2193 -0.0326
12219W        W31073   8.161  18.529  12.205 -0.1188 -0.1116  0.2105
12220W        W31074  17.940   1.456  14.291  0.3295  0.0291 -0.0076
12221W        W31075  11.426   7.708  13.847  0.0175 -0.0727  0.3363
12222W        W31076   4.257  10.012   2.550 -0.0057 -0.0611 -0.0432
12223W        W31077   9.517  14.405   1.583  0.0790 -0.2086 -0.0658
12224W        W31078  13.343  12.355   5.431  0.0419  0.1669 -0.1900
12225W        W31079   9.080   9.476   2.739  0.2856 -0.3605  0.3600
12226W        W31080  16.104   2.447  14.183  0.1415  0.2960  0.0112
12227W        W31081   6.731  10.871  10.342 -0.1378  0.0820  0.2273
12228W        W31082   1.617   1.652   9.550  0.0518 -0.2443 -0.5004
12229W        W31083  11.394   1.729  10.614  0.4483  0.0987 -0.0245
12230W        W31084  18.648   8.388  14.296 -0.1814  0.3509  0.0768
12231W        W31085   8.494   5.723  10.805  0.3919  0.0709 -0.1978
12232W        W31086  14.880  18.124  13.317  0.2244 -0.2482  0.0786
12233W        W31087   7.076  10.904  14.368  0.0828 -0.0561 -0.0906
12234W        W31088   3.424   4.295  12.656 -0.2562 -0.2397 -0.2436
12235W        W31089   7.358   3.304   3.119  0.2064 -0.0523  0.0039
12236W        W31090   9.689  12.160  12.135  0.0376  0.3055  0.0036
12237W        W31091   3.034  11.801  12.901 -0.0091  0.1325 -0.0878
12238W        W31092   2.673  18.586  13.286 -0.2128  0.1601 -0.1578
12239W        W31093   9.650   7.906   1.942 -0.0657  0.1734 -0.2930
12240W        W31094  18.844  15.183   3.320 -0.2136  0.2914  0.4096
12241W        W31095   4.510  16.431  10.466  0.1928  0.0509  0.3335
12242W        W31096  12.055   8.860   3.011 -0.0021 -0.2315 -0.0923
12243W        W31097  11.297  13.723  11.884 -0.1899 -0.1644  0.0175
12244W        W31098   2.956   3.593  10.741 -0.0127  0.0800  0.0804
12245W        W31099  12.100  10.010   4.600  0.2527 -0.2556 -0.1523
12246W        W31100   9.820  18.372   2.998  0.1950 -0.0677 -0.1625
12247W        W31101  12.353   4.018  13.563 -0.2009  0.2465  0.2046
12248W        W31102   6.961   2.331   4.470  0.1448 -0.4293  0.1609
12249W        W31103   9.392   9.145   1.291  0.0690 -0.0410  0.0640
12250W        W31104  15.398  12.432  11.875  0.0043 -0.0542 -0.0049
12251W        W31105   7.561  14.458   3.010  0.1399 -0.2020 -0.1289
12252W        W31106   2.537  15.314  14.169  0.0063 -0.0547  0.3741
12253W        W31107   2.299   7.118  11.312 -0.0976 -0.0301  0.0031
12254W        W31108  12.435  18.631   0.600 -0.0493 -0.2149  0.0228
12255W        W31109  13.411   1.416  11.598  0.1797  0.1548 -0.4533
12256W        W31110  16.645   3.678  14.406 -0.0738  0.0350 -0.1417
12257W        W31111   8.281   8.972   4.151  0.0328 -0.0862 -0.1663
12258W        W31112   3.414  14.265  10.730  0.0475 -0.3603  0.0454
12259W        W31113  10.640   9.791  13.314  0.0675 -0.0125 -0.3186
12260W        W31114  19.040   6.089   2.862  0.2087 -0.3216 -0.1475
12261W        W31115  17.192  17.531  12.827 -0.2308  0.0923 -0.0208
12262W        W31116   5.964  18.855   3.634  0.0467 -0.0502 -0.2575
12263W        W31117   4.799   4.291   3.925 -0.1842 -0.3065 -0.1493
12264W        W31118  13.647   7.078  14.520 -0.0934 -0.0586 -0.2343
12265W        W31119  18.761  18.525  13.234 -0.1532 -0.3698  0.1348
12266W        W31120  14.107  18.438  11.234 -0.1997 -0.3433  0.0075
12267W        W31121   1.662  10.301   4.030  0.2511 -0.0357  0.2900
12268W        W31122  15.960   9.894  12.359  0.2915  0.0220  0.0771
12269W        W31123  15.730  16.927   2.868  0.2979  0.0323  0.2432
12270W        W31124  18.177   4.671  10.785 -0.0285 -0.1985 -0.2264
12271W        W31125  17.839   9.897  11.364 -0.2449  0.2172 -0.0689
12272W        W31126   1.298  13.411   3.678 -0.0172  0.0056 -0.1864
12273W        W31127  12.334  17.426  13.045  0.1968 -0.0014 -0.1326
12274W        W31128   7.542   1.068   0.022 -0.0648 -0.0692 -0.0201
12275W        W31129   5.487  13.086   0.034 -0.1773  0.3672  0.4420
12276W        W31130  11.240   6.856  10.878  0.0769 -0.2520 -0.1598
12277W        W31131   2.307   4.134   1.158 -0.3971  0.2593 -0.1627
12278W        W31132  11.822   2.871   3.508  0.2892 -0.0912 -0.1990
12279W        W31133   5.552   6.803  13.920 -0.1293 -0.0128 -0.2252
12280W        W31134   9.358  10.789   3.627  0.1411  0.0323  0.1925
12281W        W31135  12.036  13.277   9.891 -0.0613  0.1082  0.2656
12282W        W31136   7.768  13.149   3.489 -0.6409 -0.0977  0.0697
12283W        W31137   4.240  10.925  13.696 -0.1457  0.0536  0.1370
12284W        W31138   7.387  15.190   2.251 -0.3063  0.3766 -0.1145
12285W        W31139  16.927   8.403   1.734 -0.3816 -0.1681  0.1821
12286W        W31140  13.326   4.504  13.643 -0.2710  0.1388 -0.0629
12287W        W31141  14.951   7.274   3.563  0.0665 -0.0230  0.1582
12288W        W31142   0.600  15.790   0.588 -0.0505  0.1501 -0.0747
12289W        W31143   2.421   2.008   0.291  0.3099 -0.3366  0.4159
12290W        W31144  18.058  18.098   4.967 -0.0961 -0.2985  0.0225
12291W        W31145  13.220  15.130  13.649  0.0525 -0.3917 -0.1589
12292W        W31146  14.248  12.016   1.235 -0.1654 -0.0377  0.2598
12293W        W31147   7.893   8.021   3.936  0.1404 -0.3293 -0.1717
12294W        W31148  13.327  11.342   0.973 -0.0633  0.0670  0.1272
12295W        W31149  13.011   5.609  10.929  0.0962  0.0175 -0.0297
12296W        W31150   4.560   4.693   2.527  0.1207 -0.0060 -0.0798
12297W        W31151   5.884  11.978  11.099  0.2727 -0.0801 -0.4414
12298W        W31152   7.913  17.078  11.258 -0.0351  0.1082 -0.0164
12299W        W31153   4.092   8.861  11.440  0.1621 -0.0944  0.0668
12300W        W31154  17.826   2.981  12.650 -0.1685 -0.0951  0.1244
12301W        W31155  19.090   6.626   4.546  0.0425 -0.1419 -0.0530
12302W        W31156  15.210   2.143   1.363  0.0598  0.1302 -0.0415
12303W        W31157  14.566   6.648   0.697  0.0517  0.0431 -0.2956
12304W        W31158   9.428  11.911   1.730 -0.1087 -0.1002 -0.0971
12305W        W31159  11.716   6.159   0.397  0.0024  0.2300  0.1040
12306W        W31160   3.701  14.995  13.448 -0.1267  0.1687 -0.1194
12307W        W31161   7.173  10.166   4.243  0.1267 -0.0954  0.0930
12308W        W31162  17.339   5.687  12.970  0.0936  0.1984 -0.0073
12309W        W31163   2.130   2.762  13.034  0.2807 -0.1434 -0.0773
12310W        W31164  18.820   5.234  11.292 -0.3323  0.2432  0.4041
12311W        W31165   3.517   6.777   5.232 -0.3374 -0.1970  0.0759
12312W        W31166  18.783  13.967   4.889  0.0398  0.0849  0.0134
12313W        W31167   9.381  10.545  12.683 -0.3630 -0.0066 -0.0666
12314W        W31168  16.502   4.414  12.242 -0.0395 -0.0353  0.2962
12315W        W31169   2.788  14.569   3.567  0.3656 -0.1049  0.1679
12316W        W31170   2.546   4.296   0.109  0.0406  0.1004  0.1258
12317W        W31171  15.770  11.930  12.778  0.1665 -0.0394 -0.0460
12318W        W31172  13.143  15.694   2.850  0.0373  0.1408 -0.2668
12319W        W31173   4.582  15.364  13.027  0.0281  0.1056 -0.1101
12320W        W31174   1.671  14.986   2.367  0.1077  0.4505 -0.1882
12321W        W31175   5.612  13.839  12.945  0.3358  0.1605 -0.1146
12322W        W31176  13.203   6.700   1.933  0.2498  0.2215 -0.2342
12323W        W31177   4.478   2.402   3.965 -0.0330 -0.1440 -0.1232
12324W        W31178  18.668   2.599  10.430 -0.1521  0.0628 -0.2778
12325W        W31179   5.187   0.999  13.598  0.5710 -0.0380 -0.1252
12326W        W31180  16.488  16.405  13.596  0.1206  0.1721 -0.0989
12327W        W31181   8.595   8.004   0.549  0.2830 -0.2614 -0.0683
12328W        W31182   5.747   0.433  10.615 -0.1411  0.2862 -0.0959
12329W        W31183   3.053   7.285   2.344  0.2761  0.2549  0.2809
12330W        W31184   7.873  12.508   1.985 -0.0200 -0.1356 -0.3642
12331W        W31185   9.201   8.628   2.178  0.1262  0.2428 -0.0062
12332W        W31186  15.914   3.590   1.808  0.0752 -0.0979 -0.1954
12333W        W31187  14.635   1.231  13.971  0.1034  0.2129 -0.0718
12334W        W31188  12.642  16.865   3.600  0.2837  0.2499  0.1795
12335W        W31189   0.301   8.094  11.270  0.1005  0.1007  0.2750
12336W        W31190  17.385  16.875  13.490 -0.2089 -0.1221 -0.2350
12337W        W31191  10.050  11.111  13.547  0.2660  0.1100 -0.1929
12338W        W31192  12.032  11.692  14.005 -0.1630  0.2350 -0.1243
12339W        W31193  13.882   9.867   0.720  0.1852  0.0083  0.2068
12340W        W31194   1.455  18.172   2.804 -0.1377  0.1518  0.1196
12341W        W31195  14.255   4.313  13.831 -0.0951 -0.0225  0.0997
12342W        W31196   4.101   8.020   3.194  0.5070 -0.0519 -0.2671
12343W        W31197   2.597   3.795   9.746  0.1352  0.1606 -0.2677
12344W        W31198  15.026  17.110   1.377 -0.1655 -0.2362 -0.1901
12345W        W31199  18.203  15.749  13.265 -0.0277  0.3957 -0.1509
12346W        W31200   7.625   7.630   3.386  0.0494  0.2716 -0.1428
12347W        W31201  17.884  15.738  11.458 -0.1518 -0.0831 -0.1837
12348W        W31202   7.075  10.206  14.290  0.3321 -0.0865  0.1030
12349W        W31203   7.091   2.454  12.422  0.0744 -0.0132  0.2857
12350W        W31204   4.645  10.121   2.266  0.2327  0.0799  0.0295
12351W        W31205   3.440  11.195   0.476 -0.1986  0.1699 -0.2291
12352W        W31206  11.111   0.408  10.890  0.1793  0.1474  0.3242
12353W        W31207   5.256   8.764  10.299 -0.0170  0.5897 -0.0116
12354W        W31208   9.807  18.648   3.544  0.3566 -0.0918 -0.0020
12355W        W31209   1.076   8.377  12.447  0.4593  0.2126  0.0630
12356W        W31210  17.819   9.887  14.117 -0.2787  0.0786  0.2435
12357W        W31211  10.686   6.658   2.110 -0.3150 -0.0366 -0.4340
12358W        W31212  12.932  13.208   1.648  0.3945  0.0386  0.4213
12359W        W31213   1.822   5.559  12.889  0.0777  0.0006  0.0366
12360W        W31214   5.244  18.628   3.267 -0.0888 -0.1577  0.1440
12361W        W31215   4.321   4.447   3.765  0.2131  0.3193  0.0531
12362W        W31216   4.672   1.669  13.086  0.2688  0.1745 -0.2129
12363W        W31217   5.513  17.230   2.845 -0.2815  0.0264  0.0091
12364W        W31218  18.351  11.531   1.392  0.0400 -0.0904  0.3004
12365W        W31219   2.838   4.383   1.615 -0.2150  0.0721  0.0335
12366W        W31220  12.629   5.336  13.966  0.0320 -0.1418 -0.4087
12367W        W31221   9.657  11.446   2.689 -0.1563  0.0384  0.1190
12368W        W31222   8.275   3.333   0.473 -0.3384  0.1420 -0.1257
12369W        W31223  13.672  18.441   5.423  0.1560  0.3175  0.3630
12370W        W31224   6.054   3.218  14.429  0.0363 -0.0163 -0.0782
12371W        W31225  11.861   1.289   2.526 -0.1380 -0.1079 -0.2903
12372W        W31226   1.282   0.344   0.262 -0.0917  0.1404  0.0723
12373W        W31227   7.873   6.435   4.746  0.1007  0.0072  0.1472
12374W        W31228   1.735   0.411   1.107  0.2014  0.1784  0.0589
12375W        W31229  12.069   5.925   2.572  0.0962  0.0372  0.2141
12376W        W31230   4.202   4.875   2.826 -0.2457 -0.3700  0.0564
12377W        W31231   2.604  15.271  13.645  0.0222  0.1792 -0.1779
12378W        W31232  18.216   0.455  13.536  0.3412  0.3186 -0.0189
12379W        W31233  18.028   2.976  13.307  0.0313  0.0589 -0.0925
12380W        W31234   9.696   2.051   1.394  0.3051  0.2198 -0.1191
12381W        W31235   4.456   5.753   2.912  0.0340  0.1885 -0.0046
12382W        W31236   5.767   2.273   2.221 -0.1686 -0.1722  0.1823
12383W        W31237   6.383   5.790  11.197  0.2739  0.1081 -0.0520
12384W        W31238   6.657  18.122  14.394  0.1589 -0.4349 -0.0261
12385W        W31239  11.123   7.126  12.751  0.2889 -0.0736 -0.0390
12386W        W31240   8.149  11.917   1.442 -0.0616 -0.1063 -0.0648
12387W        W31241  17.535  11.782   2.807  0.0209 -0.2636 -0.1205
12388W        W31242  18.671   0.310   0.672  0.0117  0.1151  0.3284
12389W        W31243   1.534   2.003  11.412  0.3461  0.1274 -0.0608
12390W        W31244   6.782  16.624  12.491  0.0013 -0.1788 -0.1344
12391W        W31245  14.916   0.891  10.929  0.1838 -0.0237  0.4438
12392W        W31246   0.298   9.317   2.071  0.0289  0.1058  0.0466
12393W        W31247   4.586  14.983  14.548 -0.1513 -0.1474 -0.1161
12394W        W31248  15.536  15.532   4.152  0.2735 -0.0372 -0.1478
12395W        W31249  11.816   7.763   2.194  0.0351 -0.0885 -0.1282
12396W        W31250   8.176  13.406   3.643  0.0235 -0.4071  0.3945
12397W        W31251  11.571  14.740   1.114  0.2666 -0.2028  0.3292
12398W        W31252   4.295  16.997   3.207  0.0308 -0.1832 -0.3096
12399W        W31253  14.556   5.822   0.100  0.0493  0.1483 -0.1182
12400W        W31254   1.608  16.066  11.638  0.1444 -0.1939 -0.1001
12401W        W31255   4.682   3.797  13.404  0.1545 -0.0375 -0.1720
12402W        W31256  12.155  12.395   2.412 -0.0168 -0.0635 -0.1938
12403W        W31257   7.398  17.258   1.044 -0.2261 -0.0333 -0.2468
12404W        W31258   2.799  13.525   1.499  0.3480  0.3058 -0.3173
12405W        W31259   1.835   1.612  13.846  0.0186  0.0974 -0.2614
12406W        W31260  13.211  12.903   3.115  0.1548  0.0531  0.0117
12407W        W31261   3.957   6.902  14.288  0.1713 -0.0925 -0.1064
12408W        W31262   0.352  16.297   3.614  0.2820  0.2523  0.2269
12409W        W31263  14.598   7.099  12.942  0.1003  0.1274  0.1755
12410W        W31264  14.543  14.446  12.981 -0.3520 -0.2981 -0.2407
12411W        W31265   5.904   9.616   1.354 -0.1623  0.3181  0.1340
12412W        W31266   7.883  17.735  13.276  0.0568  0.0076  0.0216
12413W        W31267   2.838  17.842  12.361  0.4187  0.0361  0.2237
12414W        W31268   4.003  15.031  11.355 -0.1468  0.1552  0.0347
12415W        W31269   2.745   2.962  11.905  0.2046  0.1241 -0.2098
12416W        W31270   8.308  14.652   5.700  0.0739  0.3087 -0.0409
12417W        W31271  13.937  15.857  13.091  0.1774  0.3096  0.1530
12418W        W31272  14.035  15.735  13.603  0.0338  0.1113  0.4187
12419W        W31273  11.437  10.103   1.698  0.1038 -0.0731  0.3302
12420W        W31274  13.488   8.732  10.574 -0.0321 -0.2111  0.1775
12421W        W31275  16.664   6.421  12.608  0.0480  0.3947  0.1516
12422W        W31276   4.448   2.210  14.289  0.0769 -0.2562 -0.2909
12423W        W31277  12.773  19.182  13.015  0.0190  0.3109 -0.1074
12424W        W31278   3.177   9.496   1.431  0.0176  0.2695  0.2581
12425W        W31279  16.730  12.157   3.804  0.2064 -0.0612  0.3396
12426W        W31280   5.249  14.380   1.926 -0.0971  0.4322 -0.0349
12427W        W31281   0.032   3.906  10.728  0.1874  0.0165 -0.0850
12428W        W31282   6.174  17.722   4.869 -0.2985  0.1090  0.1219
12429W        W31283   7.630   1.802  13.179  0.1810 -0.2704 -0.0197
12430W        W31284  15.153  15.516   2.366  0.0772  0.1987 -0.1143
12431W        W31285   6.834   4.035  10.083 -0.0408  0.1259  0.2543
12432W        W31286  17.671  11.073   3.756  0.1798  0.2060 -0.1415
12433W        W31287  18.833   7.331   1.008  0.3402 -0.2683  0.3685
12434W        W31288  16.600   9.324   0.596  0.1840  0.1355  0.1316
12435W        W31289   7.226   6.338   2.170  0.2657 -0.1166 -0.1286
12436W        W31290   9.933   6.491   3.614  0.3910  0.4389 -0.0889
12437W        W31291   6.941  13.341  11.063 -0.0432  0.0233 -0.0724
12438W        W31292  10.750   9.318  10.869 -0.1098 -0.1264 -0.0135
12439W        W31293   8.008   5.619  11.611  0.0663  0.0153 -0.0592
12440W        W31294  12.376   2.840   0.452  0.2731 -0.1393  0.1470
12441W        W31295  14.571   8.527  12.994 -0.0195  0.1932 -0.4114
12442W        W31296  12.238   2.022   4.575 -0.2159 -0.4829 -0.1707
12443W        W31297   7.624  17.711   3.188  0.2004 -0.3330  0.0860
12444W        W31298   5.301  12.959   0.443 -0.1607  0.1979 -0.2299
12445W        W31299   0.293   0.358  10.592 -0.1720  0.0513 -0.0966
12446W        W31300   9.555   2.524  14.133  0.1240  0.0285  0.2464
12447W        W31301   3.377   1.173   1.058 -0.2908  0.0496 -0.0391
12448W        W31302   8.271  11.392   9.657 -0.0562 -0.0285 -0.1544
12449W        W31303   9.488   2.937   3.160  0.0254 -0.0634  0.0896
12450W        W31304   8.793   6.502  14.067 -0.3137 -0.0659 -0.0823
12451W        W31305  12.698   4.669  11.620  0.3484 -0.0663 -0.2965
12452W        W31306   4.738  18.923   3.258  0.0493  0.0927 -0.1189
12453W        W31307   7.890  11.952   2.666 -0.0179 -0.1236  0.1294
12454W        W31308  18.459   5.499   2.343 -0.0575  0.4639  0.0867
12455W        W31309  10.245   2.675   2.110 -0.1500 -0.0010  0.2705
12456W        W31310   5.640   0.653  12.560 -0.1011  0.0953 -0.1177
12457W        W31311  13.358  10.314  14.606 -0.0937  0.2290 -0.3057
12458W        W31312  10.465   3.272   1.449 -0.1608  0.0094 -0.0698
12459W        W31313  15.050   6.903  12.678  0.0010 -0.0084 -0.1279
12460W        W31314   2.560   4.186   0.683 -0.1725  0.0831  0.1088
12461W        W31315   8.145  12.726   3.400  0.4374 -0.3395 -0.1243
12462W        W31316  10.491   9.725  12.786 -0.0169 -0.0362 -0.1658
12463W        W31317  18.541   6.040  12.394  0.0536 -0.0229 -0.2886
12464W        W31318   5.640   4.594   3.636  0.1788  0.1469 -0.1168
12465W        W31319   0.396  15.875  12.164 -0.2461 -0.1514 -0.0602
12466W        W31320  17.711   8.037  12.888  0.1528 -0.0074  0.4635
12467W        W31321  14.536   8.155   2.448  0.2179 -0.0182 -0.3142
12468W        W31322  15.079   7.923  11.934 -0.0820  0.1024  0.1436
12469W        W31323  10.712   4.789  12.198 -0.1534  0.0800 -0.2416
12470W        W31324  16.265   4.339   1.998 -0.0256  0.0057  0.1091
12471W        W31325  17.636   3.463  12.550  0.1653 -0.0862 -0.1429
12472W        W31326  15.745   0.064  14.704  0.1481  0.0924 -0.0553
12473W        W31327   1.161  10.338   1.473 -0.1336 -0.2880  0.0336
12474W        W31328   9.060  13.479   3.997 -0.2312  0.3566  0.1624
12475W        W31329   8.320   0.363  14.675 -0.0349 -0.2079  0.2635
12476W        W31330   2.014  14.319  11.434 -0.0391  0.0554  0.0356
12477W        W31331  18.061  12.815  11.438  0.4674  0.0565  0.0414
12478W        W31332   1.639   4.144  14.529  0.2887  0.1239 -0.0153
12479W        W31333   9.163  18.368  12.986 -0.2356 -0.2466 -0.1463
12480W        W31334  18.061   9.619   0.256 -0.1317 -0.0786  0.0993
12481W        W31335  10.879  15.683   1.117 -0.0540 -0.0167 -0.1428
12482W        W31336   1.943  16.156   0.191 -0.1399 -0.0031  0.1460
12483W        W31337   1.828   2.953   0.460  0.1365 -0.3345  0.1407
12484W        W31338  12.794  14.825  14.657  0.0232  0.1372  0.2737
12485W        W31339  11.332   7.906   3.213  0.0315 -0.1982  0.2666
12486W        W31340  13.931  11.637  13.835  0.1284 -0.4358  0.0196
12487W        W31341  18.266   8.425   2.509  0.1463  0.0503  0.1375
12488W        W31342  12.444   1.520  14.231 -0.2102 -0.0549 -0.0995
12489W        W31343  17.572   5.814   2.224  0.3584  0.4824  0.0702
12490W        W31344  13.200  12.444   2.284  0.0189  0.2107 -0.2762
12491W        W31345   1.808  15.241   1.486 -0.1463 -0.1531  0.2740
12492W        W31346  15.036  11.800   2.925  0.1474 -0.0012 -0.0244
12493W        W31347  11.413  15.338   3.762 -0.1357  0.1611  0.0210
12494W        W31348  13.639   3.774   2.112  0.1316 -0.2231 -0.1342
12495W        W31349  12.915  17.288   2.620  0.0718 -0.3424  0.0867
12496W        W31350  17.138  13.581  10.387  0.3641  0.0447  0.4418
12497W        W31351   2.530  14.282   2.508  0.6987  0.1185  0.0706
12498W        W31352  12.091   4.526  13.522  0.3036  0.1433  0.1799
12499W        W31353  17.396  12.861   1.833 -0.0992 -0.2189  0.0935
12500W        W31354   6.455  10.014   2.071 -0.1094 -0.1051  0.0534
12501W        W31355  12.046  14.786   3.107  0.1097 -0.0286 -0.0851
12502W        W31356  16.349   7.197  10.595 -0.2410  0.2332  0.0520
12503W        W31357   1.659   7.010   2.585  0.2499 -0.1593  0.0752
12504W        W31358   0.911  17.966  14.263 -0.1759  0.0938  0.0088
12505W        W31359   5.750   5.711  10.928 -0.1378  0.0688  0.0874
12506W        W31360  10.456   4.120   3.272  0.2500  0.0127 -0.5316
12507W        W31361   2.613  14.558   4.600 -0.0718  0.0134  0.1000
12508W        W31362   5.144   4.859  12.376  0.4617  0.3065  0.1003
12509W        W31363   8.569   0.983  13.890 -0.0314 -0.0712 -0.1578
12510W        W31364   6.420  18.663   2.407 -0.2129  0.1549 -0.1996
12511W        W31365   1.078  15.240   3.282 -0.3195  0.0445  0.1854
12512W        W31366   6.441   2.938  13.158  0.0288  0.1082 -0.0710
12513W        W31367  14.836   5.596   3.569 -0.0040  0.2952  0.0039
12514W        W31368   5.994  10.395   3.907 -0.0299  0.2053  0.1536
12515W        W31369   4.338  14.166  13.283  0.0876 -0.0365 -0.0930
12516W        W31370   5.512  15.879  14.205  0.1402  0.1690 -0.0490
12517W        W31371   9.276   3.183  13.866 -0.0856  0.2097 -0.2625
12518W        W31372   6.449   7.952  14.446 -0.0045  0.3664  0.1903
12519W        W31373   7.008  10.933   9.932  0.1360  0.0457 -0.1691
12520W        W31374   4.517  12.999  12.320 -0.0583  0.1600 -0.4259
12521W        W31375   9.073   2.847   2.087  0.0633 -0.0318  0.1999
12522W        W31376  16.572   0.136  14.071 -0.1593  0.5006  0.2597
12523W        W31377  12.982  17.353   0.944 -0.1636  0.0162 -0.0188
12524W        W31378  16.853  18.470   2.673  0.1610  0.0247  0.2432
12525W        W31379  15.101   0.804  13.080 -0.0954 -0.1545  0.0039
12526W        W31380   4.747  18.391   3.449 -0.0957  0.2047  0.0984
12527W        W31381   5.663   0.112  12.604 -0.0497 -0.0882  0.0914
12528W        W31382  18.923  11.590  14.190  0.1624  0.1559 -0.1691
12529W        W31383  13.316   1.782   1.941 -0.1433 -0.0070 -0.0286
12530W        W31384   1.698   0.598   3.508  0.1683 -0.0331 -0.0261
12531W        W31385  17.121   4.945  10.776  0.0534  0.0822 -0.3226
12532W        W31386  18.546   2.474  13.332  0.2910  0.2907 -0.0458
12533W        W31387   7.868   1.994   1.716 -0.0604  0.0979  0.0002
12534W        W31388   9.620  18.111  13.379  0.2138  0.2701 -0.0734
12535W        W31389   3.871  11.307   3.988  0.2849 -0.1006 -0.0967
12536W        W31390   7.878   3.817   2.459  0.0987  0.3232 -0.0051
12537W        W31391   7.264   0.702  13.267  0.0680  0.0107 -0.0564
12538W        W31392  16.499  18.463   0.646 -0.1089 -0.0832  0.0064
12539W        W31393  15.896  16.548   1.881  0.0879  0.1889 -0.1623
12540W        W31394  16.632   8.308   0.491  0.1857 -0.2991  0.0562
12541W        W31395   5.488   0.299   2.724  0.0273 -0.1640  0.0858
12542W        W31396  10.576   0.735   0.976  0.1995  0.2380 -0.4433
12543W        W31397   3.901   9.843  13.869 -0.0928  0.2756 -0.0827
12544W        W31398  15.187  12.187   1.981  0.0187 -0.0441  0.1703
12545W        W31399   0.083   1.884  12.239  0.0280 -0.1024  0.0824
12546W        W31400   6.658   4.790   0.381  0.0148  0.3697  0.0574
12547W        W31401   4.343   8.831  14.664 -0.0427 -0.3792  0.0249
12548W        W31402  10.887   7.840  10.192  0.1433 -0.3595  0.1471
12549W        W31403  12.932   2.514   3.056  0.0024 -0.0870 -0.1653
12550W        W31404   5.318   5.286   5.035  0.2231 -0.1130  0.3054
12551W        W31405   2.632  16.312  14.612 -0.2005 -0.0872  0.0424
12552W        W31406  16.844   1.570  14.004 -0.1004  0.0621 -0.2050
12553W        W31407   4.891   0.043  11.188 -0.0466 -0.2157 -0.1259
12554W        W31408   7.695  11.509   1.340  0.2879 -0.0624  0.1722
12555W        W31409   8.802  10.337  14.202  0.0264  0.0236 -0.3189
12556W        W31410   9.185  11.477   2.995 -0.0264 -0.1013 -0.4214
12557W        W31411  17.994   1.377   2.910 -0.1301 -0.4331 -0.0591
12558W        W31412  11.103  14.780  14.652 -0.0417 -0.1427  0.2291
12559W        W31413   8.980  12.595  11.759 -0.0173  0.0533 -0.1496
12560W        W31414   1.540  18.989  11.499  0.3462 -0.1447 -0.2412
12561W        W31415  11.889  18.316   2.485  0.2125 -0.3589 -0.1784
12562W        W31416   5.147  17.124   3.584 -0.1329  0.1088  0.0197
12563W        W31417   0.031   5.164  14.669 -0.0968 -0.3792  0.1026
12564W        W31418   8.629  10.864   0.375  0.3169 -0.4593  0.0633
12565W        W31419   3.014  15.345  11.585  0.2238 -0.0697 -0.1636
12566W        W31420   9.836  18.040   0.410  0.1053  0.0246 -0.1513
12567W        W31421  17.433  18.981  10.820 -0.0965 -0.0995  0.5831
12568W        W31422   0.393  12.306  13.660 -0.2370 -0.1350 -0.0527
12569W        W31423  17.167   8.078   9.402  0.2204 -0.1707  0.2287
12570W        W31424   0.402   4.205   1.139  0.2327 -0.2461 -0.0666
12571W        W31425   6.083  17.201   1.176 -0.0739 -0.0535  0.2944
12572W        W31426  15.757  12.500   1.251 -0.2689  0.2930 -0.1102
12573W        W31427   9.745  10.511   0.435  0.0516  0.0861 -0.1606
12574W        W31428  11.262  13.052   2.990 -0.4414 -0.4430 -0.0698
12575W        W31429   1.197  15.337   0.970 -0.1193 -0.2542  0.4077
12576W        W31430   6.200  14.442   1.248 -0.2767 -0.0588 -0.1683
12577W        W31431  12.735  11.623   5.247  0.0485  0.2205  0.1108
12578W        W31432   4.534   2.484  11.776 -0.0225 -0.0038  0.3195
12579W        W31433  12.434   8.032   2.006  0.1252 -0.0362  0.0978
12580W        W31434  17.658  11.714   1.875  0.3009  0.6497  0.1175
12581W        W31435   0.793  11.355  12.650  0.1884  0.0742  0.0248
12582W        W31436  10.546  18.001   2.513  0.2194 -0.2780  0.5142
12583W        W31437   7.756  17.596  12.384  0.0561  0.3537  0.2229
12584W        W31438  18.639  12.636  11.565  0.3180 -0.0234 -0.0991
12585W        W31439   0.190  14.704   1.971 -0.2301 -0.2363 -0.1107
12586W        W31440  18.075  14.730  12.330 -0.4633  0.2117 -0.0520
12587W        W31441   8.615   0.362  11.598  0.3640  0.2681  0.1952
12588W        W31442  15.722   9.538   3.819  0.0596 -0.0461 -0.3437
12589W        W31443   0.883  10.207   3.672 -0.0946  0.0810 -0.1603
12590W        W31444  14.302   5.968   2.735  0.0342  0.0233  0.0249
12591W        W31445   0.276   2.489  10.414 -0.1891 -0.1351 -0.0480
12592W        W31446   9.864  12.635   2.598 -0.1293  0.1946  0.1000
12593W        W31447   8.401   9.114  10.988 -0.5468  0.0128  0.2098
12594W        W31448  15.159  18.654  11.781  0.0676  0.0449 -0.0169
12595W        W31449   8.499  15.094  14.550  0.1212 -0.0138 -0.1997
12596W        W31450  12.522  14.583  13.253 -0.1457  0.1995  0.0582
12597W        W31451  10.172  14.943  10.704  0.1757  0.0886 -0.2447
12598W        W31452  18.215   1.774   0.073 -0.0051 -0.1811  0.1045
12599W        W31453  15.966  17.649   2.047 -0.1105  0.3308  0.0534
12600W        W31454   1.443  10.655   4.571 -0.2728 -0.1948  0.2853
12601W        W31455   8.019  10.310  13.659 -0.1454 -0.1419 -0.0721
12602W        W31456  17.852  16.852  12.689 -0.0871 -0.3030 -0.1681
12603W        W31457   3.634  17.571   2.323  0.4996 -0.1892  0.1752
12604W        W31458  13.003  15.751   1.356 -0.1302 -0.0225 -0.3761
12605W        W31459  10.573  12.660   0.147 -0.3166  0.0096  0.2427
12606W        W31460   9.845   0.641   3.113 -0.0263 -0.0029 -0.0781
12607W        W31461   8.146   2.513   1.780 -0.3397 -0.0103  0.0831
12608W        W31462  16.536  17.953   0.682 -0.1050 -0.0357  0.1713
12609W        W31463  11.928   3.595   0.342 -0.1421 -0.2255 -0.2315
12610W        W31464   1.098   3.805   3.973  0.2951 -0.0040 -0.0590
12611W        W31465   4.928  16.200  10.678  0.2924 -0.0201 -0.5022
12612W        W31466  16.465  16.128  14.039 -0.0639 -0.1731  0.1674
12613W        W31467  14.176  18.903  11.037 -0.1225 -0.1012  0.0729
12614W        W31468   2.274   3.294   0.914 -0.1182 -0.1490  0.1739
12615W        W31469   2.737   1.268  11.661 -0.0381  0.1693 -0.0478
12616W        W31470  18.124   3.194  11.264  0.0934  0.2045 -0.0600
12617W        W31471  15.652  10.198  12.637 -0.1686  0.1365 -0.2471
12618W        W31472  18.161   4.152  11.012  0.1282  0.0823 -0.0376
12619W        W31473  12.840  13.033  11.309 -0.3506  0.0833  0.3596
12620W        W31474  18.200  12.575   1.358 -0.4693  0.0237  0.3181
12621W        W31475   2.290   5.276   0.258 -0.1436 -0.1299 -0.0582
12622W        W31476  13.864   4.275  11.665 -0.0039  0.0281 -0.2619
12623W        W31477  11.719   7.808  12.617 -0.1722  0.1245  0.4167
12624W        W31478  15.998  15.920   2.906  0.3330  0.4573  0.3420
12625W        W31479  11.721   5.254  14.355  0.3441  0.1916 -0.0710
12626W        W31480  13.268  16.895  11.045  0.0730  0.0920  0.2497
12627W        W31481  16.038  18.648   0.640 -0.2604  0.0142  0.2900
12628W        W31482  13.558   5.018   9.667 -0.0981 -0.1343  0.1073
12629W        W31483  12.087   5.177   3.066 -0.1623 -0.0997  0.0356
12630W        W31484  10.947   7.874  13.786 -0.2180 -0.1277  0.0765
12631W        W31485   9.102   9.173  13.478  0.1812  0.1369 -0.2749
12632W        W31486   2.180  12.069  14.089 -0.1510  0.2848 -0.0554
12633W        W31487  15.796   4.633   4.226  0.1806 -0.1106  0.0947
12634W        W31488   4.739  15.345   0.317  0.2006 -0.0975 -0.1116
12635W        W31489  15.611  14.103   2.147 -0.1812 -0.4226 -0.3463
12636W        W31490   9.995  16.068  13.802  0.4734 -0.2357 -0.2964
12637W        W31491   5.202   4.970  12.850  0.1870 -0.1986 -0.1799
12638W        W31492   4.226  14.148   4.458  0.1777  0.4214  0.2886
12639W        W31493   6.638  16.656   4.685  0.0435 -0.3795  0.0577
12640W        W31494  15.642  18.422  12.296  0.2584 -0.0714  0.0720
12641W        W31495  14.140  13.595   1.023  0.3009  0.2177  0.2901
12642W        W31496  14.078   8.896   1.432 -0.1193 -0.0991 -0.3975
12643W        W31497   6.847   9.556   0.346 -0.1328  0.1384 -0.0649
12644W        W31498  16.579  15.667   3.672 -0.1480  0.2229  0.2682
12645W        W31499   4.561   7.432   2.892  0.1168  0.0477 -0.0268
12646W        W31500  10.314   8.513  14.104  0.0962  0.0328  0.0829
12647W        W31501   5.381   5.411   1.019  0.1135  0.0716  0.1111
12648W        W31502  17.796  15.228  11.245  0.0693  0.0196  0.1119
12649W        W31503   9.239   3.138  11.542 -0.1674 -0.2132 -0.0381
12650W        W31504   5.649  12.002  11.721  0.2877  0.1570 -0.1017
12651W        W31505  13.111   7.605   2.968 -0.1603  0.0554 -0.1200
12652W        W31506   8.641  16.801   0.732 -0.0477  0.1447  0.0659
12653W        W31507   0.261  13.248   1.871  0.1353  0.1497  0.3852
12654W        W31508   0.146  17.638  11.440 -0.1586  0.0149  0.2354
12655W        W31509  12.159   0.007  13.328  0.0414  0.0066 -0.3058
12656W        W31510  15.073   0.891  11.488 -0.1875  0.0682  0.3158
12657W        W31511  12.108  16.569   0.257  0.1438  0.0372  0.0005
12658W        W31512   6.799   8.271   2.252 -0.0803  0.0713 -0.1537
12659W        W31513  18.435   4.769  14.387 -0.1753 -0.1986 -0.2195
12660W        W31514   5.266  16.928  12.761 -0.0253 -0.1522 -0.1472
12661W        W31515   8.514   7.003  12.233 -0.0310  0.0996  0.1824
12662W        W31516   7.137  14.193   1.763 -0.0411 -0.0903  0.0703
12663W        W31517  15.225  18.001  10.835  0.1841 -0.0939 -0.2019
12664W        W31518  10.329   0.716  10.784 -0.1395  0.2970 -0.2761
12665W        W31519   9.093   3.431  12.527  0.1364 -0.5296 -0.2353
12666W        W31520  10.217   8.356  14.659  0.1065 -0.1341  0.0414
12667W        W31521   2.079   7.453   0.273 -0.0527 -0.0235  0.4001
12668W        W31522   3.639  16.030  14.477  0.0118 -0.0058  0.1983
12669W        W31523   1.934  12.630   1.470 -0.1997  0.0670 -0.1529
12670W        W31524   8.400   6.626   4.690  0.2358 -0.0831 -0.0670
12671W        W31525   8.160   1.168   5.206  0.1325 -0.3537  0.2920
12672W        W31526   5.070  13.062   4.122  0.0736  0.2046 -0.0358
12673W        W31527   8.654  13.266   5.257  0.2247 -0.0019  0.1049
12674W        W31528   5.521   4.277  11.726 -0.3186 -0.0163 -0.2799
12675W        W31529  14.846   0.340   3.745  0.0889  0.1515  0.2461
12676W        W31530   2.315   1.490  13.747  0.1332  0.1394  0.4085
12677W        W31531  17.280  13.545   1.142 -0.0332 -0.2813 -0.0056
12678W        W31532   7.145  14.887  11.042 -0.1072  0.3211  0.1811
12679W        W31533   7.011   2.749   0.604  0.3169  0.1237  0.3506
12680W        W31534   6.565   6.899   3.371  0.2390  0.1052 -0.0786
12681W        W31535   4.945  13.706   1.444  0.0697 -0.0021 -0.2324
12682W        W31536  16.744  13.564   1.792  0.1604  0.1250  0.1709
12683W        W31537   1.290   3.957   0.951  0.2433 -0.0717 -0.1445
12684W        W31538   6.377   0.601   2.786 -0.0663 -0.0795 -0.3058
12685W        W31539   9.665   7.963   0.357 -0.0822  0.0682  0.2161
12686W        W31540  13.332   2.741   1.388 -0.6328  0.0811 -0.1403
12687W        W31541   2.190   7.380   3.659 -0.3301 -0.0126  0.2911
12688W        W31542  19.124   0.048   1.202 -0.0567 -0.2442 -0.0214
12689W        W31543  14.192   0.552  12.875 -0.0704  0.1840 -0.1328
12690W        W31544  11.043  12.598   3.337  0.0222 -0.1066 -0.1687
12691W        W31545   8.572   5.739  13.220  0.2561 -0.1291 -0.0682
12692W        W31546  18.537   5.805   4.551 -0.2413 -0.1076 -0.3015
12693W        W31547   8.893   9.277  10.660 -0.0161  0.0109  0.0093
12694W        W31548  14.523   2.827   1.446 -0.0776 -0.1229  0.2477
12695W        W31549   3.018   4.155  14.623  0.3725 -0.2459 -0.1830
12696W        W31550  12.240   4.134   3.436 -0.0041  0.0339  0.0599
12697W        W31551   2.074   9.991  14.315 -0.1931  0.1482  0.0141
12698W        W31552  17.591   0.318  14.105 -0.0620  0.0092  0.0091
12699W        W31553  11.853   6.367   3.673  0.1490  0.7372 -0.2179
12700W        W31554  11.063  10.977   1.206  0.1476  0.1044 -0.1778
12701W        W31555  12.872   8.908   9.756 -0.2966  0.1955  0.1758
12702W        W31556   1.763   4.743  12.734  0.1328 -0.1789  0.1514
12703W        W31557  16.015  17.536  14.243  0.0618 -0.0489  0.1689
12704W        W31558   0.011  15.218   1.681  0.2672  0.1020 -0.1274
12705W        W31559   4.100  11.578  12.643  0.0053 -0.0763  0.0287
12706W        W31560  19.092   5.973  10.192 -0.0164 -0.1343  0.1603
12707W        W31561   3.359  12.146   2.906 -0.1269 -0.1885 -0.0400
12708W        W31562   1.397   2.799   4.430 -0.1348 -0.0330  0.0416
12709W        W31563  18.730  11.824  13.401  0.0898  0.1432 -0.0505
12710W        W31564  17.236  12.168  11.715  0.3045  0.2085  0.1508
12711W        W31565   8.841   8.377  12.272  0.1167  0.1230  0.2229
12712W        W31566   3.802   6.222   0.697  0.1189  0.0050 -0.2965
12713W        W31567  13.613   1.775  12.773 -0.0362 -0.1478 -0.0797
12714W        W31568   2.952   7.552   4.180  0.3272  0.2445 -0.0175
12715W        W31569   0.207   4.019   2.506  0.3282  0.1167 -0.0555
12716W        W31570   9.324   3.634  14.028  0.0048  0.0600  0.0414
12717W        W31571   0.687   1.260  11.476  0.2742  0.3078  0.5016
12718W        W31572   3.817   5.105   3.417 -0.0082  0.1465  0.1129
12719W        W31573  17.458  10.012   0.961 -0.0926  0.0634 -0.0004
12720W        W31574  10.878  16.149   1.470  0.2466  0.0436  0.0196
12721W        W31575  16.911   1.403   2.776 -0.3638  0.0299 -0.1187
12722W        W31576  18.443   9.689  11.407 -0.2029  0.0719  0.0103
12723W        W31577   3.712  11.536   5.267 -0.0229  0.0809 -0.0893
12724W        W31578  10.979   6.830  12.291  0.1559 -0.0385  0.3050
12725W        W31579   6.165  14.005   0.437  0.3642  0.0000  0.0816
12726W        W31580   6.835   9.475   2.539 -0.0785 -0.1165 -0.1394
12727W        W31581  16.847  13.155  13.576  0.1882 -0.0687 -0.5510
12728W        W31582  11.940  15.078  14.449  0.0929 -0.1068 -0.1898
12729W        W31583   0.694   6.905  10.449 -0.1439  0.0415  0.3334
12730W        W31584   5.218   6.327   1.204  0.0486  0.2759 -0.3751
12731W        W31585   6.665   2.002  10.687 -0.1148  0.5266  0.0586
12732W        W31586   9.215  12.551  14.381 -0.2910 -0.1984  0.3415
12733W        W31587  14.188   8.907   1.976 -0.2511 -0.1129 -0.1331
12734W        W31588  10.511   5.833  14.654 -0.0931  0.2266 -0.0031
12735W        W31589   6.029   9.213  11.302 -0.0917  0.1977  0.0152
12736W        W31590  11.977  12.631  13.892 -0.0257  0.0593  0.0353
12737W        W31591  19.068  15.290   0.364  0.0123 -0.0641 -0.0793
12738W        W31592  17.353  14.445   4.599 -0.0309 -0.0783  0.0592
12739W        W31593  10.412  14.638   1.871  0.0131 -0.0261 -0.2536
12740W        W31594  15.147  14.662  12.027 -0.0424  0.0077 -0.3840
12741W        W31595  12.739   1.296  12.069 -0.2231 -0.0610 -0.0658
12742W        W31596  17.677  17.383   2.151 -0.1916  0.0985 -0.0377
12743W        W31597   0.866   5.547   2.380 -0.1088  0.1100  0.0260
12744W        W31598   6.465  14.808   0.106  0.0340 -0.0220 -0.1113
12745W        W31599   5.141  15.286   1.770  0.0443  0.0697 -0.0111
12746W        W31600   5.192  17.137  10.899 -0.0148 -0.2218 -0.0278
12747W        W31601  14.939  15.889  11.745 -0.3205  0.3875 -0.0416
12748W        W31602  17.577   0.152  13.244 -0.0015 -0.0380  0.1123
12749W        W31603   3.856   5.182   2.588 -0.3103  0.1593  0.1447
12750W        W31604  14.475  12.982  13.201  0.3201  0.1429  0.0323
12751W        W31605   8.640  12.129  10.475  0.1560  0.0673  0.1033
12752W        W31606   3.786  15.366   4.641 -0.3066  0.0595  0.2349
12753W        W31607   5.822   6.118   0.506  0.3212 -0.3678 -0.1171
12754W        W31608   0.522   5.816   1.491  0.0993  0.4582 -0.2490
12755W        W31609  13.424  17.957  14.338 -0.3189  0.1591  0.0833
12756W        W31610  13.755   9.286   2.708  0.1303  0.0065 -0.0679
12757W        W31611  12.241  16.373   9.837  0.0328 -0.0481 -0.0436
12758W        W31612  13.766  12.662   1.395 -0.0650 -0.0124 -0.3449
12759W        W31613   1.662   9.706  13.461 -0.2419 -0.3409 -0.1533
12760W        W31614   5.162  18.420   1.261 -0.0201 -0.1271  0.1945
12761W        W31615   6.570   4.732  10.423  0.2808 -0.3100 -0.1191
12762W        W31616  14.676  15.997   3.601 -0.0681 -0.0821 -0.1224
12763W        W31617  15.801  15.323  11.788 -0.3542 -0.0236  0.1297
12764W        W31618  16.491  13.639  10.526 -0.2390 -0.3915 -0.1360
12765W        W31619   5.363   6.827   2.207 -0.0675 -0.0746  0.1504
12766W        W31620   7.704  16.520  13.049 -0.0356  0.2267 -0.1703
12767W        W31621   4.256   2.014  12.969 -0.1268 -0.0210  0.3257
12768W        W31622  18.094   4.102  14.327 -0.1701 -0.1896  0.0352
12769W        W31623  10.318  13.325  10.600 -0.1671 -0.0963 -0.0721
12770W        W31624  15.261   9.687   1.711 -0.0066  0.2636 -0.2864
12771W        W31625   1.976  18.153   2.056 -0.0061 -0.1347 -0.1334
12772W        W31626   1.979   2.539  14.206 -0.1116 -0.1921 -0.4798
12773W        W31627   5.001   2.603  12.188 -0.1933 -0.0253 -0.1320
12774W        W31628   7.428  11.113  11.818 -0.2270 -0.1170  0.0346
12775W        W31629   6.189  14.489  11.667 -0.1500  0.2329 -0.1605
12776W        W31630   1.688   5.857  14.707 -0.2546 -0.3191  0.0371
12777W        W31631  16.008   5.069   0.982  0.0681 -0.0655  0.1485
12778W        W31632   2.988   6.271   4.721  0.1701  0.1744  0.4140
12779W        W31633   2.469   4.787  10.971  0.0426 -0.0208  0.2584
12780W        W31634   7.206  16.831  11.628 -0.5734 -0.0122  0.1062
12781W        W31635   4.676   4.252   1.362 -0.0472  0.1721  0.0594
12782W        W31636   3.564  14.166   1.652  0.1813  0.0792  0.0441
12783W        W31637  14.917   9.957   0.877  0.0942  0.0970 -0.1711
12784W        W31638   8.752   1.982   2.297 -0.6029  0.0237  0.0937
12785W        W31639   7.496  18.946   1.665  0.0997  0.2020  0.3437
12786W        W31640  10.163   3.479   1.127 -0.3709 -0.2126  0.1720
12787W        W31641  11.739   7.336  14.021 -0.3972 -0.0435  0.0581
12788W        W31642  15.469  14.580  14.194 -0.1010  0.0881 -0.1767
12789W        W31643   6.124   2.824   0.034 -0.0591  0.1780 -0.0392
12790W        W31644  16.201  19.019  12.102  0.0165  0.3719 -0.1394
12791W        W31645  12.360  17.704   3.390 -0.2145  0.2800 -0.1816
12792W        W31646  18.930   5.858  10.636 -0.0688 -0.0965  0.1958
12793W        W31647  14.882  11.178  11.595  0.1414 -0.0987 -0.0069
12794W        W31648   3.378  16.894  14.730 -0.0133 -0.0670 -0.2248
12795W        W31649   4.125   9.498   2.469  0.1692  0.1417  0.0582
12796W        W31650   1.864   9.513   0.731 -0.0070 -0.3200 -0.1045
12797W        W31651  15.308   7.507   0.461 -0.1588  0.3112  0.0619
12798W        W31652   4.412  12.643   3.340 -0.2512  0.1664  0.0902
12799W        W31653   3.925  12.141   1.243 -0.0293 -0.1036  0.0621
12800W        W31654   2.936  16.852  12.415 -0.1698 -0.1926 -0.0887
12801W        W31655  13.421  16.433  14.319 -0.2480  0.4489  0.0810
12802W        W31656  16.485   5.255  13.143 -0.2135 -0.0393 -0.1735
12803W        W31657  14.366   2.281   2.316  0.0281  0.1342  0.1869
12804W        W31658   0.420  18.122  13.113 -0.0875  0.1720  0.1580
12805W        W31659   9.373  10.169   1.533  0.0476  0.1198 -0.0554
12806W        W31660   2.902   9.551   0.499 -0.1249 -0.0179  0.1357
12807W        W31661  15.993  16.958  10.783 -0.1806 -0.1540 -0.2151
12808W        W31662   4.381   8.781   1.984 -0.0448  0.0534  0.1447
12809W        W31663  10.798  12.534  11.402 -0.1911  0.2945 -0.2908
12810W        W31664   6.337  11.123  12.779  0.0524 -0.0713 -0.0907
12811W        W31665   5.544   8.990   0.526  0.1119  0.1705 -0.1693
12812W        W31666  15.459   7.811  12.369  0.2941 -0.0681 -0.1077
12813W        W31667   4.563   7.246  14.439  0.1970 -0.3191  0.1315
12814W        W31668   4.274  10.509   2.682  0.2694 -0.2713 -0.0692
12815W        W31669  16.510   2.850  12.956  0.0138 -0.2525 -0.0454
12816W        W31670  13.827   0.106  10.937 -0.0760  0.2351  0.0169
12817W        W31671   8.707  14.335  10.614  0.1113 -0.1679 -0.1338
12818W        W31672   0.968   5.412  10.944  0.0244  0.1102 -0.1304
12819W        W31673   0.580   4.191   2.147 -0.2425  0.1785  0.4527
12820W        W31674  18.612   5.103   2.677  0.0250  0.1151  0.1554
12821W        W31675   2.090  13.253  11.999  0.0163 -0.0871  0.0743
12822W        W31676   0.279   4.760  12.372  0.2120 -0.0969  0.0643
12823W        W31677   2.853  16.047   2.360 -0.2549 -0.0633 -0.0311
12824W        W31678   3.664  12.633   3.034  0.2976 -0.1374  0.1701
12825W        W31679   7.791   6.598  10.053  0.1827 -0.2922  0.1405
12826W        W31680   6.878  14.712  10.448  0.2183 -0.0297 -0.0184
12827W        W31681  15.179  13.102   3.159 -0.1124  0.2254  0.0920
12828W        W31682  10.718   1.245   2.048  0.1657  0.0902  0.0331
12829W        W31683   6.672  13.966  14.454 -0.1240 -0.2008  0.0248
12830W        W31684  13.965  10.473  11.797 -0.1594  0.0078 -0.1959
12831W        W31685  16.256   3.610  12.799 -0.1670  0.1343 -0.2779
12832W        W31686   2.764  12.131   4.361 -0.0378 -0.0473  0.0522
12833W        W31687  18.410   1.510  14.402 -0.0836  0.0258 -0.0104
12834W        W31688   8.145   0.297   0.417 -0.2403 -0.0380 -0.3303
12835W        W31689  18.903   8.687   9.571  0.0972  0.2010 -0.0378
12836W        W31690  11.430   6.017  10.810 -0.0892  0.0235 -0.0299
12837W        W31691   7.984   6.745   1.340  0.1208  0.1656 -0.0312
12838W        W31692  15.523   3.253   1.688  0.2111  0.3122  0.1544
12839W        W31693  14.734   9.517   4.193  0.2860  0.1329  0.1041
12840W        W31694  13.071  13.898   2.895 -0.0141 -0.1692  0.1986
12841W        W31695   8.213   5.528   2.640  0.1589  0.2028  0.1933
12842W        W31696   9.750   2.992  14.082  0.0780  0.2672  0.0013
12843W        W31697  16.866   5.733   0.666  0.1784  0.4356 -0.2723
12844W        W31698  14.612  19.112  11.116  0.0454  0.3292  0.2288
12845W        W31699  16.565   3.005  12.479  0.0960 -0.0917 -0.0535
12846W        W31700  17.112   4.975  14.194 -0.1400 -0.0688  0.0385
12847W        W31701  18.600  11.063  12.664 -0.0016  0.0889  0.0809
12848W        W31702  13.716   3.841   3.409  0.4260 -0.1154  0.0147
12849W        W31703  10.777   3.812   0.496 -0.2486  0.1614 -0.2172
12850W        W31704  12.533   4.885   1.454 -0.1613 -0.1292  0.1804
12851W        W31705  14.360  18.856  11.543  0.1708 -0.1600 -0.0799
12852W        W31706   7.496   6.717   1.458  0.0494 -0.0109  0.3233
12853W        W31707   5.761  15.981  12.987  0.1791  0.0259  0.4510
12854W        W31708   8.091   8.095  11.039 -0.1286  0.0515  0.0641
12855W        W31709   8.680   7.040  13.302  0.0917  0.0577  0.2359
12856W        W31710   8.129  11.117  13.572 -0.2285  0.1347 -0.0150
12857W        W31711   3.220  18.422   1.064  0.1872  0.0079  0.3040
12858W        W31712  12.941  13.916  12.787 -0.3410  0.2359 -0.2237
12859W        W31713   3.982  15.243   1.121  0.6034  0.1021  0.0884
12860W        W31714  11.510   7.229   9.803 -0.0016  0.2989  0.0098
12861W        W31715  13.369  18.015  13.510  0.0153 -0.2640  0.1301
12862W        W31716  18.507  11.375   1.981  0.1370  0.3222 -0.0371
12863W        W31717   9.024  12.569   2.256 -0.0927  0.2497 -0.0923
12864W        W31718   4.315   0.992  13.823  0.0441 -0.0872 -0.3032
12865W        W31719   8.519   5.887   1.494  0.0680  0.4585  0.1003
12866W        W31720   3.515   7.163   1.576  0.0358  0.1064 -0.2524
12867W        W31721  17.835  14.427  13.517 -0.0715 -0.2057 -0.1760
12868W        W31722   7.303   2.504   2.710  0.2273 -0.1472 -0.3690
12869W        W31723  14.950   5.666   2.082  0.2045  0.0164  0.1277
12870W        W31724  11.141   7.266  11.358 -0.1391 -0.1188  0.2445
12871W        W31725  17.773  17.610  11.303 -0.0920  0.3666  0.0199
12872W        W31726   1.167  13.931   4.362 -0.0739  0.0866 -0.1713
12873W        W31727   8.244   0.327  13.298 -0.1343 -0.0304 -0.1080
12874W        W31728   4.322   5.569   1.421  0.1082  0.1394 -0.1574
12875W        W31729  16.615   9.580   4.015  0.5884 -0.4036 -0.3063
12876W        W31730   8.313   7.736  11.333  0.3243  0.2691  0.0407
12877W        W31731   1.260  10.524   3.683 -0.0137  0.1639 -0.0299
12878W        W31732   3.801  15.574   4.139 -0.0884  0.8205 -0.0077
12879W        W31733  11.936  10.000   2.700  0.1527 -0.3011  0.1972
12880W        W31734   7.285   9.257  13.182  0.0956 -0.3283  0.1317
12881W        W31735   5.026   2.175   2.652 -0.0520 -0.0235  0.1402
12882W        W31736   7.940  15.822  11.382 -0.1773  0.0502  0.0554
12883W        W31737  13.703   5.161   0.970  0.0946  0.1091 -0.0400
12884W        W31738   9.678   4.861  13.120  0.0872 -0.0780  0.2596
12885W        W31739   0.689   8.721   4.657 -0.2394 -0.0660  0.1299
12886W        W31740   0.477  16.498   1.795  0.0440  0.1770  0.0980
12887W        W31741  18.170  16.704  14.682 -0.2017  0.0837  0.3160
12888W        W31742   7.970   7.404   1.970  0.1941  0.1048 -0.2723
12889W        W31743  11.374   2.206  11.900  0.0764 -0.1121  0.1365
12890W        W31744   2.890  15.354   1.335 -0.1685 -0.2338 -0.1745
12891W        W31745  12.518  11.591   1.390  0.2146 -0.1527  0.0916
12892W        W31746   5.269   3.943   1.565  0.0378 -0.0176  0.2541
12893W        W31747   0.987  13.938   2.488  0.2739  0.0025 -0.2348
12894W        W31748   4.594  12.025   0.086  0.1266 -0.0163 -0.2209
12895W        W31749   9.117   7.153  10.383 -0.4819 -0.0536  0.1705
12896W        W31750  17.178   0.479  13.206  0.2080  0.3031 -0.2300
12897W        W31751  17.634   5.327  13.274  0.1659  0.1855  0.0611
12898W        W31752  14.384   7.868  14.568 -0.1185 -0.1728  0.2309
12899W        W31753   1.054  13.426   3.274 -0.0480  0.0642 -0.2152
12900W        W31754  18.172   1.538   2.482 -0.0732  0.0390  0.0467
12901W        W31755   1.182  13.602   0.636 -0.0488 -0.0971  0.0739
12902W        W31756  10.294   4.467  14.460 -0.0817  0.1421  0.0111
12903W        W31757   9.882   6.433  13.179  0.2377 -0.1461 -0.0371
12904W        W31758   9.171   6.866  14.287  0.2232  0.1744 -0.0482
12905W        W31759   8.228  16.748   3.697 -0.3718 -0.1956 -0.0438
12906W        W31760   6.003  15.517   0.225 -0.0896  0.1669  0.1409
12907W        W31761  14.695   5.117  14.618  0.2772  0.0965  0.4108
12908W        W31762  10.203   2.051  11.275 -0.1676  0.1246  0.3074
12909W        W31763   5.239   6.910  13.597  0.3133  0.1365  0.1009
12910W        W31764  13.468   3.556  14.603  0.2305 -0.1625 -0.3838
12911W        W31765   6.153  18.260  14.496  0.1007 -0.1207 -0.2887
12912W        W31766   8.661  12.091   2.252  0.0014  0.0347 -0.3406
12913W        W31767   2.064  13.017   1.805 -0.0968  0.1132 -0.0066
12914W        W31768  16.198   7.686   2.681 -0.1469 -0.6719  0.2611
12915W        W31769  17.700   5.109   0.058  0.0501 -0.1977  0.2902
12916W        W31770   8.193   4.827   2.592  0.0058  0.2331  0.0536
12917W        W31771   4.150   7.652  10.159  0.0537 -0.0230  0.0168
12918W        W31772  11.020  10.462  13.693  0.2225 -0.1411  0.2336
12919W        W31773   5.727  14.604   3.722 -0.2848  0.0806  0.1892
12920W        W31774  15.868   8.913  14.208 -0.1018 -0.0723  0.3413
12921W        W31775  18.284  15.119   4.069  0.3225  0.0416  0.1119
12922W        W31776   5.987   9.125  12.175  0.0528 -0.0196 -0.0303
12923W        W31777  15.659   3.173  14.349  0.1580 -0.0498  0.2412
12924W        W31778   9.203   6.708   1.016 -0.0227  0.3381 -0.0415
12925W        W31779   3.417   6.828   3.174 -0.1465 -0.0875  0.3333
12926W        W31780  15.497  15.014   4.728  0.1318  0.0960  0.0996
12927W        W31781  18.888  16.234  12.355 -0.2502 -0.1058 -0.0458
12928W        W31782   3.351  17.972   0.909  0.1539  0.2698 -0.2034
12929W        W31783   7.014  17.201   0.138  0.1635  0.2471 -0.2108
12930W        W31784  12.477  15.022   2.711 -0.1957  0.0573  0.2076
12931W        W31785   9.760   9.713   1.541 -0.0158  0.1627 -0.3251
12932W        W31786  14.924  14.962   3.590 -0.0818  0.1340  0.0789
12933W        W31787  18.554  17.898   1.115 -0.1993 -0.1794 -0.3003
12934W        W31788  15.576  11.711   4.088  0.1196 -0.3190  0.0031
12935W        W31789   4.859  13.532   3.634 -0.1412 -0.4506  0.2527
12936W        W31790  13.874   3.062   2.590 -0.0178  0.0036  0.3885
12937W        W31791  15.575   9.843  13.191  0.1130  0.0257  0.0729
12938W        W31792   3.957   1.828   4.162  0.0412 -0.3466  0.1648
12939W        W31793  15.182  14.682  12.569 -0.2165  0.0575 -0.0040
12940W        W31794  15.189  13.506   0.495  0.0814 -0.0123 -0.1894
12941W        W31795  15.105  19.180  11.076 -0.1959  0.1206  0.0897
12942W        W31796   5.914   6.904   4.006  0.1758  0.3953 -0.1316
12943W        W31797   9.700  15.405   0.479  0.0093 -0.3249  0.1588
12944W        W31798   4.884   3.069   1.264 -0.2426  0.0428 -0.0160
12945W        W31799   5.634   8.894   1.899  0.4193  0.0866  0.1457
12946W        W31800   6.009   8.799   0.651 -0.0553 -0.2124 -0.3931
12947W        W31801  18.158  10.658  11.179 -0.2237  0.3057 -0.2356
12948W        W31802  11.809   8.551   1.556 -0.0717  0.0507 -0.0396
12949W        W31803  10.738   2.866  11.120  0.0560 -0.0701  0.0607
12950W        W31804  16.425   7.285   3.710 -0.0131 -0.0422  0.0288
12951W        W31805  17.948   5.064   1.054  0.0763 -0.2624 -0.1055
12952W        W31806  15.696   0.418  10.968 -0.0583  0.1803 -0.5022
12953W        W31807   0.694   2.299  14.177  0.0795  0.4143  0.1664
12954W        W31808   8.537  16.418   3.324  0.1564  0.1088 -0.2086
12955W        W31809   0.293   4.535  11.794  0.1443  0.0128  0.0215
12956W        W31810  18.656   7.203  12.031 -0.2421  0.3003 -0.0312
12957W        W31811   5.329   5.729  14.488 -0.3947  0.0151  0.0965
12958W        W31812  11.827   4.813  11.853  0.1743 -0.0067 -0.0275
12959W        W31813  16.551  16.373  12.670 -0.3787 -0.1111 -0.1733
12960W        W31814   4.507  16.229   3.811  0.2243 -0.0204 -0.0647
12961W        W31815  18.026  12.667   2.692  0.3614  0.0694 -0.0383
12962W        W31816   7.781  11.999   0.127 -0.2400  0.1723 -0.0633
12963W        W31817   8.318  16.667  12.612 -0.0069  0.2274  0.1107
12964W        W31818  18.797  15.451   3.937 -0.1416 -0.1503  0.0493
12965W        W31819  17.733   0.601  10.575 -0.0015 -0.4799 -0.0510
12966W        W31820   2.140   7.789  14.622 -0.2094  0.2198 -0.1847
12967W        W31821   2.296   1.494   4.990 -0.0866  0.0161 -0.3111
12968W        W31822   7.457  18.314  11.769 -0.0398 -0.2310  0.1559
12969W        W31823  19.059   9.522  12.170 -0.1420  0.1727 -0.0301
12970W        W31824   6.261  18.472   3.479 -0.2632  0.0283 -0.1227
12971W        W31825   3.126   1.524   3.064  0.2346 -0.1889 -0.0904
12972W        W31826  11.082   5.100   0.805 -0.0855  0.0997 -0.3467
12973W        W31827  10.269  11.496  12.188 -0.1010 -0.0868  0.1876
12974W        W31828  15.564   3.182  13.034 -0.0050  0.0799 -0.0255
12975W        W31829  13.323   5.435   9.483  0.3971 -0.2188 -0.2035
12976W        W31830   4.170   6.168   2.642  0.1616  0.1820  0.2690
12977W        W31831   2.953   6.757   1.030  0.1151 -0.2950 -0.0605
12978W        W31832  15.433  17.084  10.905  0.0304 -0.1691  0.2559
12979W        W31833  11.589  12.353   1.431 -0.3833  0.2824  0.0589
12980W        W31834   1.914  15.367  12.975  0.0373 -0.0089  0.1153
12981W        W31835   0.597  10.364   1.127 -0.1448  0.4348  0.0938
12982W        W31836   7.199   8.220   5.096  0.1616  0.0519 -0.4975
12983W        W31837   1.598   7.952   3.478 -0.0308  0.2061  0.1245
12984W        W31838   6.614  16.618  13.568  0.1533 -0.0642 -0.0855
12985W        W31839   5.402   9.588  14.360 -0.0116  0.3433  0.0884
12986W        W31840   5.835  13.506   0.987 -0.2276 -0.2162 -0.0798
12987W        W31841  12.488  13.741   3.856  0.0152 -0.0892 -0.2541
12988W        W31842   2.998   0.851  14.074  0.0103  0.0592  0.1540
12989W        W31843   5.263   9.335  12.034  0.1108 -0.0415  0.0071
12990W        W31844   9.521  16.691  13.328 -0.2504 -0.2747  0.1310
12991W        W31845  12.740   7.807  10.993 -0.3201 -0.4162  0.0900
12992W        W31846  14.279  15.597  11.105  0.1929  0.2786  0.0727
12993W        W31847   4.058  18.163  11.495  0.2033 -0.0455 -0.5090
12994W        W31848  16.826   4.861   2.248  0.0000 -0.4184  0.1803
12995W        W31849  16.812   9.634   1.850 -0.2708  0.2903  0.2538
12996W        W31850   7.073   7.265   2.096  0.1194 -0.0281 -0.0534
12997W        W31851   5.543   3.830  13.831  0.2887  0.0597 -0.0294
12998W        W31852  11.335   4.121  14.618  0.0176 -0.1647 -0.5209
12999W        W31853   2.308   5.650  11.975 -0.1887 -0.0903  0.4415
13000W        W31854   3.691   3.530  14.117  0.0321 -0.2516 -0.1769
13001W        W31855   2.378   7.469   3.181  0.0303 -0.1538 -0.1297
13002W        W31856   7.282  17.991  14.646 -0.0203 -0.0628  0.1526
13003W        W31857  17.458   0.410   3.584  0.2492  0.0573 -0.0504
13004W        W31858  12.269  10.521  10.934  0.3082 -0.0572  0.0139
13005W        W31859   1.823   9.075  10.707 -0.1167  0.0320 -0.0197
13006W        W31860  16.227  11.961   0.803  0.1019 -0.0214  0.1259
13007W        W31861  14.855  10.434   3.960 -0.1840  0.1689  0.1125
13008W        W31862  12.327  13.341  10.335  0.1250 -0.3120 -0.3156
13009W        W31863  18.753  16.120   3.081 -0.0332 -0.4109  0.0417
13010W        W31864  11.342  14.737   3.872  0.1114 -0.2656 -0.0248
13011W        W31865  17.040  15.884  11.524  0.0967  0.2712 -0.0532
13012W        W31866   5.986  16.430  13.039 -0.0691 -0.0607 -0.1310
13013W        W31867  15.168  13.994  10.016 -0.0651  0.0267  0.2923
13014W        W31868  12.271  16.210   2.520  0.3215 -0.1612 -0.1006
13015W        W31869   7.638   3.036  10.717  0.0703 -0.0040  0.0035
13016W        W31870   5.124   4.685  14.225  0.1614  0.2982 -0.3096
13017W        W31871   1.395  15.843   3.823  0.2135  0.1259 -0.2252
13018W        W31872   6.485  17.104   1.867  0.0870  0.1202  0.0207
13019W        W31873   3.660   5.772   0.295  0.3048 -0.0172 -0.2800
13020W        W31874  16.591  18.897   2.772  0.1077  0.3191 -0.1165
13021W        W31875   3.139  16.210   2.874  0.2781  0.0495  0.0582
13022W        W31876  16.234   8.606  10.275  0.2028 -0.2659  0.0205
13023W        W31877  12.392   6.269   0.814 -0.0620  0.2509 -0.1800
13024W        W31878   4.386   6.174  10.808 -0.0973 -0.0829  0.1029
13025W        W31879  10.102  16.379  12.797  0.0893  0.0736 -0.5889
13026W        W31880  15.539   3.499   2.651  0.1137  0.0050 -0.1429
13027W        W31881  14.490   2.246  12.608 -0.1739 -0.4025  0.5547
13028W        W31882   1.194   2.482  11.467 -0.1803 -0.3467  0.1147
13029W        W31883  14.848  15.790   3.140  0.2158  0.0414 -0.1019
13030W        W31884   4.590   3.274   0.291 -0.0326  0.0160 -0.2113
13031W        W31885   6.416   7.892  10.245  0.1620  0.1680  0.3872
13032W        W31886  17.303  15.823   3.950 -0.0884 -0.2904 -0.1729
13033W        W31887  16.545  15.170  13.971  0.5111 -0.0416  0.1312
13034W        W31888   6.815  13.877  12.166  0.2258  0.0383  0.0201
13035W        W31889   3.369  10.786   5.068  0.0316 -0.3802  0.0341
13036W        W31890   0.842  15.211   1.406 -0.1131 -0.1778 -0.0681
13037W        W31891   0.979   3.750  13.501  0.0904 -0.1097 -0.0178
13038W        W31892   7.635   8.155   2.436 -0.0856 -0.1486  0.2409
13039W        W31893   1.621   5.081   3.973  0.0775  0.0914  0.2417
13040W        W31894   9.137  12.222  13.137 -0.3119  0.3107 -0.0873
13041W        W31895   3.569  15.095  14.682 -0.5634 -0.2736 -0.0938
13042W        W31896  10.963  17.219  11.286  0.0090  0.2391 -0.1854
13043W        W31897  18.797   2.121   1.519 -0.1688 -0.0743 -0.0490
13044W        W31898   6.135   6.375   1.693 -0.1029 -0.0672 -0.2565
13045W        W31899  19.142   2.859  13.868 -0.5297 -0.1065 -0.0759
13046W        W31900   0.004  14.953   3.823  0.1205 -0.3301 -0.0011
13047W        W31901   1.991  15.238   5.556 -0.0968  0.2994 -0.2076
13048W        W31902   0.244  15.432   3.381 -0.1096 -0.0933  0.1569
13049W        W31903  10.213   4.108  11.995  0.0218 -0.0402  0.0763
13050W        W31904  13.895  15.876   1.108 -0.3708 -0.0596  0.1828
13051W        W31905  17.992   1.455  13.734 -0.0764 -0.2112 -0.2929
13052W        W31906  18.887  17.396  11.955 -0.2062 -0.1915  0.1992
13053W        W31907   2.774   0.590  11.115  0.2348 -0.0291 -0.0009
13054W        W31908  17.323   1.149   4.562 -0.0978 -0.0783  0.3077
13055W        W31909   8.818  11.862   2.665  0.1476 -0.2218 -0.1222
13056W        W31910   6.423   8.227   9.374  0.0758  0.1666  0.1151
13057W        W31911   8.814  12.870   2.713  0.0140  0.0313  0.1736
13058W        W31912   7.163   8.904  10.303  0.1099 -0.2735 -0.0900
13059W        W31913   6.287   0.659  12.276 -0.0615  0.0847  0.0662
13060W        W31914  10.863  14.477   5.176 -0.0686 -0.0006  0.2344
13061W        W31915  11.268   9.882  11.673  0.3307 -0.0806 -0.2840
13062W        W31916  16.932  13.988  13.156 -0.1675 -0.2911 -0.1357
13063W        W31917   0.196   8.639   2.051 -0.0515 -0.0877  0.0171
13064W        W31918  11.215   5.448  12.509  0.2567 -0.0835  0.3239
13065W        W31919   5.089   8.069   3.105 -0.3649  0.0939 -0.2107
13066W        W31920  17.837  16.026   3.206  0.0836  0.2414 -0.0928
13067W        W31921   0.065  13.441  12.052 -0.0029  0.0082 -0.0405
13068W        W31922  11.801  13.079  14.001  0.2630  0.0760  0.1329
13069W        W31923  17.197  10.347  14.523 -0.3480  0.1964 -0.1103
13070W        W31924   8.304  11.770   2.495  0.0145  0.0254 -0.1805
13071W        W31925  16.026   6.305   0.484 -0.3403  0.0512 -0.0463
13072W        W31926   6.853   7.873  14.174  0.0631 -0.0232 -0.0794
13073W        W31927  18.475   9.775  14.731  0.0957  0.3550  0.0624
13074W        W31928   1.702  13.284   2.130 -0.2644  0.0021  0.1380
13075W        W31929  19.012  10.096  14.061  0.0924 -0.2323 -0.0534
13076W        W31930   7.958   6.385  14.262  0.0717 -0.0866 -0.2557
13077W        W31931  18.953   1.206  11.839 -0.1394  0.1848 -0.2084
13078W        W31932   9.194   3.720   0.384  0.1435 -0.3399  0.0900
13079W        W31933  12.378   7.017   4.225 -0.0167 -0.1129 -0.0007
13080W        W31934   0.897  11.770   1.456  0.2128  0.0630  0.1392
13081W        W31935   4.314   9.358   0.080 -0.1459 -0.2354 -0.2722
13082W        W31936   0.734   9.857  12.264  0.1026  0.4714  0.0098
13083W        W31937   5.347   4.614  10.717  0.1814  0.0536 -0.1373
13084W        W31938  13.095  10.553  12.234 -0.2727 -0.3168  0.3195
13085W        W31939  11.920   4.213  10.591 -0.1856  0.1116 -0.0126
13086W        W31940  17.517   7.550   1.623  0.0121  0.2184 -0.0857
13087W        W31941   6.525   1.209  10.720  0.1071  0.3407 -0.0785
13088W        W31942   3.486   0.961   1.949  0.0001 -0.1736  0.2222
13089W        W31943   0.456   3.155   0.763  0.0223  0.2963  0.1003
13090W        W31944  13.507  14.839  12.084 -0.1592 -0.0510 -0.0643
13091W        W31945   5.788  16.859  12.807  0.0207  0.3792  0.2604
13092W        W31946   9.199   1.890   0.106  0.1427 -0.0051  0.4342
13093W        W31947  11.532  16.901   0.753  0.1803  0.3810  0.1303
13094W        W31948  12.923  13.024   2.487  0.2745 -0.1689 -0.2390
13095W        W31949   6.142  11.068  10.636  0.1983 -0.0311 -0.2078
13096W        W31950   1.198   7.414   1.383  0.0583  0.0294  0.2891
13097W        W31951  14.456   4.333   1.657  0.1102  0.0116 -0.1613
13098W        W31952  16.126  14.691  12.966 -0.2007 -0.1777  0.1483
13099W        W31953   0.824  16.132  10.490 -0.1007  0.0198 -0.4142
13100W        W31954  11.946   2.891  10.745 -0.0756  0.2026 -0.1595
13101W        W31955   1.455  10.078   1.863 -0.2133 -0.1967  0.0325
13102W        W31956  12.175   1.828   1.411  0.2485 -0.2593 -0.0372
13103W        W31957   6.593  15.202   3.987  0.0954 -0.1968  0.0369
13104W        W31958   4.987   6.673   3.996  0.0861 -0.0992 -0.0329
13105W        W31959  14.848  18.013   2.536  0.2004  0.0726  0.1681
13106W        W31960  17.511  15.218   1.997 -0.0996 -0.3144  0.1253
13107W        W31961  12.669  17.313   0.534 -0.0281  0.3048 -0.0496
13108W        W31962   3.621   3.930   4.133  0.0314  0.0631  0.4439
13109W        W31963   2.490   2.768  14.511  0.1673 -0.2990  0.0452
13110W        W31964   4.859  11.872  13.810  0.1467  0.0550  0.0557
13111W        W31965   1.495  18.475  11.138 -0.0722 -0.0088 -0.1333
13112W        W31966   9.157   6.074   2.887 -0.1727 -0.0052  0.1524
13113W        W31967   8.129   5.067  11.348 -0.2977 -0.3710 -0.4352
13114W        W31968   3.455  15.726   2.252 -0.2488 -0.1220  0.1484
13115W        W31969  13.796  18.381  14.481  0.1288  0.2208 -0.0941
13116W        W31970   1.196  15.389  11.122 -0.1232 -0.1279 -0.0051
13117W        W31971   8.279  17.301  11.536  0.1077 -0.1293  0.0506
13118W        W31972  17.780  18.524   1.851 -0.3192  0.0371  0.1208
13119W        W31973  12.135   3.727   2.459 -0.1386 -0.0431  0.1892
13120W        W31974   5.260  11.257  11.094  0.0354 -0.1304 -0.1544
13121W        W31975   4.619   4.831  11.576 -0.0800 -0.0356 -0.1208
13122W        W31976   0.403   0.977  14.482 -0.2975  0.3094 -0.1219
13123W        W31977   2.088   0.173  12.209 -0.0784  0.1728  0.0839
13124W        W31978  12.940  15.137  12.838 -0.2673 -0.1957  0.0665
13125W        W31979   4.809   6.715   0.200  0.0945 -0.3376 -0.1965
13126W        W31980  18.723  15.922   1.958  0.1847 -0.1253 -0.0029
13127W        W31981  10.301   9.552  13.669 -0.4317  0.5709  0.1803
13128W        W31982  14.348   0.568   4.001 -0.1600  0.2005 -0.0026
13129W        W31983   8.418  14.156   4.229  0.1721  0.0414  0.2962
13130W        W31984  15.787  15.092   4.154 -0.2933  0.2751 -0.0660
13131W        W31985  14.274  15.792   4.372  0.0511 -0.0099 -0.1202
13132W        W31986  11.421  18.722  10.590 -0.3399  0.0626  0.0971
13133W        W31987  12.869   7.974  14.387 -0.0451 -0.0919 -0.1585
13134W        W31988  14.060  18.349  13.015 -0.2970 -0.0111  0.0657
13135W        W31989  17.933   0.723   3.964  0.0951 -0.1829  0.2184
13136W        W31990   2.009  10.824  12.632  0.2132  0.0739  0.1499
13137W        W31991  17.490  14.645   0.204 -0.2718  0.0947 -0.0514
13138W        W31992   1.893  18.702   0.632  0.2359 -0.1741 -0.0647
13139W        W31993   3.350   2.252  11.391  0.2486 -0.2029 -0.0932
13140W        W31994  17.328   8.701  13.805 -0.2017 -0.4203 -0.1311
13141W        W31995   4.714  17.421  12.447 -0.1408 -0.0883  0.1829
13142W        W31996   0.449   2.423   1.046  0.1774  0.4048 -0.0684
13143W        W31997  14.096  11.301   9.972  0.4410  0.2489 -0.0692
13144W        W31998  13.917   2.692  14.486  0.2366  0.2226 -0.0648
13145W        W31999   7.505  18.422   2.539 -0.2019 -0.1669 -0.2296
13146W        W32000  11.981   3.001  11.749 -0.0854 -0.0563 -0.0204
13147W        W32001   1.570  17.281   2.971  0.1966 -0.0115 -0.1235
13148W        W32002   7.887   9.646  11.559  0.1790  0.3066 -0.1322
13149W        W32003  13.556   6.416  10.849  0.0581 -0.3051  0.0131
13150W        W32004   8.933   7.549   2.968  0.0863  0.0278  0.3170
13151W        W32005  13.936  16.837  11.272  0.0211  0.0211  0.0142
13152W        W32006   9.010  14.385   1.759 -0.2780  0.0174  0.0406
13153W        W32007   6.220   7.681   0.104  0.1060 -0.0391 -0.1716
13154W        W32008  12.040  14.233  13.094 -0.2878 -0.2213 -0.0605
13155W        W32009   2.771   6.383   0.620  0.2891 -0.1364  0.1199
13156W        W32010  19.020  11.854   2.556 -0.1305  0.0632 -0.0787
13157W        W32011   9.194  17.547   0.556 -0.0406 -0.0527  0.2540
13158W        W32012   4.442  18.393  13.909  0.0235 -0.3134 -0.1843
13159W        W32013   2.615  15.780  13.916  0.0435  0.3137  0.1446
13160W        W32014   0.241   4.486   4.071 -0.4918 -0.2792 -0.1757
13161W        W32015  15.350  18.139  12.988  0.2108 -0.2626  0.2859
13162W        W32016  11.624  12.155   0.037 -0.1792  0.0107 -0.0281
13163W        W32017  12.559   7.340   1.942  0.0211  0.1815 -0.2138
13164W        W32018   6.878   7.845  10.895  0.0403  0.2111  0.1756
13165W        W32019  10.732  16.405   4.172  0.2551 -0.1595 -0.1845
13166W        W32020   4.966  10.473  10.544  0.1108  0.0086 -0.3235
13167W        W32021  12.031  11.686  14.620  0.1362  0.1463  0.0845
13168W        W32022  12.586   8.929  13.038 -0.0347 -0.0361 -0.1802
13169W        W32023   7.904  17.343   3.022 -0.0251  0.1957 -0.1281
13170W        W32024   0.465  13.496  12.489  0.2201  0.1533  0.2042
13171W        W32025   8.092  16.632   0.091  0.4129  0.4011  0.0421
13172W        W32026  11.880   0.452   3.624 -0.1222 -0.0400  0.0158
13173W        W32027  19.052   0.077   5.434 -0.0114 -0.0446  0.2564
13174W        W32028  18.738   3.635  11.487 -0.0834 -0.0054 -0.1566
13175W        W32029   1.936  11.666  12.610 -0.1313  0.2250 -0.1312
13176W        W32030  18.972  19.060   1.654  0.0226 -0.1153  0.0077
13177W        W32031   9.927   4.821   1.004  0.0192 -0.0047  0.0279
13178W        W32032   6.899  10.301   1.196 -0.0289  0.1872  0.0014
13179W        W32033  16.673   7.072  13.911  0.2576  0.0483  0.2514
13180W        W32034   0.827  10.877  12.185  0.2390 -0.0756  0.1538
13181W        W32035   3.600   8.042   2.013 -0.0327  0.0495 -0.2579
13182W        W32036   0.778  13.068  12.553  0.0960 -0.0330  0.2409
13183W        W32037   8.089  12.284  12.168 -0.4061 -0.2288  0.0906
13184W        W32038  11.797   5.937   3.411 -0.3922  0.2588 -0.0483
13185W        W32039  12.662  13.332  11.865 -0.2687  0.0289  0.0134
13186W        W32040   8.359  10.538  14.324  0.0050  0.1296  0.3052
13187W        W32041   8.378   2.791   4.494  0.3550 -0.0891 -0.3171
13188W        W32042   4.358   4.705  13.834 -0.1093  0.1412  0.0127
13189W        W32043  17.385   7.287  12.335  0.1640  0.2389 -0.0705
13190W        W32044   3.503   7.592  11.435 -0.0097  0.0145  0.2563
13191W        W32045   5.969  12.090  12.763 -0.0930 -0.1288 -0.0801
13192W        W32046   9.589   7.033   3.421  0.0042 -0.1395  0.0974
13193W        W32047  18.216  18.753   0.981  0.0910  0.1634  0.1393
13194W        W32048  16.905   4.680  12.275 -0.3485  0.1574 -0.0957
13195W        W32049  14.902   4.331   4.231  0.0957 -0.2089  0.1332
13196W        W32050  17.783   6.369   2.978  0.2045  0.1561 -0.2194
13197W        W32051   1.975   0.414   9.517  0.0213  0.0727 -0.2653
13198W        W32052   8.224   2.465  14.329  0.2937 -0.0416  0.2455
13199W        W32053   4.056   9.637  13.417 -0.1564  0.1135  0.2499
13200W        W32054  18.723  14.821   9.832  0.0897  0.0225  0.2003
13201W        W32055  14.836   6.200  12.601  0.0858  0.0377 -0.0799
13202W        W32056  11.207   5.105  11.249  0.2021 -0.1259 -0.4428
13203W        W32057   6.802  14.986  13.593  0.0579 -0.2168 -0.0918
13204W        W32058   3.589  17.298   2.778 -0.3446  0.0287 -0.0064
13205W        W32059  10.345   5.376  14.461  0.0073  0.0198  0.0219
13206W        W32060   4.643  17.083   3.583 -0.0047  0.2802  0.3341
13207W        W32061   0.286   9.138  12.166  0.0079 -0.0763 -0.1777
13208W        W32062   6.179  17.981   4.429  0.0231 -0.1678  0.1994
13209W        W32063   2.457   6.512  11.906 -0.0317 -0.1552 -0.1542
13210W        W32064   9.177   1.580  11.206  0.3066 -0.1054  0.1076
13211W        W32065   2.699  15.767   1.173 -0.1493  0.1308  0.1208
13212W        W32066  15.744  13.496   4.299  0.1016 -0.2962 -0.0462
13213W        W32067   5.584   3.380  14.169 -0.2226  0.5099  0.1853
13214W        W32068  18.930   5.127  13.763  0.1610  0.0256 -0.3659
13215W        W32069   9.973   8.834   1.966  0.0004 -0.0412  0.0306
13216W        W32070  17.800   0.378   9.612  0.0640  0.1968  0.2370
13217W        W32071   2.866  10.750   4.322  0.2170 -0.1503 -0.0774
13218W        W32072  15.711  12.346   0.343 -0.2271 -0.0572 -0.0472
13219W        W32073  12.671  15.223  11.657 -0.1822 -0.0427  0.5894
13220W        W32074  12.853   6.840   3.660 -0.1016 -0.3160  0.0779
13221W        W32075   2.607  11.182   3.396  0.1159  0.3470  0.2383
13222W        W32076  13.379   4.848  14.262 -0.2589 -0.0188 -0.1031
13223W        W32077   9.010   4.192   0.539  0.0701 -0.0300 -0.2714
13224W        W32078  19.067  12.361  12.419 -0.0009 -0.3508  0.1766
13225W        W32079   7.276   1.403  14.528 -0.0277  0.0010 -0.2622
13226W        W32080  18.807  13.938   9.670  0.2164 -0.5929 -0.2295
13227W        W32081   3.613  14.797  13.870  0.2690 -0.2182 -0.1917
13228W        W32082  10.169  17.268  13.431 -0.2590  0.1218  0.2880
13229W        W32083  12.796   5.669   1.415 -0.2012 -0.1313  0.1301
13230W        W32084   1.949  16.370   2.782 -0.1002 -0.3784  0.0227
13231W        W32085   8.570   0.018   0.221 -0.4226 -0.0617 -0.0898
13232W        W32086  14.251   1.901  12.154  0.0434 -0.0595 -0.1148
13233W        W32087  18.018   4.845   3.563  0.3311  0.0220  0.1497
13234W        W32088   6.407  17.300   2.922  0.0154 -0.0406 -0.0085
13235W        W32089  15.876  16.865  12.161 -0.0008 -0.0568 -0.0662
13236W        W32090   1.342   7.712  14.373  0.1102 -0.1028  0.3749
13237W        W32091   5.773   0.495  14.474 -0.3370  0.0009  0.0501
13238W        W32092  18.310  19.028   3.002  0.4608 -0.1693  0.0329
13239W        W32093   0.863  13.232   0.464 -0.1593 -0.0042  0.0569
13240W        W32094  17.971  12.690  14.335 -0.1012  0.6179 -0.0230
13241W        W32095   0.643  12.546  12.258  0.0095 -0.0399 -0.2273
13242W        W32096  16.468  17.761   3.078 -0.0196  0.0844 -0.0391
13243W        W32097  16.550   2.652  13.972 -0.2516 -0.2959 -0.2449
13244W        W32098  12.115  17.076   2.694  0.0139  0.0663 -0.0581
13245W        W32099   4.226  16.785   2.676  0.1883 -0.2359  0.0826
13246W        W32100   2.624  17.348  13.065 -0.0332  0.3414  0.0257
13247W        W32101   8.497   7.945   2.047 -0.1853 -0.0952 -0.2792
13248W        W32102  12.225   5.013   5.138  0.1524 -0.0294  0.0488
13249W        W32103  16.671   7.387  12.820 -0.0671 -0.3887  0.0767
13250W        W32104   5.102  17.144   0.192 -0.0155  0.0443 -0.1109
13251W        W32105   2.376   3.759  11.112 -0.1873 -0.1864  0.5380
13252W        W32106  14.777   0.229   1.286 -0.0601  0.0861  0.1477
13253W        W32107   4.792   8.234   9.338  0.1516 -0.3747 -0.3463
13254W        W32108   3.728   8.426   3.885 -0.2161  0.0295  0.1124
13255W        W32109   6.964   0.440  14.328  0.5833  0.1840  0.3061
13256W        W32110  15.078  18.040  12.181 -0.1727 -0.2302  0.0851
13257W        W32111   1.134   2.953   3.483 -0.2757 -0.4697  0.2265
13258W        W32112   1.219   2.094   1.589 -0.0703  0.0629  0.1123
13259W        W32113  14.847  18.832  12.655  0.0963  0.1392 -0.0303
13260W        W32114   7.526   3.242   1.815 -0.0429  0.3749 -0.0617
13261W        W32115   9.111  12.544  12.767  0.3019  0.0839  0.0723
13262W        W32116  12.134  18.433  13.444  0.1926  0.0553 -0.2685
13263W        W32117  13.509  11.767  14.296  0.1288  0.0585 -0.1074
13264W        W32118   1.381   6.399   3.165  0.1125 -0.0748  0.2264
13265W        W32119   2.392   5.323   5.094  0.0012 -0.2057 -0.2059
13266W        W32120  13.380   8.030   3.064 -0.2713  0.0607  0.1902
13267W        W32121   0.628   1.643   2.905 -0.0221  0.4250  0.0206
13268W        W32122   8.448   7.427  12.032  0.0522 -0.3664 -0.2354
13269W        W32123  14.181  14.693  12.716  0.2671 -0.0420  0.3443
13270W        W32124  14.287  14.155  12.050  0.3322 -0.3075 -0.1689
13271W        W32125   4.304  19.127   2.443  0.0779  0.2330 -0.1495
13272W        W32126  17.205   7.486   0.251 -0.1422 -0.0666  0.1195
13273W        W32127   8.985  15.089   0.555  0.2870 -0.3081 -0.1461
13274W        W32128  17.442   4.739  14.493 -0.0049 -0.0993  0.0802
13275W        W32129  17.017   3.528  11.902 -0.0944  0.0329 -0.0187
13276W        W32130   4.846   2.212  11.949 -0.0191  0.1914  0.1567
13277W        W32131  11.227  14.849   2.840 -0.0524  0.0647 -0.1320
13278W        W32132  18.432   8.917   2.624  0.1155  0.1109  0.1747
13279W        W32133   8.978  10.907  12.589 -0.0594 -0.1619  0.0326
13280W        W32134   9.156   4.123  11.892 -0.2720 -0.1457 -0.4563
13281W        W32135  16.926  16.327  11.241 -0.2091  0.2452 -0.1591
13282W        W32136   8.835   5.023   0.265  0.0722 -0.2697  0.4054
13283W        W32137  13.392  14.574   0.725 -0.0226  0.3864  0.3651
13284W        W32138  16.288  12.832   0.620  0.0830 -0.0932  0.0879
13285W        W32139   6.532   0.790  13.345  0.2254 -0.2847 -0.1514
13286W        W32140   6.226   1.897  14.621 -0.0092 -0.3043 -0.0575
13287W        W32141   2.553  16.497  12.367  0.3198  0.3027  0.1754
13288W        W32142  16.421   4.638  12.667 -0.2091 -0.1715 -0.2913
13289W        W32143   7.549   8.436   1.697 -0.1213 -0.0717  0.1432
13290W        W32144  16.864  12.080   2.724 -0.2832  0.1363 -0.0784
13291W        W32145   3.371   3.725  13.236  0.3992  0.0199 -0.0776
13292W        W32146   0.931  10.962   1.945  0.2020 -0.0960 -0.0708
13293W        W32147  14.474  15.127  14.217  0.0599  0.0854 -0.0338
13294W        W32148   2.655   8.281   1.622 -0.0791 -0.0741  0.0161
13295W        W32149   1.345   8.860  13.240 -0.2557  0.3139 -0.1685
13296W        W32150   7.020   0.094  11.825  0.4673  0.0534  0.2651
13297W        W32151   3.404   6.430   2.262  0.1920  0.0894  0.2374
13298W        W32152  17.604   8.243   0.459  0.0895  0.0455 -0.0052
13299W        W32153  13.441   3.458   2.662 -0.1700  0.0673 -0.0152
13300W        W32154   1.910   4.536   0.588  0.2852 -0.0842  0.0664
13301W        W32155  16.210  18.210  13.425  0.1691  0.1203  0.0015
13302W        W32156   5.446  17.086   1.399  0.0705  0.2674 -0.1761
13303W        W32157  15.255   3.616   0.815  0.5359  0.1508  0.3172
13304W        W32158  18.814   1.659  11.456 -0.1677 -0.2468  0.3788
13305W        W32159  18.405  12.094   1.485 -0.0079  0.3311 -0.0598
13306W        W32160  17.760  15.812  12.773  0.2526  0.2503 -0.0514
13307W        W32161   6.196   9.404   3.610  0.3001  0.2667  0.0024
13308W        W32162  12.250   7.541  11.796  0.1086 -0.1632 -0.0860
13309W        W32163  16.454   3.313   1.847  0.0097 -0.0957 -0.1413
13310W        W32164   3.866   1.147   4.086  0.0961 -0.2183  0.1443
13311W        W32165  16.371   0.835   3.351  0.1505 -0.2177  0.2349
13312W        W32166   4.446  19.202  13.290  0.1074 -0.1975 -0.0080
13313W        W32167  19.101   7.139  11.070  0.2292 -0.1582 -0.2227
13314W        W32168   8.496   8.439   2.770 -0.0313  0.1355 -0.0850
13315W        W32169  18.739   5.577  14.616 -0.1262 -0.2716 -0.2581
13316W        W32170   0.266   7.663  14.003 -0.0531 -0.3782 -0.0128
13317W        W32171  17.295  11.845   0.772  0.1982 -0.0425 -0.1196
13318W        W32172   0.666   4.589   0.844 -0.2091 -0.1718  0.1142
13319W        W32173   8.831  16.380  13.191 -0.2665  0.2493  0.0132
13320W        W32174  18.087  15.492   0.029  0.2418 -0.2174 -0.0456
13321W        W32175   8.676   5.472  12.175 -0.1072 -0.2208 -0.0263
13322W        W32176  10.865  12.824  12.599 -0.0279 -0.2289  0.1528
13323W        W32177   5.144   2.919   0.698  0.1278  0.1813  0.2448
13324W        W32178  16.849  17.304   1.066 -0.0233 -0.3198  0.0609
13325W        W32179  14.284  11.201  14.485 -0.1774 -0.1592 -0.1664
13326W        W32180   9.791   8.866   2.798 -0.3067 -0.0934 -0.0056
13327W        W32181   0.106   1.623   3.614 -0.2399 -0.1294 -0.0630
13328W        W32182  12.436  11.153  13.958 -0.0519 -0.2719  0.2903
13329W        W32183   9.078   0.870   2.329 -0.2813  0.2169 -0.0617
13330W        W32184  13.404  14.786   1.734 -0.3274  0.2314 -0.1182
13331W        W32185   3.430   3.472   0.497 -0.0480  0.0494 -0.2495
13332W        W32186   8.500   4.921  13.123 -0.1300  0.1494  0.0801
13333W        W32187  14.573  10.979   4.072  0.0071  0.0763 -0.0937
13334W        W32188   5.578  16.232   4.170  0.3139  0.0200  0.0485
13335W        W32189   0.846   6.615   0.292 -0.0120  0.1184  0.0789
13336W        W32190   1.849   7.648   1.200  0.1371  0.0723  0.1345
13337W        W32191  18.001  11.799   2.787 -0.2788 -0.2909 -0.3589
13338W        W32192   5.440  14.496  13.649  0.0834  0.1743 -0.2898
13339W        W32193   6.341  15.067   4.690 -0.1291 -0.2105  0.2839
13340W        W32194   2.574   7.995  13.265 -0.4162 -0.1933  0.2468
13341W        W32195  10.361  14.590   0.250  0.0643  0.0502  0.0639
13342W        W32196   2.523   7.824   0.177 -0.2507  0.1170 -0.1199
13343W        W32197  10.978   3.340  12.387  0.2136  0.1122 -0.2408
13344W        W32198   3.481   6.686  11.745 -0.2087  0.0381  0.2250
13345W        W32199  11.658   3.891   3.850  0.0703  0.3602 -0.3031
13346W        W32200  16.939   3.890   2.301  0.2508  0.0863 -0.1162
13347W        W32201  18.531   1.114   0.078 -0.1389 -0.0959 -0.2781
13348W        W32202   2.121   8.493   2.288 -0.2289  0.2575 -0.2785
13349W        W32203  15.057   6.745   3.801 -0.1550 -0.1052  0.1057
13350W        W32204  12.462   9.830   1.944  0.0677 -0.2206  0.1913
13351W        W32205   6.512  10.168  12.654 -0.4350 -0.3595 -0.0244
13352W        W32206  18.848   8.812   0.707 -0.0470  0.0137 -0.1886
13353W        W32207   9.732  15.561  13.130 -0.2619  0.2173 -0.0894
13354W        W32208  12.534  13.357  10.975 -0.2024 -0.1544  0.1043
13355W        W32209   4.738  18.163   1.091  0.1389  0.0776 -0.0730
13356W        W32210  12.798  17.001   4.168 -0.5321  0.2388 -0.1334
13357W        W32211   6.308  14.818  12.720 -0.0411  0.0726 -0.3221
13358W        W32212  11.657   8.398  11.532  0.2498  0.0395 -0.0658
13359W        W32213   7.233  13.748   1.930  0.1893  0.0520  0.1164
13360W        W32214   7.288  14.320   2.555  0.2548 -0.2799 -0.1606
13361W        W32215   7.610  18.138   3.526  0.3361  0.2077  0.1118
13362W        W32216   0.188   9.042   3.445 -0.0100  0.1686 -0.1012
13363W        W32217  18.215   2.892   1.195  0.1634  0.1457 -0.2640
13364W        W32218   5.077   7.114   0.383  0.2987  0.2265 -0.1061
13365W        W32219   0.589  13.558   2.654 -0.2475  0.3548 -0.2454
13366W        W32220   5.018   7.719  11.230 -0.0969  0.0137  0.2761
13367W        W32221   8.138  15.224  12.611 -0.3928  0.1990  0.1688
13368W        W32222  12.774  16.510  13.297 -0.1349  0.1341 -0.1442
13369W        W32223  11.571   5.073   3.532 -0.1661  0.0552  0.2644
13370W        W32224   4.493   9.703   9.664  0.3668  0.0979  0.2755
13371W        W32225  12.333   9.391  14.537  0.0107 -0.1278 -0.0342
13372W        W32226  15.699   3.022   2.416 -0.1009 -0.3268  0.1610
13373W        W32227   4.461   9.637  13.129 -0.0286  0.0640  0.0161
13374W        W32228   6.521   0.512   4.257  0.2149  0.0331  0.0871
13375W        W32229  12.640   9.756  12.463 -0.0287 -0.3082  0.0665
13376W        W32230   9.744   3.971   0.296  0.4591 -0.2586  0.1839
13377W        W32231   6.703   6.015   3.153  0.2235 -0.0627 -0.0206
13378W        W32232  17.000   4.059   5.002 -0.0447  0.3563  0.3407
13379W        W32233  16.236   7.639  14.643 -0.2015 -0.1705  0.1191
13380W        W32234   9.276  12.818  10.403 -0.0408 -0.0614 -0.0897
13381W        W32235   8.639   7.387  12.522 -0.0387  0.2812  0.1577
13382W        W32236   2.701   5.240  11.086 -0.3940 -0.1322 -0.1914
13383W        W32237  11.247   1.183  10.234  0.2213  0.1067  0.1841
13384W        W32238   7.225  16.381   4.090  0.1257 -0.0079 -0.1715
13385W        W32239   1.718  11.531   5.719  0.0554 -0.2040 -0.3201
13386W        W32240   3.926   3.947   0.821  0.1166  0.0982 -0.2404
13387W        W32241  19.133  13.875  11.279 -0.0397  0.2751  0.0047
13388W        W32242  18.068  13.570  10.784 -0.0255  0.2933  0.0689
13389W        W32243  12.305  12.709   2.849 -0.0997  0.0678 -0.0953
13390W        W32244   4.318   7.821   2.749 -0.0142 -0.1076 -0.0444
13391W        W32245  11.870  12.138  13.551 -0.0691 -0.0214  0.3121
13392W        W32246   8.920   3.155   1.625 -0.2459 -0.0570  0.1588
13393W        W32247   7.814   2.456   2.594 -0.2451  0.3724 -0.1767
13394W        W32248  12.434   2.669   3.021 -0.0529 -0.2730 -0.1940
13395W        W32249   2.808   7.975   1.978 -0.1221 -0.1770  0.1015
13396W        W32250  18.057   7.477  13.388  0.0673 -0.3406  0.0199
13397W        W32251   5.125   0.185  10.737 -0.0272 -0.2349 -0.0325
13398W        W32252   9.499   4.500  11.784 -0.2872 -0.0144 -0.2141
13399W        W32253  18.833   7.284  10.642 -0.2331 -0.0720  0.0959
13400W        W32254   6.191  15.547  13.734  0.0432 -0.1045 -0.1316
13401W        W32255  17.892   9.281  13.394  0.2012 -0.1775  0.0247
13402W        W32256  17.040  13.389   4.935 -0.1778 -0.2016 -0.2304
13403W        W32257  10.316  10.525   3.309 -0.3050  0.0404  0.0156
13404W        W32258  14.775  10.920  13.306 -0.0840 -0.3287 -0.3096
13405W        W32259  10.139  14.962  14.723  0.1739 -0.1721  0.0093
13406W        W32260  17.208  10.756  13.067 -0.0129  0.2651  0.0055
13407W        W32261   1.224  10.994   3.583  0.1277  0.0064  0.1862
13408W        W32262  16.112   5.751   3.857 -0.0722  0.2964 -0.1847
13409W        W32263   2.618   9.219   0.216 -0.0927  0.1908  0.0993
13410W        W32264  14.066   2.825  13.646  0.0840 -0.0769  0.0234
13411W        W32265  16.075   2.508   4.003 -0.1490 -0.2186  0.0009
13412W        W32266   4.264  10.880   3.958 -0.0135  0.2686 -0.0719
13413W        W32267  15.200  14.231  12.289  0.0395 -0.2470 -0.0320
13414W        W32268  17.685  10.187  13.757 -0.1259  0.0258  0.2474
13415W        W32269   2.528  13.884   3.772 -0.4674 -0.0501  0.0619
13416W        W32270   5.346   6.411   0.197  0.0402 -0.0476  0.0825
13417W        W32271  15.973   4.246  10.167  0.1928 -0.0765 -0.0955
13418W        W32272  15.650   5.747  11.952  0.1583 -0.0608  0.2359
13419W        W32273   4.474   1.864   2.563  0.0066 -0.2786  0.1412
13420W        W32274   2.165   9.928   0.765 -0.0198 -0.1234 -0.1257
13421W        W32275   9.977   0.775   1.777 -0.0952  0.0074  0.2350
13422W        W32276   2.076  17.337   3.811  0.4818 -0.2504 -0.0274
13423W        W32277   9.540  14.207   0.363 -0.2679 -0.3493  0.3669
13424W        W32278  14.343   9.606   0.795  0.0202  0.1018 -0.0409
13425W        W32279  11.775   2.942  11.284  0.0303 -0.1876  0.0661
13426W        W32280  10.529  15.934   2.396  0.1333  0.0994  0.1518
13427W        W32281   1.617  17.092   0.163 -0.0941  0.3338  0.1575
13428W        W32282  10.976   1.684   2.834  0.1157  0.0302  0.0749
13429W        W32283  17.053  12.504   3.398 -0.2077 -0.2387  0.3989
13430W        W32284  10.938   7.396   1.012  0.0406 -0.0590 -0.1687
13431W        W32285  18.169  10.848   4.233 -0.0214 -0.6310 -0.1215
13432W        W32286   9.829  14.281   3.007 -0.1589 -0.1213  0.0596
13433W        W32287  18.837   3.863   1.927  0.0736  0.0982  0.0149
13434W        W32288  14.239  13.792   1.899 -0.4177  0.4971  0.0183
13435W        W32289  16.201   7.245   0.216  0.0981  0.2074 -0.0223
13436W        W32290  13.050  12.280   0.282 -0.0229 -0.1929  0.0374
13437W        W32291   3.823  11.250  13.968  0.0860 -0.0835 -0.2633
13438W        W32292  15.123   1.646  12.665 -0.2949  0.0913  0.1352
13439W        W32293  14.851  11.038   0.400 -0.0852  0.0398 -0.1103
13440W        W32294   3.081  15.469  14.560  0.0797  0.1017  0.0951
13441W        W32295   5.427   5.095  10.499 -0.1125 -0.1146  0.1325
13442W        W32296  11.744  14.690  10.367 -0.1794  0.0219 -0.2691
13443W        W32297   0.646   0.663  13.947 -0.5813 -0.0815  0.1790
13444W        W32298  11.045   6.385  10.975  0.1660 -0.3512 -0.1306
13445W        W32299   8.590  18.852  14.035  0.3632 -0.0045  0.3216
13446W        W32300   4.942  11.770   0.435  0.1966 -0.0216 -0.0831
13447W        W32301  11.635  11.056  11.214  0.2285 -0.3613  0.0020
13448W        W32302  12.651  14.481   3.522  0.1142 -0.0531  0.3417
13449W        W32303   6.099   2.894   0.549 -0.0625 -0.2665 -0.1602
13450W        W32304  16.702   5.700   2.640  0.1290 -0.3262 -0.0508
13451W        W32305  18.460   0.722   3.946 -0.0745  0.0470 -0.1783
13452W        W32306   9.572   3.726   9.929 -0.3830  0.1736 -0.0662
13453W        W32307   9.752   7.459   2.139  0.2397 -0.0687  0.0061
13454W        W32308   5.821  11.064   2.637  0.0701 -0.1009 -0.1639
13455W        W32309   0.084  10.975  12.133 -0.0498  0.2018  0.3285
13456W        W32310  13.629  10.602  12.181  0.1138 -0.0663  0.0343
13457W        W32311  17.154   9.867   3.118 -0.2565  0.2311  0.0983
13458W        W32312  12.298  10.008  13.092 -0.2593 -0.1246 -0.0874
13459W        W32313   7.521   4.100   2.264 -0.3301  0.0362  0.0795
13460W        W32314  12.367   3.937   1.497  0.1628 -0.1030  0.2755
13461W        W32315   6.296   3.860  11.410 -0.0777 -0.2252 -0.1066
13462W        W32316   9.845   9.996   2.555  0.0800 -0.1570 -0.1193
13463W        W32317   0.336   1.481  14.440 -0.0503 -0.1670 -0.1177
13464W        W32318   9.661   1.119   3.059 -0.0920 -0.6198  0.0339
13465W        W32319  10.729  13.153   1.498  0.5580 -0.1584 -0.1379
13466W        W32320   6.435  13.204  10.857 -0.0279 -0.0363 -0.0048
13467W        W32321  11.494  11.857  14.381 -0.0050  0.1405  0.0980
13468W        W32322  16.920  16.145   1.076 -0.3652 -0.1615  0.2443
13469W        W32323   0.833   9.863  11.126 -0.2906  0.2281  0.2067
13470W        W32324   0.373  11.387   4.352 -0.1204  0.0748 -0.0963
13471W        W32325  14.268   8.069  13.844 -0.2024 -0.0301 -0.0008
13472W        W32326  11.662   8.092   3.990 -0.0152 -0.0578  0.2540
13473W        W32327  15.068  11.307   1.216  0.0152  0.0367  0.2002
13474W        W32328   3.829   1.352  13.517 -0.1195  0.0225  0.1024
13475W        W32329   3.303  13.803  11.529  0.0197  0.2564 -0.1433
13476W        W32330   0.571   6.574   4.228 -0.1760 -0.0669 -0.0099
13477W        W32331   9.721   7.033   2.922 -0.1264 -0.1588 -0.0295
13478W        W32332   3.004   8.191  12.090  0.0661  0.0973 -0.1369
13479W        W32333   8.324  18.527  11.602  0.1492  0.1230  0.2141
13480W        W32334   3.763   4.776   0.440  0.2399 -0.1989 -0.0642
13481W        W32335  19.141   4.593   2.595  0.0954  0.1155  0.0810
13482W        W32336  13.059   6.230  11.509  0.0469 -0.1594 -0.3040
13483W        W32337   4.619  18.522   1.444 -0.0232  0.2415 -0.1803
13484W        W32338  13.379   9.125   0.547  0.1610  0.3155  0.3807
13485W        W32339   6.307   3.098  12.093  0.5744 -0.0842  0.1309
13486W        W32340   3.582   9.408  13.265  0.1913 -0.0703  0.3178
13487W        W32341  18.291   0.004  14.484 -0.1172 -0.1409 -0.1699
13488W        W32342   5.755   0.458   4.049 -0.2997 -0.1811 -0.3315
13489W        W32343   7.120  10.126  11.349 -0.3049 -0.0252 -0.0336
13490W        W32344  12.607   8.622  12.226 -0.4965 -0.2939  0.0526
13491W        W32345  12.531   2.369   2.629  0.0598 -0.1615  0.1384
13492W        W32346   8.721   1.256   2.983 -0.2342 -0.1745 -0.0678
13493W        W32347  10.081  16.942   3.463  0.1185  0.0430 -0.0511
13494W        W32348   5.020   4.797   2.277  0.0459  0.1126  0.2532
13495W        W32349  13.140   3.546  10.612  0.1902 -0.3124  0.2568
13496W        W32350  12.303   2.428   3.863 -0.0569 -0.3329 -0.1833
13497W        W32351  11.067   4.544   3.989 -0.2271  0.0387 -0.0720
13498W        W32352   8.032  13.916   1.756 -0.4234 -0.0096 -0.2305
13499W        W32353  11.714   2.653  14.452  0.4154  0.1435 -0.1056
13500W        W32354  18.607   2.065  14.321 -0.2490 -0.2054  0.1523
13501W        W32355  17.793   6.204   2.441  0.2690 -0.2404  0.0510
13502W        W32356   2.113  13.979   1.665  0.1229 -0.0581  0.0231
13503W        W32357   3.094  13.758   3.656  0.2381  0.0881  0.0067
13504W        W32358   7.712   4.813   1.678 -0.2350 -0.0827  0.2474
13505W        W32359  10.766  12.500   3.761  0.1916 -0.1862 -0.3455
13506W        W32360   8.367  19.055   4.114  0.0646 -0.0881  0.0269
13507W        W32361   1.981   5.620   0.403 -0.3107  0.3481 -0.0412
13508W        W32362  10.999  14.762   1.272 -0.0002  0.1244  0.1237
13509W        W32363   2.699   8.962  13.435  0.0474  0.1144 -0.1666
13510W        W32364  17.510   8.606  14.705 -0.0902 -0.0291  0.1060
13511W        W32365   2.553  12.587   3.991 -0.0045 -0.2911 -0.1861
13512W        W32366   0.447   9.878   0.081  0.3523 -0.2809 -0.0217
13513W        W32367  10.486   5.672  11.679 -0.1677  0.0518  0.0959
13514W        W32368   3.172  11.697   1.408  0.0608  0.0565  0.1886
13515W        W32369   1.516  13.312  14.585  0.1387  0.1324  0.4346
13516W        W32370   3.187   5.899  11.603  0.1006 -0.0674  0.3334
13517W        W32371  17.447  11.596   9.778  0.1343 -0.1391  0.2803
13518W        W32372   0.111  14.050   2.603 -0.0026 -0.1010  0.0936
13519W        W32373  12.536  12.197  10.901 -0.0270  0.1318 -0.1439
13520W        W32374  12.593  10.834   2.806  0.0067  0.2468  0.2558
13521W        W32375  10.969  13.813  12.351 -0.3700 -0.0137 -0.2242
13522W        W32376  17.845  17.896  14.455 -0.1507  0.2095  0.0007
13523W        W32377   4.723   8.804  11.219 -0.1341  0.1673  0.0239
13524W        W32378   9.640  15.465  12.371  0.3106  0.1834 -0.1595
13525W        W32379   4.695  10.026  14.029 -0.1320  0.0942 -0.2352
13526W        W32380   5.569   8.466   3.800 -0.0625  0.1510 -0.3102
13527W        W32381   2.859   2.778   4.185  0.1633  0.0890  0.1540
13528W        W32382  17.924   5.461   1.302 -0.3581 -0.0956  0.2465
13529W        W32383   1.600   8.438   2.607  0.3463  0.0279  0.2378
13530W        W32384   9.790   3.821  10.484  0.0884  0.0616 -0.0234
13531W        W32385   8.337   8.767   3.131  0.0175 -0.2065  0.2233
13532W        W32386   0.108   9.906   0.534  0.0133  0.4351  0.0769
13533W        W32387   4.837   6.436   0.811 -0.1098 -0.2655 -0.0892
13534W        W32388   5.544  18.872  11.878  0.0186  0.1450 -0.0940
13535W        W32389  13.761   4.117   0.152 -0.1097 -0.4072  0.1845
13536W        W32390  13.827  14.961   2.901 -0.1504 -0.0904 -0.2516
13537W        W32391   9.279  15.422   0.268 -0.0554  0.0261  0.2090
13538W        W32392  11.619  10.597  12.117 -0.2333  0.0491  0.2552
13539W        W32393   3.471  15.276  13.786 -0.1514 -0.1653  0.0706
13540W        W32394   5.621   9.995   3.800 -0.1700 -0.1707  0.2586
13541W        W32395   2.041  14.622   3.241 -0.0874  0.0710 -0.3983
13542W        W32396  11.403  15.586   1.032 -0.0815 -0.0810 -0.1015
13543W        W32397   4.781  11.387   0.727  0.3871  0.0337 -0.0617
13544W        W32398   6.992  18.877  10.932  0.0928 -0.0427 -0.0676
13545W        W32399   6.276   6.344   2.232  0.1690 -0.0445 -0.0204
13546W        W32400   5.115   1.483  13.061 -0.2431 -0.2161  0.1006
13547W        W32401  13.737  10.529  13.058  0.3079  0.1072 -0.2176
13548W        W32402   1.649  16.653  10.694 -0.3233 -0.2203 -0.0953
13549W        W32403   1.793   9.817   3.938  0.2570  0.0857  0.1745
13550W        W32404   0.794   5.036   1.812 -0.2816 -0.0567  0.1856
13551W        W32405   4.337  12.673   0.794 -0.2412  0.0138  0.0185
13552W        W32406   0.208   0.659   1.495 -0.0957  0.2597  0.0085
13553W        W32407  16.802  11.651   3.893 -0.4077  0.1229 -0.1210
13554W        W32408   8.757  17.547   1.012 -0.4214 -0.1730 -0.0202
13555W        W32409   3.936   9.744   3.327 -0.0923  0.0063 -0.1175
13556W        W32410   2.731  12.710  13.431 -0.0762  0.2642  0.2093
13557W        W32411  11.710  16.447  11.605 -0.1912 -0.1239 -0.0698
13558W        W32412  11.804  10.172   3.888  0.0775  0.1420 -0.2551
13559W        W32413  13.040   8.663   2.345 -0.3170  0.1206 -0.1510
13560W        W32414   3.201  14.838   0.063  0.2714  0.0621  0.1890
13561W        W32415   3.293  15.348   4.457  0.1103 -0.1087  0.0596
13562W        W32416   8.862   8.416   0.791  0.2237  0.0433  0.0560
13563W        W32417  15.121  10.408   1.776 -0.0007 -0.2195  0.0998
13564W        W32418  16.538   7.633  12.011  0.0168  0.2622 -0.0216
13565W        W32419   3.305   2.728  12.691  0.1298  0.3871 -0.4224
13566W        W32420   8.251   8.238  11.476  0.0625  0.0395 -0.0794
13567W        W32421  12.081   5.198  12.666 -0.0951 -0.2144  0.0147
13568W        W32422  16.991  14.225   9.733 -0.0382 -0.1886  0.2649
13569W        W32423   6.614  15.878  10.952 -0.2491  0.4387  0.3461
13570W        W32424  10.301  10.096  13.581 -0.0783 -0.3487  0.1672
13571W        W32425  13.140   9.843  11.820 -0.1941 -0.0500 -0.1351
13572W        W32426  13.617   5.876   1.579  0.0034 -0.1023  0.2563
13573W        W32427   2.790   6.638   3.971  0.1043  0.0687  0.0087
13574W        W32428   5.031  12.722   0.090  0.2535  0.3540 -0.0851
13575W        W32429  18.251   2.988  14.594  0.2795 -0.0351 -0.1021
13576W        W32430   1.307   6.665   0.470 -0.0043 -0.0296 -0.0745
13577W        W32431   8.405  11.712  12.828  0.1604 -0.2786 -0.4345
13578W        W32432   4.070   3.044   2.425  0.2850 -0.0930 -0.1471
13579W        W32433   5.831   0.252  13.602  0.1469 -0.0857 -0.0184
13580W        W32434   9.464   7.048   1.886  0.0708 -0.0121 -0.1026
13581W        W32435   8.334   8.541  12.984  0.1705  0.1044  0.0836
13582W        W32436  14.967  11.077  10.116  0.5427  0.0613  0.1594
13583W        W32437   8.861  12.761  12.214 -0.0916  0.0208 -0.1128
13584W        W32438   4.776   3.925   2.138 -0.2005  0.0630 -0.0723
13585W        W32439   2.507  17.349  14.615 -0.2191 -0.0015  0.0694
13586W        W32440   0.059   3.077  13.068  0.5126  0.0968 -0.0482
13587W        W32441  14.839  17.032   3.568 -0.2233 -0.3004  0.0057
13588W        W32442  13.484  13.437   2.437  0.1517  0.1932  0.0551
13589W        W32443  13.608  12.476   0.097 -0.0651  0.1941 -0.1110
13590W        W32444   0.883   5.980  10.908  0.1610 -0.1801  0.1442
13591W        W32445  16.873  11.956  12.784 -0.0847 -0.2198  0.1363
13592W        W32446   0.895  13.819  14.516 -0.2390 -0.0158 -0.2106
13593W        W32447   6.434   1.042   2.094  0.0904  0.1333 -0.0212
13594W        W32448   9.777   8.732   0.639  0.1554 -0.1223  0.2954
13595W        W32449   4.219  16.077   2.077  0.1692 -0.0278 -0.2209
13596W        W32450  14.841  15.878  14.304 -0.0215  0.3028  0.1892
13597W        W32451  17.034   1.718  13.505 -0.1747  0.0884 -0.0705
13598W        W32452   0.736   7.490   1.490 -0.0478  0.0999  0.2305
13599W        W32453   6.233   5.332   3.554 -0.0265  0.0118  0.1038
13600W        W32454   9.688  10.909   1.617 -0.0991 -0.2662 -0.5508
13601W        W32455   8.401  18.922   3.629  0.0504 -0.1572  0.3194
13602W        W32456  16.805   0.328  11.624  0.2108  0.2126  0.0064
13603W        W32457  14.932  17.137   2.755 -0.2290  0.0836 -0.2704
13604W        W32458   5.533   3.728   0.978 -0.2196 -0.0041 -0.1405
13605W        W32459  10.650  11.256  14.243 -0.0004  0.1785  0.1476
13606W        W32460  12.333  18.245  12.506 -0.1325  0.1768  0.1526
13607W        W32461  11.348   4.157   1.363  0.1504 -0.0285 -0.0372
13608W        W32462  15.836   5.433   2.241  0.0326  0.0007 -0.2350
13609W        W32463   2.012   6.925  12.493 -0.5511  0.1470 -0.0624
13610W        W32464  13.761   3.111   0.761  0.0620  0.1503  0.2570
13611W        W32465   6.655   4.770   3.114 -0.1201  0.0449  0.5125
13612W        W32466  14.519   9.258  12.440  0.0571 -0.1420  0.0315
13613W        W32467  15.639  13.404  13.046  0.2450 -0.2329  0.1559
13614W        W32468  15.469  10.046  14.170  0.0389 -0.1777 -0.0817
13615W        W32469   0.367   0.811   3.286  0.0539 -0.3319 -0.0273
13616W        W32470  10.413  11.734   3.641 -0.1165 -0.1118  0.1545
13617W        W32471   1.250  17.985  11.191 -0.1434  0.2141  0.0413
13618W        W32472   7.961   8.525  12.171  0.1161 -0.2297  0.0468
13619W        W32473   1.668  11.844  11.603 -0.0659  0.1379  0.0097
13620W        W32474   6.594  10.941   0.498  0.2877 -0.3402  0.1217
13621W        W32475  11.439  15.427  12.483 -0.1014 -0.0095  0.0064
13622W        W32476   0.908   2.062  13.039 -0.1314  0.2169  0.5735
13623W        W32477   5.747   4.883   5.148 -0.0780  0.0274 -0.0632
13624W        W32478   0.632  16.931  10.823  0.2177  0.0564 -0.0447
13625W        W32479  13.654   9.966   2.807  0.1330  0.2776 -0.0560
13626W        W32480   2.913   7.464   0.324 -0.0032 -0.3129 -0.0079
13627W        W32481   6.163   9.447   3.086 -0.4259 -0.1073 -0.0214
13628W        W32482  11.079   9.231   1.847 -0.3516  0.0182 -0.0004
13629W        W32483   7.838   1.574   4.049  0.0838 -0.0207 -0.0388
13630W        W32484  11.715   0.849  10.898 -0.0302  0.0404  0.0089
13631W        W32485   3.218  15.577  12.501  0.5157 -0.4129  0.4352
13632W        W32486   4.568   9.793   1.125 -0.1806 -0.1313  0.2795
13633W        W32487   8.082  13.955  10.699  0.1452 -0.1010 -0.0098
13634W        W32488   6.785   8.345  12.282 -0.0878  0.3583  0.1442
13635W        W32489   9.620  10.837   0.037  0.0369 -0.0252 -0.1635
13636W        W32490   8.301   9.106   0.136  0.0555 -0.3273 -0.0863
13637W        W32491   8.158  15.949  13.553  0.1370  0.1313 -0.2662
13638W        W32492   2.607   2.538  11.714  0.0297  0.2404  0.3234
13639W        W32493  12.784   6.993   1.189  0.0687 -0.1405  0.1052
13640W        W32494  17.241  17.257  14.079  0.3082 -0.1292 -0.1136
13641W        W32495   8.525  15.051   0.341 -0.0547 -0.1575 -0.0663
13642W        W32496   1.491  15.964   1.011  0.1744 -0.1747  0.2118
13643W        W32497   5.566  14.393   1.521 -0.2376  0.2798  0.0108
13644W        W32498  18.350   0.541   3.525  0.1302  0.0654 -0.2128
13645W        W32499   2.139   8.321   4.307 -0.0058 -0.2232 -0.2345
13646W        W32500   2.003   0.972   2.336 -0.1608  0.0262  0.0202
13647W        W32501  10.155  13.721  11.108 -0.0012  0.1023 -0.0748
13648W        W32502   8.296   2.037   1.497  0.1888  0.0124 -0.0241
13649W        W32503  15.663  11.200   3.416 -0.0874 -0.2465  0.1263
13650W        W32504  12.579   1.689  10.811  0.1981 -0.0970  0.0261
13651W        W32505   2.834   1.939   2.619 -0.2038 -0.1158  0.0254
13652W        W32506   5.701   9.996  10.712 -0.3018  0.0252 -0.0609
13653W        W32507   8.889  11.125   4.132 -0.0027 -0.1440  0.1748
13654W        W32508   8.604   2.562  12.474 -0.0066 -0.2046  0.0122
13655W        W32509  11.889   2.724  12.218 -0.1077  0.2174  0.1192
13656W        W32510   2.921  11.716   0.973 -0.1325 -0.5343 -0.0396
13657W        W32511  18.741  10.472  11.109 -0.0609 -0.2297 -0.2513
13658W        W32512   0.483  17.897   3.622  0.0579  0.3275  0.3009
13659W        W32513   8.352   5.577   2.015  0.0224  0.2660  0.1413
13660W        W32514  14.550   5.161  12.744 -0.1055  0.0734 -0.0649
13661W        W32515   4.150   7.763   0.635 -0.0146 -0.0263 -0.0526
13662W        W32516  15.476   0.415  14.010  0.0592 -0.0243  0.0279
13663W        W32517  12.971   8.556   4.931 -0.1474 -0.4883 -0.1064
13664W        W32518  17.975  14.013   1.121  0.1549  0.0729  0.4548
13665W        W32519  16.266   0.730  13.411  0.2523 -0.1585 -0.0688
13666W        W32520   1.766  13.300  14.054 -0.0287 -0.0509  0.1539
13667W        W32521   4.365  16.434   4.629  0.0103 -0.1707 -0.0054
13668W        W32522   0.648   8.802  12.422  0.0256  0.0044 -0.0324
13669W        W32523   4.052   2.379   2.058 -0.2246 -0.1022  0.1411
13670W        W32524   3.721  18.841  11.736 -0.2142  0.1018  0.1182
13671W        W32525  10.201   3.350  11.799 -0.0198 -0.1071 -0.0017
13672W        W32526   5.606   0.019  11.503 -0.0517 -0.2157  0.2547
13673W        W32527  13.256   1.443   0.508  0.3747 -0.0226  0.2506
13674W        W32528  19.020  15.230  13.150  0.0102 -0.0608  0.1349
13675W        W32529  11.793   3.727  12.889 -0.4099 -0.1658  0.2534
13676W        W32530  13.456  18.456   1.390 -0.1106 -0.0738  0.1295
13677W        W32531   3.407   2.460   2.259 -0.2909 -0.3622  0.3424
13678W        W32532  14.176   9.382  13.691  0.0277  0.3001  0.1528
13679W        W32533   6.059   8.535   3.708 -0.0178 -0.1013  0.1984
13680W        W32534   8.311   0.879   0.104 -0.1344 -0.0044  0.0942
13681W        W32535  13.288  15.155   0.097 -0.0163 -0.2578  0.0512
13682W        W32536  10.315   0.567   3.039  0.1525  0.1255 -0.0242
13683W        W32537   9.644   6.344   1.768  0.0030 -0.1586  0.0526
13684W        W32538   6.969   8.906  11.156  0.0332 -0.0087 -0.1007
13685W        W32539   2.521  18.858  10.642 -0.0416  0.2520 -0.0439
13686W        W32540  17.030  11.500   2.871 -0.3123 -0.0609 -0.2557
13687W        W32541  18.856  18.271   2.690  0.4310 -0.0802  0.2822
13688W        W32542  15.252  18.464   0.852  0.1819 -0.2421 -0.1277
13689W        W32543  11.563  12.437  10.910 -0.0843  0.1506 -0.0670
13690W        W32544   6.293   5.538  13.821 -0.1095 -0.3144  0.2973
13691W        W32545  18.147   9.288  12.619 -0.0412 -0.2303 -0.2561
13692W        W32546  18.660  12.285  12.102  0.2533 -0.0352  0.1064
13693W        W32547   0.954   2.801   3.044 -0.3703 -0.0853 -0.1134
13694W        W32548   5.180  17.205   9.617  0.3266 -0.3663  0.1704
13695W        W32549  17.582  12.736  10.359 -0.3556 -0.1884  0.0336
13696W        W32550   0.120  11.105   1.706  0.2587 -0.3559 -0.1599
13697W        W32551   5.279  11.680  11.330 -0.0655 -0.1473 -0.1289
13698W        W32552   9.283  10.805  14.016  0.2571 -0.1295 -0.1035
13699W        W32553  13.715  14.961   2.421 -0.3021 -0.1299 -0.1389
13700W        W32554  15.366  13.640   0.026  0.1691  0.1177 -0.1034
13701W        W32555  15.968  16.809   3.999 -0.0211 -0.3249  0.1807
13702W        W32556   6.720   5.827   0.946  0.2745  0.2802 -0.0316
13703W        W32557   1.623  12.445   4.345 -0.1497 -0.1044 -0.2112
13704W        W32558  18.120   0.536   1.622  0.2551  0.2348 -0.5307
13705W        W32559   8.623  14.637  11.085  0.0617  0.3059 -0.0116
13706W        W32560  12.159   2.792  14.598 -0.2614  0.3015  0.0644
13707W        W32561  17.963   3.258  12.186 -0.1679 -0.0608 -0.3160
13708W        W32562  16.908  16.655   3.317 -0.0762  0.0201  0.2549
13709W        W32563  18.405  12.542   0.349  0.1263  0.0046 -0.1143
13710W        W32564   0.556  17.395   2.837 -0.1730 -0.1163 -0.0174
13711W        W32565   3.544   2.082   2.618 -0.4216 -0.0871  0.2223
13712W        W32566   2.373   0.758  11.766 -0.0176  0.1701 -0.1559
13713W        W32567   9.625   4.289  10.762  0.0141  0.3876 -0.0368
13714W        W32568   1.742   4.580   2.704  0.2539 -0.3107 -0.0360
13715W        W32569   6.627  12.889  12.836  0.1476  0.0294 -0.0659
13716W        W32570   6.709   4.168   0.329  0.2625  0.3692 -0.0451
13717W        W32571   1.590  17.411   0.666 -0.0339 -0.1905  0.0874
13718W        W32572  11.187   3.377  13.894 -0.3447  0.0940  0.1272
13719W        W32573   3.397  15.703  11.142 -0.0894 -0.0036 -0.4649
13720W        W32574  15.762  11.010   0.616  0.0697  0.2831 -0.1407
13721W        W32575  18.523  18.779  11.666 -0.1833  0.2963  0.1289
13722W        W32576  16.192   6.163  11.637 -0.1803 -0.3203  0.1039
13723W        W32577  16.533  14.947  12.273  0.1948 -0.0605  0.1379
13724W        W32578  17.999   7.830   0.897 -0.0029 -0.0716 -0.0709
13725W        W32579  12.823  12.595   2.684 -0.0279  0.0404  0.0085
13726W        W32580   7.643   5.213   2.963 -0.1150  0.3386  0.0290
13727W        W32581   1.144  14.131  12.521 -0.2083  0.0520  0.2249
13728W        W32582  16.530   7.040   1.767  0.0281 -0.1548 -0.0085
13729W        W32583   0.759   7.855   3.759 -0.1438  0.1594 -0.4314
13730W        W32584  15.158   1.798  11.546  0.0674  0.0009 -0.2594
13731W        W32585  10.101   9.574  12.467  0.0802  0.1377  0.2364
13732W        W32586   8.341  12.420  11.200 -0.1323 -0.2473 -0.0789
13733W        W32587   8.202  18.684  13.061 -0.0199 -0.2724 -0.2130
13734W        W32588   7.980   0.685   2.979 -0.2529  0.2122  0.0952
13735W        W32589   5.167   8.665   1.344  0.0090 -0.2190  0.1232
13736W        W32590  13.778   8.796  11.174  0.1409 -0.2901  0.2236
13737W        W32591  12.501   9.553   0.447 -0.1067  0.1001 -0.0372
13738W        W32592  17.997  16.945  14.217 -0.1806  0.1573 -0.2277
13739W        W32593   9.841   5.652   0.578  0.2560  0.0686 -0.1323
13740W        W32594  14.316   2.483  13.026  0.1109  0.3327 -0.1322
13741W        W32595   5.826  12.817   0.561 -0.0236 -0.0511 -0.0551
13742W        W32596  16.356  15.281   0.179 -0.1737 -0.0164  0.0586
13743W        W32597  10.583  11.617   0.395 -0.2503 -0.3020 -0.1441
13744W        W32598   4.864  10.604   2.413  0.1288  0.2395 -0.0695
13745W        W32599   7.442   5.668   3.121  0.4870 -0.0991 -0.1621
13746W        W32600   0.470   0.292  12.000 -0.2118 -0.1093  0.2929
13747W        W32601   2.050   5.825   1.345  0.0026 -0.1759 -0.0665
13748W        W32602  18.735   1.174   3.739  0.0109 -0.1995 -0.0777
13749W        W32603   7.329  18.424   0.333 -0.0255  0.0317 -0.3215
13750W        W32604  16.449  16.349  11.042 -0.0845 -0.0253  0.0713
13751W        W32605  17.339   9.462  12.097  0.0603  0.1431  0.2825
13752W        W32606  13.980  18.524  12.229  0.1576  0.2010  0.2489
13753W        W32607  12.005   4.139   2.997 -0.1401 -0.0032 -0.0734
13754W        W32608  15.820  18.686  10.893 -0.0419  0.1073  0.0683
13755W        W32609   3.205   0.533   0.140  0.0290 -0.1575  0.0252
13756W        W32610  18.291  13.170  14.123  0.0198 -0.0769 -0.1827
13757W        W32611   4.232  14.256   3.178  0.4325  0.3803 -0.0006
13758W        W32612   9.261  16.336  11.268 -0.2334  0.1795 -0.1606
13759W        W32613   0.073  16.666  13.108  0.0151 -0.0144  0.3056
13760W        W32614   3.522  12.892  13.918  0.0477 -0.4031  0.3105
13761W        W32615  14.178  16.482   2.134  0.0023 -0.1771 -0.0951
13762W        W32616   4.906   2.966  13.663  0.2649 -0.2334 -0.3327
13763W        W32617  15.273   4.252   2.170 -0.1703 -0.0518  0.0058
13764W        W32618  13.269   1.368  10.203 -0.0821  0.1395  0.2106
13765W        W32619  11.110   6.714  14.417 -0.3690  0.1114 -0.0458
13766W        W32620   9.791   7.368   1.059 -0.3868  0.1927 -0.0001
13767W        W32621   7.737   5.480   4.002 -0.3090 -0.0715 -0.1477
13768W        W32622   6.256   1.668  10.722  0.1424 -0.0442 -0.3591
13769W        W32623   6.080   8.148  13.521 -0.0438 -0.1369 -0.0565
13770W        W32624   2.971  13.098   0.163 -0.0029 -0.0506  0.0825
13771W        W32625   7.623   9.400  12.556  0.1236  0.0681 -0.1202
13772W        W32626   8.780  10.076  11.180  0.0433 -0.3732  0.1695
13773W        W32627  10.699   4.401  11.740 -0.0580 -0.3125  0.1599
13774W        W32628   2.480  15.055  13.072 -0.1061 -0.1186  0.0486
13775W        W32629  14.880  17.177   4.498 -0.3491  0.1086  0.0509
13776W        W32630   1.386   7.142   3.932 -0.1606  0.1636 -0.0548
13777W        W32631  11.477   5.173   2.315 -0.0378  0.1146 -0.0877
13778W        W32632  18.523  14.210   2.167 -0.0021 -0.0831  0.0598
13779W        W32633   2.839   0.327  13.108 -0.2776  0.0820 -0.2091
13780W        W32634  13.919  10.874   1.658  0.1334  0.2109 -0.5253
13781W        W32635   4.840   4.823   3.153 -0.0055 -0.1946 -0.1121
13782W        W32636  18.003   7.256   0.907  0.1668 -0.0338  0.0016
13783W        W32637  12.534   5.399   3.100 -0.0617  0.1035  0.1432
13784W        W32638  10.787  10.332   0.730 -0.2212  0.0799  0.2795
13785W        W32639  14.538  11.568   2.759 -0.1769 -0.1484  0.0083
13786W        W32640  15.035   0.008   1.824  0.5231  0.1374 -0.0271
13787W        W32641   5.388  13.463   1.711 -0.1807 -0.0948 -0.0354
13788W        W32642   5.678  12.293   3.921 -0.0336 -0.0732 -0.4179
13789W        W32643   2.084  14.067  10.885  0.3164  0.1900 -0.0657
13790W        W32644  18.759  16.613   3.034 -0.3575 -0.1292  0.1532
13791W        W32645   4.313  16.709  11.065  0.3264  0.1721  0.2271
13792W        W32646   7.766  13.616   1.239  0.2038  0.0513  0.0378
13793W        W32647   3.188   0.465  14.382  0.0771 -0.0403  0.2542
13794W        W32648  18.798   2.841   4.105  0.2579  0.0117 -0.0434
13795W        W32649   6.255   7.308   3.949 -0.0764 -0.0542  0.0865
13796W        W32650   6.810  13.801   1.656 -0.4823 -0.1866 -0.2368
13797W        W32651   3.955  10.529   2.120  0.0332  0.0719  0.0284
13798W        W32652  16.779  12.828   1.139  0.0925 -0.1107  0.1712
13799W        W32653  13.533  13.413  12.248  0.3997  0.0564  0.0231
13800W        W32654  18.321   0.705  11.349 -0.2695 -0.1458 -0.0363
13801W        W32655   1.850  11.000  12.189  0.2235 -0.0990 -0.0946
13802W        W32656  12.164  15.588   4.246  0.2605  0.0621 -0.0466
13803W        W32657   1.910   6.774   1.048  0.2095 -0.0153 -0.1706
13804W        W32658  17.211   5.093   3.963  0.0121  0.3563 -0.2560
13805W        W32659   8.186   7.574  13.596 -0.2186  0.2423 -0.1043
13806W        W32660   7.531   6.841  12.605 -0.3940 -0.1027 -0.3334
13807W        W32661  11.865  12.716  11.237  0.0375 -0.4072  0.1889
13808W        W32662   0.366  17.895  10.866  0.1445 -0.2288  0.2017
13809W        W32663   5.876   4.033   9.891 -0.2917 -0.0039 -0.3261
13810W        W32664   8.316  14.875   3.261 -0.2405  0.0440 -0.0146
13811W        W32665  11.219   9.532   4.850  0.1509 -0.0752 -0.0549
13812W        W32666  14.749   0.922   2.325 -0.0274  0.1900 -0.1111
13813W        W32667  13.181  16.223   4.087  0.0509 -0.1106  0.2126
13814W        W32668  10.951   1.089  11.860  0.1785 -0.1220 -0.1974
13815W        W32669  11.183  15.654   1.544 -0.2459 -0.1553 -0.0175
13816W        W32670  13.440  15.963   3.207  0.3381 -0.0430  0.0703
13817W        W32671  17.854   8.573  13.842 -0.2385 -0.3454  0.0408
13818W        W32672  14.052  17.725  14.146 -0.1473 -0.2116 -0.0986
13819W        W32673   0.880  17.185  12.867  0.0117 -0.0146 -0.1294
13820W        W32674   0.922   3.405  11.763  0.1312  0.0904  0.1444
13821W        W32675   5.411  13.919  11.564 -0.2541 -0.0119 -0.0691
13822W        W32676  17.760  13.906   3.942  0.0638 -0.1459 -0.1497
13823W        W32677  13.949   5.527  10.412  0.1488  0.2019 -0.0695
13824W        W32678  17.707  18.160   4.091  0.5278  0.0144 -0.1942
13825W        W32679  11.254  12.418  14.517 -0.0719  0.1455  0.0812
13826W        W32680  13.449  11.567   1.991  0.1471  0.0606  0.2144
13827W        W32681   3.627   2.236   4.230 -0.2029  0.2522 -0.0996
13828W        W32682  18.155  17.602   1.023 -0.2507  0.1275  0.0276
13829W        W32683  16.503  17.084  13.504 -0.1464  0.0814  0.2420
13830W        W32684  10.969   3.985   1.848  0.2433  0.0048 -0.1519
13831W        W32685   2.685   7.236  11.588 -0.1543  0.1259  0.1909
13832W        W32686  11.996   2.365   3.421 -0.1441  0.0508 -0.0794
13833W        W32687  17.875  16.997   3.619  0.2754 -0.4006  0.1708
13834W        W32688   7.979   5.904   0.289 -0.1718  0.0027  0.1504
13835W        W32689   9.264  12.016   2.959 -0.3305 -0.1302 -0.1121
13836W        W32690  17.045  14.397  13.955 -0.0790  0.1046 -0.2015
13837W        W32691  12.965   4.659  10.686  0.2007  0.2119 -0.1409
13838W        W32692  16.671  17.967  13.543  0.1464 -0.2739 -0.1700
13839W        W32693   7.297   0.424   2.557  0.3360  0.0933 -0.0395
13840W        W32694  12.851  17.777  13.180  0.2819 -0.3024 -0.0593
13841W        W32695  10.819  16.023   0.048 -0.1457  0.1091  0.0317
13842W        W32696  16.480   3.722   2.339 -0.3033  0.0507  0.2074
13843W        W32697  12.147   6.198   0.063  0.0627 -0.1088  0.2096
13844W        W32698  16.223   6.281  12.257 -0.1326  0.3054 -0.5615
13845W        W32699   9.381  17.894   3.220  0.2510 -0.1605  0.1649
13846W        W32700  10.394  11.766   9.589 -0.2221 -0.2581  0.0200
13847W        W32701   0.272  12.305   4.023 -0.0075 -0.1561  0.0882
13848W        W32702   9.635  18.547  13.071 -0.0087 -0.1494 -0.1974
13849W        W32703  19.177   1.457   3.074 -0.0717  0.0154  0.1441
13850W        W32704  10.820   5.733   1.850  0.4395  0.0439 -0.1527
13851W        W32705   5.081  15.140  14.717  0.1009  0.0441 -0.0923
13852W        W32706   1.770  10.212   2.458  0.1087 -0.2486 -0.1954
13853W        W32707  18.396  15.853   3.346  0.1921  0.0034 -0.1713
13854W        W32708   4.043   8.615  12.296 -0.2477  0.0297 -0.3941
13855W        W32709  13.989   9.512  11.757 -0.4678  0.0210 -0.0489
13856W        W32710   9.720  16.249   0.397 -0.0447 -0.0896  0.1949
13857W        W32711  12.401  17.244  12.068  0.1585  0.1395  0.0320
13858W        W32712   3.870  12.434   0.842  0.0602 -0.2205 -0.3736
13859W        W32713   7.157  17.452  14.346 -0.3222 -0.1370 -0.0812
13860W        W32714   2.223   8.189  14.304  0.2219  0.0891  0.2780
13861W        W32715  16.217   0.265   1.397  0.0251 -0.2109 -0.0700
13862W        W32716  13.331  13.635   9.434  0.2229 -0.1269 -0.1084
13863W        W32717  11.594  11.094   3.618  0.0306 -0.1296  0.0065
13864W        W32718  15.993   3.970   2.165  0.0277 -0.0531  0.0486
13865W        W32719   3.500  11.652   2.963  0.0558 -0.3564 -0.0328
13866W        W32720  10.327  16.715  10.751 -0.1012 -0.0753  0.0103
13867W        W32721   1.372   8.327   1.454 -0.1001  0.0399  0.0169
13868W        W32722   1.380  12.397  10.647 -0.0073 -0.3351  0.2345
13869W        W32723   7.483  15.116   9.818 -0.2373  0.0388 -0.2466
13870W        W32724   9.756   8.985   3.347  0.3201  0.0436  0.0043
13871W        W32725   7.274  17.757   3.566 -0.1165  0.0964 -0.1313
13872W        W32726   4.466   8.690   5.129 -0.3322 -0.2096 -0.1415
13873W        W32727   6.029  19.153   0.463 -0.0575 -0.2698  0.1646
13874W        W32728  18.655   9.541   1.107 -0.2088  0.3792 -0.0834
13875W        W32729  10.750   1.739   1.940 -0.0432  0.0901  0.0614
13876W        W32730  15.963   3.820   2.774 -0.2116 -0.2604  0.2080
13877W        W32731  16.671   9.237   3.622  0.1653  0.0992  0.1262
13878W        W32732  14.713  11.612  13.143  0.1109  0.2757  0.0121
13879W        W32733  16.228   7.578   3.247 -0.0856 -0.3954  0.1889
13880W        W32734   7.542  10.319   3.260 -0.2618  0.1712 -0.3126
13881W        W32735   3.583  14.539   1.360  0.0040 -0.0580  0.1133
13882W        W32736   9.661   7.887   3.902  0.0402  0.1719 -0.0587
13883W        W32737   5.352  14.782  11.301 -0.1049  0.2061  0.1799
13884W        W32738  13.232  15.680  11.289 -0.0831  0.0218 -0.0065
13885W        W32739  18.661   1.973  12.903 -0.3335 -0.1807  0.2087
13886W        W32740  17.770  14.054  12.144 -0.1801 -0.1507 -0.0925
13887W        W32741   7.179   5.619   3.850 -0.0738  0.0977 -0.3732
13888W        W32742   1.761  12.872  14.463  0.4219  0.0312 -0.0470
13889W        W32743  18.653   5.688  11.070 -0.3141  0.1548 -0.1032
13890W        W32744  18.737  12.850   0.096  0.0172  0.0716  0.2482
13891W        W32745  10.198  16.834  11.399  0.0103  0.1371 -0.3739
13892W        W32746  10.436   9.227   3.076  0.0016 -0.1777  0.1288
13893W        W32747  17.590   2.345  12.960  0.1521  0.4101 -0.0057
13894W        W32748   9.170  18.482   1.971 -0.2384  0.0991  0.3363
13895W        W32749  10.603   9.263   1.737 -0.1033  0.0111 -0.4021
13896W        W32750  14.902   9.775  12.614 -0.3068  0.2818 -0.1842
13897W        W32751   3.172   7.587   2.747 -0.0763  0.1069  0.2922
13898W        W32752   2.108   7.156   1.309  0.4272  0.1217  0.0015
13899W        W32753  18.031   6.274   1.147  0.0087  0.0296  0.0308
13900W        W32754  15.134   6.334   0.675  0.0501  0.0152  0.0996
13901W        W32755   5.939   2.176  13.946 -0.0456 -0.1428 -0.0057
13902W        W32756  16.100   9.014   2.339  0.1879  0.0389 -0.0168
13903W        W32757  16.333  13.763   2.088 -0.1166  0.0946 -0.1192
13904W        W32758   8.480  14.393   3.182 -0.0744  0.0834  0.1823
13905W        W32759  11.498  17.064  14.057 -0.3337  0.0519 -0.1033
13906W        W32760   4.754  13.361  11.948 -0.1101  0.0165  0.1113
13907W        W32761   0.489   0.780   0.562 -0.1350 -0.1704 -0.2018
13908W        W32762   6.984  13.648   4.524  0.1857  0.1611  0.1519
13909W        W32763  14.157   8.799  13.040 -0.1009 -0.3241 -0.1083
13910W        W32764   2.823   5.667   2.721  0.4225 -0.1687 -0.3306
13911W        W32765   3.395  13.963  12.117 -0.1487 -0.2895 -0.3010
13912W        W32766  15.558   8.358   2.893  0.1447  0.3379  0.1112
13913W        W32767   6.779   0.616   2.512  0.2956  0.2057  0.1452
13914W        W32768   4.585   5.036   0.747  0.1336  0.0578  0.1896
13915W        W32769   6.402   5.638   3.043 -0.0642 -0.1108 -0.0048
13916W        W32770   3.252   9.040  10.586 -0.1028  0.1481  0.2814
13917W        W32771  18.888  18.262   1.219  0.0759 -0.3157 -0.3160
13918W        W32772   1.003   1.332  12.470 -0.3030 -0.0323 -0.1249
13919W        W32773   3.164  10.570  13.148 -0.0144  0.4315  0.2224
13920W        W32774   5.148   8.164  12.096 -0.3255  0.2948 -0.0751
13921W        W32775   6.308   2.541  12.844  0.0398 -0.0081  0.0512
13922W        W32776   4.672  12.102   1.449 -0.0948  0.2483 -0.0169
13923W        W32777  13.517  15.960  14.415 -0.1581 -0.1115  0.0142
13924W        W32778   8.566  17.128  11.090  0.0687 -0.2766  0.0230
13925W        W32779   0.384  10.482   3.362  0.0476 -0.1833 -0.3511
13926W        W32780   6.214   9.652  11.112  0.3873 -0.2848 -0.2646
13927W        W32781   9.913   0.646  12.773 -0.1332 -0.1784  0.0713
13928W        W32782  14.815  12.162   4.008 -0.0326  0.1341 -0.0397
13929W        W32783  18.619   1.474  12.832  0.0230  0.2133 -0.0057
13930W        W32784   8.541   3.735   2.138 -0.3501 -0.0798 -0.0248
13931W        W32785  17.726   1.476   2.209 -0.2006  0.1971 -0.0032
13932W        W32786  15.968  16.487   2.896  0.0242 -0.1142  0.0329
13933W        W32787   2.341  12.678   0.963  0.1694  0.3004  0.0666
13934W        W32788  18.661   2.948  12.810  0.0265 -0.0794 -0.0660
13935W        W32789   1.205   5.658  11.820 -0.0885  0.0550 -0.3785
13936W        W32790   9.898  11.779   3.625  0.1783 -0.1990  0.2604
13937W        W32791  18.077  18.932  13.838 -0.1246 -0.0967 -0.0419
13938W        W32792   5.488  17.765  12.536  0.0061 -0.2521  0.2142
13939W        W32793   6.501  17.391   0.178 -0.0408  0.0236  0.1159
13940W        W32794   4.230  13.358  12.117 -0.2319  0.0008 -0.0933
13941W        W32795   8.637  10.599   1.361  0.3421  0.3125  0.2829
13942W        W32796   9.005  13.454  12.773 -0.0521 -0.0045 -0.0711
13943W        W32797  11.846   8.867  12.656 -0.0374  0.1631 -0.0602
13944W        W32798  11.674   1.630   2.146 -0.0133  0.0579  0.1569
13945W        W32799  13.473  18.790   0.093 -0.1530 -0.1810  0.2700
13946W        W32800   7.411  18.011  12.389  0.2388 -0.1230 -0.1512
13947W        W32801  11.653   0.841  13.163 -0.0865  0.1384  0.2776
13948W        W32802  17.688   6.611  10.291  0.0637  0.1679 -0.2084
13949W        W32803   0.288  16.280   2.962  0.0004  0.0694  0.1842
13950W        W32804  14.812  11.435   0.839 -0.1428  0.0696  0.0195
13951W        W32805  13.186  15.666   1.982 -0.1965 -0.0309 -0.0110
13952W        W32806   1.363   1.698   0.782 -0.0930  0.1361 -0.0131
13953W        W32807  17.047   4.103  11.473  0.2890  0.0692 -0.1903
13954W        W32808   9.536   4.526   2.064  0.2037 -0.2337  0.0147
13955W        W32809   9.735   8.296  10.542  0.0123 -0.0851 -0.0144
13956W        W32810   4.058   6.713  12.951  0.1233 -0.0385 -0.3451
13957W        W32811  10.359   2.143  13.205  0.2486 -0.1497 -0.0297
13958W        W32812  15.535  13.018  14.673  0.1351 -0.0244  0.2162
13959W        W32813  16.586  14.499   1.710  0.3636 -0.0284  0.0420
13960W        W32814  18.878  14.150  13.593  0.4298  0.0126  0.1951
13961W        W32815  16.840  17.959   2.369 -0.4297 -0.0979 -0.1155
13962W        W32816   7.808   0.788   2.536 -0.0196  0.0520  0.3237
13963W        W32817  16.653   9.278  14.109  0.1749  0.0197  0.1736
13964W        W32818  19.090  17.174  14.268 -0.1816 -0.1241 -0.2443
13965W        W32819  12.923  17.299  11.013 -0.0443 -0.1174 -0.1331
13966W        W32820  12.983   8.508   1.282  0.3341  0.0437  0.1770
13967W        W32821  16.880  15.461   4.045 -0.2239  0.0074  0.0374
13968W        W32822   7.395   7.175   0.670  0.0798  0.0060 -0.0073
13969W        W32823  16.519   0.574   2.915 -0.1362  0.0608 -0.0089
13970W        W32824  11.706   5.162  11.318 -0.1558  0.0836  0.0307
13971W        W32825  11.060   7.063   0.548  0.0100  0.1286 -0.3678
13972W        W32826   8.027  15.189  14.683 -0.0487  0.1626 -0.0865
13973W        W32827   2.341  14.082   2.082  0.1594  0.0160  0.0856
13974W        W32828  17.820   9.799   1.772  0.0895  0.1621  0.0664
13975W        W32829   7.281   1.405   2.072  0.1248 -0.2011  0.1040
13976W        W32830   0.397  13.801  14.054 -0.1289 -0.0316 -0.0504
13977W        W32831  17.314  15.347  11.827  0.0735 -0.2701  0.3471
13978W        W32832   0.633   5.459  11.441  0.0293 -0.0106 -0.0655
13979W        W32833   8.363   8.006  14.270  0.3522 -0.1729 -0.2923
13980W        W32834  16.913   3.125   1.198  0.0665 -0.0845  0.1488
13981W        W32835   6.842  12.292  10.995 -0.3663 -0.1845 -0.3244
13982W        W32836  11.440   7.740  11.354  0.0065  0.0266 -0.0641
13983W        W32837   0.322   7.809  10.016 -0.0988  0.4205  0.3343
13984W        W32838  10.844  12.851  13.077  0.0344  0.0418  0.2473
13985W        W32839   3.539   2.036   0.434  0.0340 -0.0780 -0.1069
13986W        W32840  17.216   4.459   3.267 -0.0253 -0.4452  0.3498
13987W        W32841   2.004  18.366   1.557  0.1250  0.2299  0.1929
13988W        W32842   4.387  17.318   4.517 -0.2917  0.0067  0.2674
13989W        W32843  18.650   0.401  10.578  0.0377  0.1727 -0.1912
13990W        W32844   5.858  16.882  11.413 -0.1527 -0.0086 -0.1541
13991W        W32845  10.948   0.562  12.023  0.1486  0.1133 -0.0923
13992W        W32846  10.102  15.673  13.551 -0.0521 -0.1453  0.2791
13993W        W32847   6.237  10.589   1.154 -0.1337 -0.0104 -0.0341
13994W        W32848   0.903  17.440  13.722  0.1648  0.1170  0.1814
13995W        W32849  17.493  11.351  12.447  0.3625  0.0626  0.1590
13996W        W32850   7.957   2.602   3.081  0.1855 -0.0153  0.0425
13997W        W32851   4.857  16.085  11.215 -0.2136  0.1892  0.2604
13998W        W32852   8.631   0.680  12.402  0.1446 -0.0231 -0.0889
13999W        W32853   2.626   7.305  12.126  0.1580 -0.1761 -0.0941
14000W        W32854   2.555  15.411   4.568 -0.2425 -0.1293  0.3487
14001W        W32855   5.501   6.328  13.070 -0.1928  0.1064  0.0347
14002W        W32856   5.713   9.738   0.023 -0.0459 -0.1807  0.0678
14003W        W32857  11.771   2.084   1.151  0.2251 -0.2221 -0.1979
14004W        W32858   8.522  18.376   2.958  0.2524  0.0380  0.2143
14005W        W32859   8.052   5.409   0.485 -0.0083  0.0353 -0.1697
14006W        W32860  18.043  11.263  14.617  0.2177  0.1682 -0.0385
14007W        W32861  11.778  10.294  10.445  0.1094  0.0831  0.0027
14008W        W32862  13.590   6.253  11.680  0.1467 -0.0692  0.0075
14009W        W32863   1.568   3.704  10.791 -0.0264 -0.2693  0.3552
14010W        W32864  11.397   8.738  13.579  0.0088 -0.2657 -0.1329
14011W        W32865  12.565  15.913  10.750 -0.2262  0.1576 -0.1555
14012W        W32866  17.498  13.787   2.782 -0.2286  0.0523  0.1519
14013W        W32867   2.462   8.905   2.288 -0.3461  0.3004  0.3079
14014W        W32868   2.349   5.513  10.384 -0.1811  0.2169 -0.1116
14015W        W32869  14.910  10.103  11.028 -0.3574 -0.0025  0.2321
14016W        W32870  11.802   7.901  11.716  0.1062 -0.0188  0.2285
14017W        W32871   1.609  16.812  14.428  0.0702 -0.0800 -0.4419
14018W        W32872   8.891  14.741   1.386 -0.2266  0.2798 -0.0069
14019W        W32873   3.231  12.480  11.004  0.2491 -0.1694 -0.1149
14020W        W32874  10.358   8.472   3.932  0.3702 -0.1305 -0.2900
14021W        W32875   1.048   3.119  11.365 -0.1562 -0.1051 -0.0427
14022W        W32876  13.599   5.274   4.544 -0.1845 -0.0270 -0.1043
14023W        W32877  16.687   3.352  12.819 -0.1897 -0.0132 -0.4433
14024W        W32878   9.457   8.038  12.905  0.0544  0.4776 -0.1044
14025W        W32879  11.432  15.646  12.050  0.0411  0.1062  0.0415
14026W        W32880  15.091   8.663  12.899 -0.2246 -0.0534 -0.0190
14027W        W32881   2.300   5.030  11.393 -0.1231  0.1022 -0.0946
14028W        W32882  17.608   6.663   2.511  0.3431 -0.1637 -0.2241
14029W        W32883  12.923   4.347   3.935  0.0691 -0.1182  0.2561
14030W        W32884   8.689  13.175   3.132 -0.2619 -0.1493  0.0139
14031W        W32885  19.146   5.478  10.260  0.0487  0.1513 -0.1080
14032W        W32886   5.613  11.043  10.841 -0.0294  0.0756 -0.1269
14033W        W32887   3.620   4.974   0.907  0.2272 -0.2091 -0.5049
14034W        W32888   5.723   6.309   2.009  0.2355 -0.1054  0.1357
14035W        W32889  18.329   7.910  10.260  0.2103 -0.1579  0.0302
14036W        W32890  18.978   7.809  14.107  0.1063 -0.2945  0.0697
14037W        W32891  18.691  16.340   1.687 -0.0697  0.0860 -0.0890
14038W        W32892  18.688   7.919   3.337  0.3525 -0.0180  0.1741
14039W        W32893   1.317   0.490   2.122  0.1970  0.0284 -0.1484
14040W        W32894  14.911  15.024  13.814 -0.1603 -0.0116  0.2013
14041W        W32895   0.572   2.082   2.205 -0.0213  0.0473  0.0899
14042W        W32896   1.124   4.204   2.070  0.0682  0.1148 -0.4970
14043W        W32897  17.081  11.298  10.520 -0.1408  0.1087  0.0078
14044W        W32898   5.969   3.616  12.048  0.0018  0.1343 -0.3975
14045W        W32899  12.767   7.014   2.247 -0.0443  0.3070  0.0019
14046W        W32900   6.845   6.022  11.093  0.1900 -0.1365 -0.0494
14047W        W32901   2.332   2.144  14.405  0.2513  0.0857 -0.3867
14048W        W32902   0.068   2.833   1.179  0.1378  0.1487 -0.2389
14049W        W32903   1.390   4.447  13.721 -0.0492  0.0165 -0.0253
14050W        W32904  14.663   9.123  14.623  0.1311  0.1227 -0.1660
14051W        W32905   4.069   5.393  11.185 -0.3332 -0.1779 -0.1347
14052W        W32906  12.564   9.857  13.738 -0.0980 -0.0537  0.1561
14053W        W32907  11.507  11.389   1.711  0.4743  0.0054 -0.0623
14054W        W32908  17.213  13.444  11.416 -0.2803  0.0424  0.1666
14055W        W32909   4.997   4.099  13.099  0.2267  0.1386  0.0352
14056W        W32910   7.410   4.359  13.698  0.1156  0.1626  0.1973
14057W        W32911   7.566   9.792   1.985  0.1194  0.0452  0.1060
14058W        W32912   0.924  16.706   1.601 -0.0407  0.2338 -0.1253
14059W        W32913  16.985   0.111   3.404  0.0267 -0.1754  0.1036
14060W        W32914  12.592   0.915   2.535 -0.2992 -0.1881  0.0927
14061W        W32915  17.869   2.935   3.866 -0.3915  0.3999  0.1194
14062W        W32916   3.939  14.120   3.985  0.0994 -0.0283 -0.4726
14063W        W32917   0.453  18.508   1.000 -0.0180  0.1489 -0.0577
14064W        W32918  13.035  16.907   1.326 -0.2379 -0.3126 -0.1627
14065W        W32919  11.091  13.269   0.538  0.2368  0.1656  0.1045
14066W        W32920  14.069   3.491   3.682 -0.0574  0.0877  0.1095
14067W        W32921  12.283   1.211   2.244 -0.1228  0.2620  0.0436
14068W        W32922   5.068   3.965   3.293 -0.0952  0.0711 -0.1497
14069W        W32923   5.826  11.990  13.280 -0.2490 -0.1977 -0.0392
14070W        W32924   8.044  16.029   3.190 -0.0307  0.0071  0.1952
14071W        W32925   3.087  14.792   2.236 -0.0729  0.0012 -0.0325
14072W        W32926   7.531  15.739   4.877  0.0876  0.0296 -0.2054
14073W        W32927  16.535   3.851  13.205  0.2275  0.0027 -0.2865
14074W        W32928  10.136  12.401  10.967  0.0651 -0.0496 -0.0293
14075W        W32929   2.454  18.824  12.272 -0.1925 -0.1489 -0.2716
14076W        W32930  11.422   5.931  12.406  0.0268  0.0458  0.4068
14077W        W32931  15.659   0.141   5.472  0.1787 -0.0603 -0.1493
14078W        W32932  12.934  15.249   3.374  0.0398 -0.1270  0.1191
14079W        W32933   7.810   3.470   9.393 -0.0203 -0.1091  0.2163
14080W        W32934   5.146   5.381   3.942  0.1907 -0.1034  0.2708
14081W        W32935  15.013  10.282  11.834  0.2238 -0.3437  0.0318
14082W        W32936   8.523   7.029  11.705  0.0759  0.2652  0.2283
14083W        W32937  18.110  18.464  13.666 -0.1589  0.0384 -0.3043
14084W        W32938   6.944  15.152   0.485  0.1102  0.0832  0.0168
14085W        W32939  18.570  14.152   4.112 -0.3401  0.0243  0.0220
14086W        W32940  17.115   0.195  14.421 -0.0361 -0.1115 -0.1038
14087W        W32941   1.447  12.916  13.548 -0.2522  0.2805 -0.0847
14088W        W32942  10.622   4.082  14.706 -0.1330  0.3930 -0.3379
14089W        W32943   0.902   6.781   5.009  0.0136  0.0038 -0.2289
14090W        W32944  18.480   5.043  12.708  0.0443  0.1924 -0.2563
14091W        W32945   9.424   8.486  14.070 -0.1782  0.1621 -0.1070
14092W        W32946   9.719   1.117  12.657  0.3237 -0.1872  0.0492
14093W        W32947   5.648   6.074  10.449  0.0107  0.3073 -0.1239
14094W        W32948  15.693   8.364  11.175  0.2541  0.0271  0.2136
14095W        W32949  18.669  18.888   4.610 -0.1680 -0.0082  0.0841
14096W        W32950   9.569  12.218   1.373  0.0293  0.0411  0.2184
14097W        W32951   0.442   5.098  11.088 -0.4478 -0.1922 -0.1042
14098W        W32952   5.828   2.591  14.269 -0.2166 -0.1352  0.3659
14099W        W32953  18.186   1.267   4.585 -0.1177  0.1325  0.1854
14100W        W32954  12.922   9.685   3.467 -0.0932  0.2030  0.2212
14101W        W32955   3.270  15.398   0.443 -0.3873  0.1353  0.3019
14102W        W32956   6.874  10.111   0.686  0.1952 -0.2874 -0.1666
14103W        W32957  15.741   2.951  12.394 -0.0567  0.1630  0.1661
14104W        W32958   5.391   0.117  12.008  0.2378  0.1547 -0.2872
14105W        W32959  13.568   0.975   2.192  0.0823  0.0897 -0.1255
14106W        W32960   6.018  16.781   0.937 -0.1310 -0.0749  0.1644
14107W        W32961  16.661  17.589   5.756  0.1341  0.1888 -0.0218
14108W        W32962   7.338   5.684   1.051  0.3234 -0.1850  0.2900
14109W        W32963  12.844   3.534   3.735  0.1356 -0.0292 -0.0244
14110W        W32964   9.551   8.533   3.686  0.1556  0.1046 -0.3545
14111W        W32965   9.780  13.854   3.239  0.0502 -0.0587  0.0295
14112W        W32966  13.172   3.097  12.379 -0.1666  0.2696  0.2579
14113W        W32967  12.064   1.507   2.891  0.0515 -0.3734 -0.0202
14114W        W32968   7.313  11.492   2.163  0.1400 -0.1021  0.0794
14115W        W32969  12.667  12.353   2.278  0.0379 -0.2669  0.2234
14116W        W32970  14.101  17.285   4.032  0.3303 -0.3199  0.1984
14117W        W32971   4.212   0.204   1.163 -0.1392 -0.3444  0.0262
14118W        W32972   0.454   6.021  14.387  0.0900 -0.1234 -0.0443
14119W        W32973  15.105   1.557   0.539  0.4373 -0.1240  0.2952
14120W        W32974  16.936  16.447   0.589  0.0767 -0.0294  0.3169
14121W        W32975   1.109   7.094   0.455 -0.2576  0.0493 -0.0052
14122W        W32976  11.356   6.112   3.645 -0.1888  0.0411  0.0391
14123W        W32977  16.163  16.729   4.913 -0.0005  0.0333  0.2935
14124W        W32978   8.442   0.017   2.699  0.0741  0.2677 -0.0496
14125W        W32979   9.952  18.776  14.676  0.1893 -0.3133  0.2486
14126W        W32980   7.535  16.786   3.225  0.3099 -0.0149  0.2025
14127W        W32981  16.604   6.970   0.005  0.0711 -0.1484 -0.1311
14128W        W32982   1.115  11.367   1.643  0.2995 -0.1759 -0.2913
14129W        W32983   2.722  18.018   2.719  0.3221  0.1988  0.0476
14130W        W32984  18.433   5.498  10.610  0.1224 -0.0312  0.0486
14131W        W32985   8.652  10.274   9.612  0.1511 -0.1954 -0.3025
14132W        W32986  11.356   8.269   3.602  0.0017  0.0239 -0.1886
14133W        W32987  18.868  15.681   3.479 -0.4361 -0.3194 -0.0070
14134W        W32988   1.805  12.501   0.928  0.2026  0.3269  0.0438
14135W        W32989   5.350  12.194  13.115 -0.3074  0.1520  0.2039
14136W        W32990   6.291   2.376  14.504  0.0932  0.5468 -0.0341
14137W        W32991   3.161  13.855   5.118 -0.3054 -0.0802  0.1273
14138W        W32992  16.525  12.444   0.763  0.0907  0.2369 -0.2296
14139W        W32993   1.659  10.345   1.492 -0.1190 -0.2108 -0.0421
14140W        W32994  11.859  19.113  11.271  0.1358 -0.0979  0.1337
14141W        W32995   7.841   9.391   0.212 -0.2727  0.1328  0.1033
14142W        W32996  12.697   2.263  12.047  0.0992  0.3216  0.0497
14143W        W32997  15.611  17.151  11.882 -0.2495 -0.1614 -0.1303
14144W        W32998  16.968   7.950  13.583  0.0127  0.0133  0.3117
14145W        W32999   9.002   9.174  14.340  0.1272 -0.1432  0.0211
14146W        W33000   5.172   4.871   2.775 -0.0594 -0.2392  0.0623
14147W        W33001  15.585   0.531   0.125 -0.1598  0.1496  0.2459
14148W        W33002   0.015  11.870   4.144  0.2204  0.0218  0.0912
14149W        W33003  11.741   1.243  14.525  0.0111 -0.0514  0.0751
14150W        W33004   1.974   3.434  10.901  0.1183  0.2720 -0.2057
14151W        W33005   8.842  12.028   0.940  0.2996  0.2098  0.0883
14152W        W33006   7.733   9.958  13.412 -0.1229 -0.2970  0.2897
14153W        W33007   0.254   4.961   1.730 -0.0912 -0.1403  0.0603
14154W        W33008   3.699  18.976   2.908 -0.1181 -0.0617  0.2361
14155W        W33009  11.519  16.711   3.464 -0.1605  0.0785 -0.1248
14156W        W33010   8.076  10.453  12.152  0.1754  0.0788  0.0302
14157W        W33011  10.992  17.466  12.363 -0.2416  0.1536  0.0102
14158W        W33012   3.174   5.926   2.390 -0.0134  0.0014  0.1462
14159W        W33013   1.220   3.126  14.607  0.0945  0.1999 -0.0811
14160W        W33014  11.025  15.428  11.246 -0.2250  0.1500 -0.1465
14161W        W33015  10.164   5.361  10.349 -0.0440  0.1929  0.2095
14162W        W33016  12.283  14.175   3.327  0.0939  0.0737 -0.3353
14163W        W33017   7.383  16.108  13.307  0.0173  0.0180 -0.1345
14164W        W33018  15.519   4.453   2.536 -0.0548 -0.2801 -0.0526
14165W        W33019   1.760  13.942  11.294 -0.2004  0.3511  0.2415
14166W        W33020   6.552   0.239   1.361 -0.1983  0.2151 -0.1572
14167W        W33021   1.073  14.530  11.046 -0.2439  0.1512 -0.1582
14168W        W33022  10.368  11.997  12.722 -0.0678  0.5165 -0.0476
14169W        W33023   6.519  16.209  13.223 -0.2507 -0.1535 -0.5140
14170W        W33024  11.483   2.284   0.249  0.1313  0.1837  0.0117
14171W        W33025   0.138   0.290   2.457 -0.2518  0.2427  0.1096
14172W        W33026   2.831   2.413   2.338 -0.2060  0.0446  0.0731
14173W        W33027  12.439  15.095   3.304 -0.1114  0.1053 -0.1289
14174W        W33028   4.252  11.044  10.991 -0.3202  0.2042 -0.2625
14175W        W33029   2.564   6.049  13.052 -0.0820  0.4834  0.1346
14176W        W33030   9.931  14.115  14.119 -0.1824 -0.1591  0.2802
14177W        W33031   4.887  14.383  13.713 -0.1688 -0.2246 -0.2244
14178W        W33032   6.271   1.257  14.438 -0.0592 -0.1682 -0.1772
14179W        W33033   0.965  13.208  14.699  0.2705 -0.2786  0.4907
14180W        W33034   9.100   0.429   2.008 -0.1426 -0.0317 -0.0361
14181W        W33035   9.338   6.093  11.967 -0.0104  0.0472 -0.0154
14182W        W33036   6.926   4.875   4.230 -0.0141  0.1882  0.0300
14183W        W33037   5.426   4.220  11.196 -0.1046 -0.2085  0.0497
14184W        W33038  13.119  17.195  13.933 -0.2624  0.1207 -0.2931
14185W        W33039  12.880   0.599   1.576 -0.2563  0.0926 -0.0896
14186W        W33040   8.022   3.389   1.483 -0.0553  0.1444 -0.2476
14187W        W33041   5.483  10.576  10.801 -0.0022  0.1805  0.0784
14188W        W33042  12.961  18.675  13.004  0.1468  0.0346 -0.1362
14189W        W33043  11.938  12.198   3.626 -0.0514  0.0673 -0.2049
14190W        W33044  14.848   7.314  13.281  0.0443 -0.0454 -0.3858
14191W        W33045  15.316  17.495   2.594 -0.0892  0.0513  0.2499
14192W        W33046   8.084  12.730  11.756  0.1618  0.3392  0.0916
14193W        W33047   8.606  12.880  10.921 -0.1681  0.1611  0.1438
14194W        W33048   6.077  12.876   3.300  0.3351  0.1802  0.2174
14195W        W33049   8.404   8.124  10.455  0.1133  0.0999  0.0953
14196W        W33050   6.165  12.219  11.781 -0.2047  0.2918 -0.2885
14197W        W33051  10.389   5.677  11.122 -0.1095  0.2650 -0.1691
14198W        W33052  15.826  17.684   1.081 -0.1982  0.2914  0.2884
14199W        W33053  16.616   9.743   3.508  0.0411 -0.1664 -0.2356
14200W        W33054  13.893  10.087   3.778 -0.0255  0.1073 -0.0589
14201W        W33055   1.756  10.620   3.036  0.0841 -0.0152  0.5127
14202W        W33056  17.355  16.016   2.631  0.3492 -0.0578  0.3217
14203W        W33057   4.165  11.612  13.913  0.0391  0.1028 -0.2323
14204W        W33058  11.155   1.154  12.705 -0.0910 -0.3434  0.1084
14205W        W33059   1.298  11.869  11.980 -0.0025  0.1559 -0.1323
14206W        W33060  14.589  17.865   1.643  0.2640  0.0313  0.0871
14207W        W33061   0.414   2.627  10.895  0.2262 -0.3245 -0.0872
14208W        W33062  17.497  11.634  11.949 -0.0838 -0.0274 -0.0545
14209W        W33063   4.770   1.304   1.438 -0.1100  0.0781  0.1670
14210W        W33064   6.677  15.825  12.702 -0.1884  0.1624  0.2392
14211W        W33065  12.898   1.476   1.897 -0.4958 -0.2400  0.1013
14212W        W33066   0.457   7.757   0.595 -0.1841 -0.1006 -0.3022
14213W        W33067   4.202   7.620  12.579 -0.0147 -0.0722 -0.0086
14214W        W33068  16.926  12.996   3.578 -0.0744 -0.0203  0.0939
14215W        W33069  14.540  17.495   4.240  0.2090 -0.1227  0.1076
14216W        W33070  15.421  13.341  11.575  0.0147 -0.2378  0.0974
14217W        W33071  13.167   2.805  14.714  0.2925 -0.3553 -0.1443
14218W        W33072   4.870   4.910   4.036  0.1032 -0.0934 -0.1616
14219W        W33073   5.979   0.613   1.855 -0.2336 -0.0015  0.1074
14220W        W33074   3.207   1.228  11.488 -0.0012  0.0814 -0.0043
14221W        W33075   4.022  14.288  14.487  0.2486  0.1593 -0.1034
14222W        W33076  11.084  12.021  14.131 -0.0991 -0.1296  0.2755
14223W        W33077   3.650  19.193   1.031 -0.0154  0.2999 -0.0873
14224W        W33078  18.113   4.963   0.631  0.1453 -0.0639  0.2565
14225W        W33079  19.069   0.515  10.870  0.2819  0.1762 -0.1159
14226W        W33080   6.533   3.452   1.734 -0.1052 -0.0864 -0.1513
14227W        W33081  11.985  13.360   9.260  0.0597  0.0799 -0.1382
14228W        W33082   8.174   8.176   0.064  0.1244  0.3026 -0.0440
14229W        W33083  11.321   8.643   3.923 -0.4141  0.3033  0.0349
14230W        W33084  11.377   1.265   0.972  0.0008  0.3070 -0.0640
14231W        W33085   9.075  18.909   1.457 -0.0803  0.2134 -0.1665
14232W        W33086  10.244  18.032  14.368 -0.1498  0.3712  0.2353
14233W        W33087   2.401  15.527  10.811  0.1061 -0.2857 -0.2024
14234W        W33088   0.257  18.277   0.430 -0.2652  0.2112 -0.3158
14235W        W33089  15.094  14.714   3.136 -0.0037  0.4239  0.2876
14236W        W33090   0.569  14.350   1.856  0.0089  0.1226  0.3438
14237W        W33091  11.314   1.006  14.266  0.1021  0.2618  0.1771
14238W        W33092   7.647   3.424  12.493  0.1909  0.0148  0.2228
14239W        W33093   0.210  14.755  11.455  0.1928 -0.0524  0.1593
14240W        W33094  15.155  11.500  12.170  0.1637  0.0381  0.0683
14241W        W33095   0.346  10.907  13.854  0.3144  0.2928  0.0370
14242W        W33096   9.459  17.061  10.650  0.0663  0.5643 -0.0066
14243W        W33097   9.938  19.144  12.036 -0.0890  0.1961 -0.0318
14244W        W33098  16.979  14.850   4.601 -0.1250 -0.1867 -0.2767
14245W        W33099   8.936  13.790  10.520  0.1904  0.0385 -0.0992
14246W        W33100  15.645  16.857  14.714 -0.1738 -0.0913  0.0071
14247W        W33101   0.350   4.608  14.141 -0.0763  0.0137 -0.2187
14248W        W33102  10.212  11.554  13.901  0.1012  0.2311  0.0999
14249W        W33103   5.056  11.803  11.731 -0.0263 -0.0663 -0.0343
14250W        W33104   9.669  11.944   2.618  0.2177 -0.2194 -0.0105
14251W        W33105   0.326  14.488  12.062 -0.0262  0.1712 -0.0009
14252W        W33106   5.847   9.185   0.972  0.0498  0.2148 -0.3240
14253W        W33107   8.266   6.202  12.237  0.0506  0.1762 -0.0928
14254W        W33108  12.754   4.342   0.773 -0.2756 -0.1610  0.1649
14255W        W33109  13.535  11.813   2.704 -0.2229 -0.1197  0.1313
14256W        W33110   3.030  19.125   0.554 -0.4166  0.2795 -0.0830
14257W        W33111   0.169  14.256  11.485 -0.2980 -0.0574  0.0283
14258W        W33112   9.930   9.097  12.407 -0.0303 -0.2099 -0.3282
14259W        W33113  13.289   5.005   3.608 -0.0262 -0.0894  0.0303
14260W        W33114   1.171   1.080  11.424 -0.1969  0.0254  0.2065
14261W        W33115   3.454   9.295  14.489 -0.0186  0.1610 -0.2854
14262W        W33116   7.411   5.967  10.250 -0.1737 -0.2596  0.1362
14263W        W33117   7.080   3.553  11.202  0.1710  0.2934  0.0887
14264W        W33118  13.964  18.829  13.229  0.6141 -0.2631 -0.4076
14265W        W33119  16.199   5.590   9.597  0.0853  0.1164 -0.3192
14266W        W33120   1.791   6.462  12.637 -0.2794  0.0157 -0.0199
14267W        W33121   7.824   5.298  12.539  0.0438  0.4088  0.1649
14268W        W33122  18.593  18.019   1.722 -0.1689  0.0508 -0.2675
14269W        W33123  18.810  17.249   3.805  0.0881 -0.0708  0.2238
14270W        W33124   2.944  15.949   3.455  0.1765  0.1132 -0.1522
14271W        W33125   6.690  18.608   0.391 -0.2026 -0.1203  0.0210
14272W        W33126  14.953   1.834   2.738 -0.1491  0.0362 -0.2068
14273W        W33127   1.654  10.603  11.313  0.0083 -0.0380 -0.1794
14274W        W33128  10.273   3.779   3.708 -0.1043  0.1850  0.4793
14275W        W33129   6.601  12.020  10.534  0.0289  0.1220  0.1839
14276W        W33130  15.725   6.089   0.862 -0.1524 -0.0703 -0.1541
14277W        W33131  12.080   0.411   2.596  0.0925 -0.0662 -0.2000
14278W        W33132  17.936   6.442   4.070  0.0529  0.1102  0.1709
14279W        W33133   5.360  18.624   2.747 -0.3874  0.1062 -0.2452
14280W        W33134  13.613   9.284   9.281  0.1585 -0.0058 -0.1076
14281W        W33135   7.784  13.358   4.595 -0.1543  0.4257 -0.1883
14282W        W33136  16.581  11.786   2.051 -0.2349 -0.1217  0.2180
14283W        W33137   7.470   7.452  13.459 -0.0267 -0.0471  0.0361
14284W        W33138  11.855   3.821  14.636  0.2728  0.0828  0.0294
14285W        W33139   3.986   8.636  13.498 -0.0800  0.0146 -0.1589
14286W        W33140   9.337   7.202   0.894 -0.2316 -0.2666 -0.1019
14287W        W33141   0.227   4.830  10.725  0.0289 -0.1306  0.0788
14288W        W33142   3.347   1.458   2.150  0.0472 -0.1077  0.2113
14289W        W33143  13.031  15.923  12.568  0.0698  0.1709 -0.1308
14290W        W33144  16.917   3.379   2.204  0.1251  0.1457 -0.0985
14291W        W33145  17.857   8.987   3.770 -0.2077 -0.0590 -0.0088
14292W        W33146  10.486  17.595  13.231 -0.3828  0.1038  0.0654
14293W        W33147   3.014  18.731   1.902 -0.2322 -0.1896  0.0429
14294W        W33148   3.748   1.818   2.149  0.1514 -0.1374 -0.2100
14295W        W33149   3.121  17.894   0.057  0.1808  0.1564  0.3197
14296W        W33150   4.078  15.899  12.075 -0.0472  0.0292  0.2113
14297W        W33151   3.120  10.545  14.475  0.2007  0.1958 -0.0841
14298W        W33152   8.622  14.161   3.762  0.0301  0.0507 -0.0690
14299W        W33153   9.174  13.042  11.899 -0.1942 -0.0501 -0.0941
14300W        W33154  12.249   0.502  10.126 -0.0960 -0.3534 -0.2230
14301W        W33155  11.351   9.153   1.307 -0.0724  0.3111  0.0480
14302W        W33156  10.780   4.818   2.362  0.0060 -0.4513  0.3946
14303W        W33157   6.271  11.670   2.846 -0.1812  0.1103 -0.0206
14304W        W33158  15.169   5.909  11.076 -0.1489  0.1884  0.1937
14305W        W33159  16.616   0.397  13.559 -0.2738 -0.1416 -0.2786
14306W        W33160   5.739  14.742   2.269 -0.0297  0.0076 -0.0431
14307W        W33161  12.610  18.917  12.038  0.0398  0.0147 -0.0402
14308W        W33162  19.005   9.859  13.520 -0.0150  0.1507 -0.2017
14309W        W33163  16.162  16.530  11.893  0.1389  0.3411 -0.2614
14310W        W33164  14.415   2.509   1.821  0.3128  0.2741 -0.0136
14311W        W33165  10.698  16.699  11.341 -0.0115 -0.0712 -0.0593
14312W        W33166  18.164  11.902   1.019  0.1518 -0.1830  0.2316
14313W        W33167   3.335  15.154   3.958 -0.1523 -0.0265  0.0350
14314W        W33168   6.813   4.576  10.818  0.0032 -0.2649  0.2434
14315W        W33169  13.603  14.986  12.687  0.2386  0.4589  0.0771
14316W        W33170  12.761  17.413  14.260  0.0732 -0.1064  0.0194
14317W        W33171  16.786  11.924  10.765  0.0418 -0.0141  0.1119
14318W        W33172   6.053   0.162  11.419  0.2916 -0.2434 -0.1717
14319W        W33173   1.281   8.825   2.586  0.2400 -0.1658 -0.0284
14320W        W33174   6.108  11.282  12.357 -0.1357 -0.1202 -0.0764
14321W        W33175   7.413   7.565  12.989  0.2648  0.1064  0.1337
14322W        W33176   1.397  10.200  12.601 -0.0028 -0.3008 -0.0061
14323W        W33177   2.911  14.512  13.714 -0.2544  0.2168  0.3430
14324W        W33178  18.460   6.468  10.480 -0.2378  0.1206  0.0761
14325W        W33179  14.140   4.408  12.185 -0.0738  0.3366  0.2559
14326W        W33180  15.732   5.595  13.942 -0.3374  0.3565 -0.2746
14327W        W33181   9.658  12.611  14.126 -0.0222  0.0786 -0.3621
14328W        W33182  10.090   0.908   0.812  0.0376 -0.0140 -0.2776
14329W        W33183  17.864   9.987   5.326 -0.0374  0.1212 -0.4574
14330W        W33184   3.944   5.412  14.271 -0.0795  0.3080  0.0343
14331W        W33185   0.223  13.616  11.045 -0.0311 -0.0992  0.3075
14332W        W33186  17.764  17.232   1.131  0.1839 -0.0785  0.0587
14333W        W33187   3.662   8.333   0.588  0.0904  0.0771  0.2548
14334W        W33188  18.437   1.587   3.902 -0.2506 -0.0374 -0.3910
14335W        W33189   8.614   6.519  11.389 -0.0895  0.0474 -0.1301
14336W        W33190   8.075   0.201   3.069  0.0122 -0.0273  0.0382
14337W        W33191  10.618  17.128   2.568  0.0051  0.0135 -0.3231
14338W        W33192  10.556  11.734   3.137  0.3484 -0.2341 -0.1833
14339W        W33193   1.404  16.199   0.363  0.0385  0.0703  0.1616
14340W        W33194  12.586   6.859  14.463  0.0086  0.0165  0.0395
14341W        W33195   5.985   4.555  14.522 -0.1487  0.0275  0.2796
14342W        W33196  13.108  13.328   2.058  0.1006 -0.0677 -0.1711
14343W        W33197  13.371   4.004  11.930 -0.0535  0.1020 -0.3818
14344W        W33198   1.009  15.730   1.866 -0.1635 -0.0807  0.5418
14345W        W33199  12.202   2.181   0.970  0.0742  0.2208 -0.0439
14346W        W33200   0.281   0.499  12.812 -0.0612 -0.4584 -0.2166
14347W        W33201   3.917  13.871   1.947 -0.1420 -0.1112 -0.5039
14348W        W33202  14.511   3.958  13.012  0.1727 -0.0157  0.1832
14349W        W33203   3.675  12.831  12.817  0.0302 -0.0548  0.1233
14350W        W33204   3.041  13.119   1.356  0.4107 -0.2399  0.2682
14351W        W33205  12.655   8.855   1.133  0.1194 -0.2335  0.1420
14352W        W33206   3.665  17.045   3.943 -0.4845 -0.2564 -0.3516
14353W        W33207   7.595   7.476  11.801 -0.4503  0.2593  0.1134
14354W        W33208   7.279   1.441  11.211 -0.1838 -0.2237  0.1828
14355W        W33209  18.454  15.939   1.431  0.1004 -0.0393 -0.1246
14356W        W33210  14.311   9.482  10.548 -0.1942 -0.2086 -0.1506
14357W        W33211  15.873  14.432  13.719  0.2528  0.4299 -0.1416
14358W        W33212   6.380   9.249  13.838  0.1628 -0.1572  0.1251
14359W        W33213  14.279   6.044   3.262  0.0249  0.0085 -0.1546
14360W        W33214   9.282   6.369  10.790  0.2027 -0.2320 -0.2952
14361W        W33215  19.168   1.431   9.225 -0.1918  0.0345 -0.0262
14362W        W33216   4.381   3.596  10.485 -0.0465 -0.2648 -0.0399
14363W        W33217  13.389  19.102   1.433 -0.0604 -0.2486 -0.0148
14364W        W33218   4.500  15.684  11.577 -0.1945 -0.3254  0.0368
14365W        W33219  12.374  10.472  11.439 -0.0729 -0.1805  0.0550
14366W        W33220   0.286   1.211   0.574 -0.2803 -0.2922  0.1053
14367W        W33221  15.694  14.778  13.151  0.1651  0.0830 -0.0395
14368W        W33222   2.455   0.042  11.090  0.5127  0.0688  0.2004
14369W        W33223   4.467   4.297  11.809 -0.1780  0.0544 -0.4512
14370W        W33224   2.526   2.967  11.482  0.0805 -0.0903  0.2529
14371W        W33225   6.767   2.164   1.941 -0.2219  0.1540  0.0496
14372W        W33226  15.619   2.296   3.983  0.0735 -0.2074 -0.1573
14373W        W33227   3.760   0.464   1.062  0.1706  0.0716 -0.0771
14374W        W33228  10.207   0.991  12.147  0.0257  0.0402 -0.2652
14375W        W33229   8.789   7.231   3.997  0.0379 -0.0599  0.1170
14376W        W33230  13.337  14.303   2.985  0.0784 -0.1544 -0.1167
14377W        W33231   9.350  14.637   2.620 -0.2168  0.1622 -0.1481
14378W        W33232   8.459   3.304  14.175  0.1416  0.0671 -0.0292
14379W        W33233   3.200   3.000   0.539 -0.1148  0.0059 -0.1430
14380W        W33234  14.932  17.537   1.695 -0.3083 -0.1026 -0.0391
14381W        W33235  12.718  12.420   1.332  0.0620 -0.1829  0.0141
14382W        W33236  13.639  14.252  13.417 -0.0867 -0.0872  0.1861
14383W        W33237   7.783   0.746  13.918 -0.1465  0.0461  0.1037
14384W        W33238  13.498   2.487   0.189  0.0646  0.0028  0.1340
14385W        W33239   6.485  13.381  13.687 -0.0565 -0.0583 -0.0648
14386W        W33240   5.417   3.352   0.516 -0.0502 -0.0664 -0.1194
14387W        W33241   9.582  13.741   1.299  0.1360 -0.0006 -0.0756
14388W        W33242  11.551   3.374   1.380 -0.0873 -0.0100  0.0591
14389W        W33243  17.457  11.266   2.917 -0.0590  0.0135 -0.0398
14390W        W33244   2.808  10.896  13.834  0.2446  0.0414  0.3346
14391W        W33245  11.268  10.508   0.841  0.0852  0.1251  0.1263
14392W        W33246   8.789  18.448  14.290 -0.1311 -0.0516  0.1869
14393W        W33247   5.185  12.184   0.959 -0.0730 -0.4451 -0.2086
14394W        W33248  14.381   5.191   4.106  0.1787 -0.1368  0.3104
14395W        W33249   4.451   7.155   0.206 -0.1296 -0.0739 -0.2077
14396W        W33250   4.713  15.477   2.484  0.2352  0.2524  0.2012
14397W        W33251  12.550  13.352   2.644 -0.3182 -0.2685 -0.0390
14398W        W33252   1.723   2.473  11.495 -0.0519  0.0125 -0.4229
14399W        W33253  12.597   3.170   3.023  0.1624  0.1490 -0.2695
14400W        W33254   7.649  10.622  12.556 -0.2659  0.0701  0.2932
14401W        W33255  13.871   0.364   4.004 -0.1915 -0.0487 -0.1278
14402W        W33256  17.772  14.166   2.511 -0.0934  0.0667  0.0736
14403W        W33257   5.164   8.158   5.117  0.1340 -0.0224  0.2618
14404W        W33258   3.417   6.352  13.516  0.2188  0.0164 -0.0379
14405W        W33259   7.237   9.629  14.177 -0.2321  0.0134  0.0029
14406W        W33260   4.438  14.536  14.697 -0.2562  0.0895 -0.3203
14407W        W33261  13.770  18.691  10.873 -0.1565  0.0411 -0.1224
14408W        W33262  18.273   7.446   2.192  0.1639 -0.1874 -0.2114
14409W        W33263   7.975  19.023   3.429  0.1174  0.0084  0.2446
14410W        W33264  10.728  18.320  10.367  0.1835 -0.1625 -0.1907
14411W        W33265   8.305   0.262   1.931  0.1519 -0.1277  0.3551
14412W        W33266   9.106   4.800   2.033  0.2241 -0.2029 -0.2208
14413W        W33267  19.099   9.590   3.223 -0.1598  0.0315  0.1557
14414W        W33268   1.507   9.446   1.297 -0.3282 -0.0625 -0.2168
14415W        W33269   3.247   4.703   2.964  0.0484  0.2014 -0.0196
14416W        W33270  18.171   6.776   3.786 -0.0235  0.0535 -0.2049
14417W        W33271  15.823  13.663  14.022  0.0639 -0.2158  0.1854
14418W        W33272  15.635   6.795  13.869  0.0720  0.1931  0.2885
14419W        W33273  15.472  12.017  11.516 -0.0707 -0.0452 -0.2692
14420W        W33274  10.644  14.554   9.785 -0.2342 -0.0833 -0.1665
14421W        W33275   7.681  15.212   1.779  0.1165 -0.0159 -0.2054
14422W        W33276  10.360  10.041   2.333 -0.2468  0.0186 -0.0429
14423W        W33277   3.593  15.743  10.225 -0.0113  0.0913 -0.1832
14424W        W33278  17.390  18.529   4.457 -0.1805  0.5063  0.4126
14425W        W33279  13.261  17.666   2.267  0.0644 -0.1693 -0.0848
14426W        W33280   7.970  12.716   2.863  0.1335 -0.0712 -0.1889
14427W        W33281   2.348   4.982  14.179  0.0813 -0.1486  0.4719
14428W        W33282   1.113   6.308  13.290  0.0250 -0.3946  0.0551
14429W        W33283  17.301   6.677  12.635 -0.0376  0.0772  0.1448
14430W        W33284  15.605   1.599  13.393 -0.0868  0.0145  0.4272
14431W        W33285  12.727   8.296  11.853  0.1334 -0.2563  0.1089
14432W        W33286  10.913   7.403  12.189 -0.2683 -0.2004 -0.2014
14433W        W33287   8.621  10.742  11.398  0.0864  0.1298  0.0127
14434W        W33288  16.258  15.614  14.019  0.1842  0.1201 -0.1901
14435W        W33289   5.323   9.625  13.226  0.1339 -0.1769 -0.0969
14436W        W33290   7.050   8.735  12.179 -0.0209  0.0786  0.0055
14437W        W33291   1.302   5.518   2.126  0.0270 -0.1207  0.1838
14438W        W33292   3.823   2.137  11.073  0.0211  0.1288  0.3441
14439W        W33293   6.231  13.765  12.866  0.1415 -0.1520 -0.1881
14440W        W33294   2.945   8.074   2.470  0.4487  0.2210 -0.2636
14441W        W33295  14.203  16.933  12.965  0.0294  0.0791  0.0547
14442W        W33296   5.975   4.586   3.210 -0.1014  0.0931 -0.1060
14443W        W33297  14.847   6.745   0.255 -0.0568  0.0227 -0.0496
14444W        W33298  11.574   0.717   0.850 -0.2450  0.4879  0.2539
14445W        W33299  18.508   9.943  13.334  0.1595 -0.0753 -0.0341
14446W        W33300   5.537   2.301   1.133 -0.1857 -0.0440  0.1138
14447W        W33301   2.063   9.280   4.962 -0.0422  0.6493 -0.1404
14448W        W33302   9.421   5.573   1.808 -0.0692 -0.2841 -0.0573
14449W        W33303  14.178   5.990  13.107 -0.1187  0.1539  0.0649
14450W        W33304   4.613   9.054   4.746  0.0092  0.5316 -0.0694
14451W        W33305  12.947   8.021  13.896  0.0385 -0.3648  0.3145
14452W        W33306   5.765   0.933  12.148 -0.0254 -0.0821  0.3081
14453W        W33307   8.614   9.683   1.473  0.0597 -0.1006 -0.2552
14454W        W33308  14.688   9.898   0.401  0.4153 -0.0932  0.1036
14455W        W33309  17.691  10.970   2.562  0.0180  0.0481  0.1789
14456W        W33310  11.231  18.308  13.560 -0.3945 -0.0708 -0.1085
14457W        W33311   7.506   2.495   0.653  0.0154  0.2386 -0.3234
14458W        W33312  16.014   7.730   0.977 -0.2920 -0.0950 -0.2987
14459W        W33313  13.260   5.497   3.685  0.3297  0.1818  0.0992
14460W        W33314   2.093   1.328  11.016 -0.1770 -0.4063  0.2231
14461W        W33315   7.375   7.136   1.142  0.1628  0.0716 -0.0052
14462W        W33316  11.345   0.079  13.811 -0.0604 -0.1635 -0.2933
14463W        W33317  12.078  16.880  11.714  0.0580  0.3371  0.0384
14464W        W33318  12.469  15.938   3.412  0.0645  0.2865 -0.0179
14465W        W33319  11.008   8.349   2.394  0.0622  0.0963  0.1238
14466W        W33320  18.486  14.309   9.970 -0.1751 -0.0078 -0.0031
14467W        W33321  17.030   0.347  13.891 -0.0699 -0.1146 -0.0438
14468W        W33322   6.060   0.865   2.431 -0.3299  0.0130 -0.1422
14469W        W33323   8.533   2.899   0.330 -0.1420  0.1688  0.1427
14470W        W33324   1.986   7.087  13.311  0.0403  0.1856  0.2779
14471W        W33325   0.900  14.120  10.915  0.1352  0.1322 -0.0893
14472W        W33326   2.236   4.349   3.552  0.1397 -0.2332 -0.2638
14473W        W33327  15.409   9.769  12.683 -0.3528  0.1759  0.0963
14474W        W33328   8.773  16.765  13.531  0.0399 -0.2122 -0.1036
14475W        W33329   9.543   9.082   2.190 -0.0123 -0.0547 -0.3050
14476W        W33330   3.617   6.004   1.923 -0.2037  0.0009  0.1562
14477W        W33331   1.635   0.918   0.968 -0.0327  0.1820 -0.4771
14478W        W33332  16.397   6.273   0.914 -0.0633 -0.0061 -0.0134
14479W        W33333  16.249  12.759  12.909 -0.0690  0.1603  0.2103
14480W        W33334  17.843   8.002  14.149 -0.2051 -0.1314 -0.3399
14481W        W33335  18.134   8.405  14.350 -0.0093 -0.0215  0.2233
14482W        W33336   9.263  17.334  12.911 -0.0076  0.0502  0.1150
14483W        W33337  11.076   3.827   2.762  0.0354  0.2020 -0.0344
14484W        W33338  15.763  11.212  12.283  0.0763 -0.2325 -0.1800
14485W        W33339  14.078   5.138   0.604  0.0726 -0.0585 -0.1139
14486W        W33340  17.355   9.987  12.383  0.0036  0.0573  0.0398
14487W        W33341  17.963   2.411   2.547 -0.0600  0.2622 -0.2375
14488W        W33342   6.213   4.500   4.382  0.1258  0.2277  0.2637
14489W        W33343   3.970  11.994   2.213 -0.0703  0.0537 -0.2516
14490W        W33344  12.028  14.445   0.996  0.3457 -0.0978  0.0761
14491W        W33345   0.291   9.033   4.498 -0.1015 -0.0239  0.2532
14492W        W33346  17.861   7.596   2.406 -0.0847  0.1193  0.2456
14493W        W33347  15.354  15.862   3.284 -0.3085  0.0747 -0.2454
14494W        W33348   0.497  13.426  14.451 -0.1770 -0.4166  0.0389
14495W        W33349   3.453  14.172   3.722  0.1230 -0.4368  0.0536
14496W        W33350   5.734   3.606   5.015 -0.1028 -0.1338 -0.0535
14497W        W33351  18.106  12.371   0.721 -0.1413 -0.0258  0.0171
14498W        W33352   1.203  11.911   3.649  0.1044 -0.0119  0.0199
14499W        W33353   2.344   2.533  13.676 -0.4463  0.0986 -0.2352
14500W        W33354   1.777  14.936   3.579  0.1227  0.3124 -0.1148
14501W        W33355  13.453   1.272  13.975  0.3590  0.0541  0.1522
14502W        W33356  10.182  17.222   0.395 -0.1365 -0.1549  0.0553
14503W        W33357  13.825   0.487  11.997 -0.2549 -0.1279 -0.2465
14504W        W33358  18.994  14.396   2.446  0.0389 -0.0162 -0.1147
14505W        W33359   4.446   6.530   2.387  0.0201 -0.1781  0.2938
14506W        W33360  14.187  16.369   1.135  0.3608  0.1954 -0.0186
14507W        W33361  16.426   1.631   2.756  0.2329  0.0676 -0.1103
14508W        W33362   3.031   7.870  10.950  0.0942 -0.1633  0.1169
14509W        W33363  10.183  12.869  11.915  0.3251 -0.2881 -0.0807
14510W        W33364  18.533  10.451   0.089 -0.0533 -0.2647  0.1553
14511W        W33365  13.157   3.527  13.527  0.1320  0.1215  0.0888
14512W        W33366  17.863  15.110  11.993 -0.3859 -0.0119  0.0423
14513W        W33367  17.560  15.605  13.320  0.0404 -0.1843  0.0686
14514W        W33368   2.988  11.701   2.937 -0.1247  0.1259 -0.0745
14515W        W33369   0.305  10.807   0.066  0.2799  0.0570  0.1402
14516W        W33370   3.858   1.216   2.162 -0.1883 -0.1647 -0.0910
14517W        W33371  10.677  14.592  12.426  0.1403 -0.0187 -0.0222
14518W        W33372   8.716  14.098  10.143 -0.2659 -0.1461  0.2223
14519W        W33373   4.535  10.573  14.171 -0.0542 -0.2058 -0.3673
14520W        W33374   5.611   4.647  12.065  0.0917 -0.1843 -0.1383
14521W        W33375  13.837   3.272  12.936  0.1412  0.0915  0.1292
14522W        W33376   7.291   4.173  10.887 -0.0053 -0.0225 -0.0185
14523W        W33377  18.879   2.806   2.593  0.2216 -0.1178 -0.1901
14524W        W33378  18.098   5.434   0.803 -0.0651  0.0662 -0.1782
14525W        W33379   0.793  16.959  11.876  0.1382  0.2995  0.0915
14526W        W33380  11.591   2.162  11.452 -0.0030  0.0420  0.2141
14527W        W33381   7.400  15.427  11.992  0.0302  0.5404  0.1733
14528W        W33382   6.743  14.355   1.465 -0.2354 -0.0889  0.1251
14529W        W33383   1.018  10.136  12.922 -0.0684  0.1483  0.0271
14530W        W33384   0.764  16.377   3.073 -0.2029 -0.0690 -0.2312
14531W        W33385   6.267   4.694   1.566  0.0856  0.0584  0.1424
14532W        W33386  17.638  11.107  13.894 -0.4058 -0.0182  0.0730
14533W        W33387  12.588   2.837  13.758 -0.1994  0.3376 -0.3966
14534W        W33388  13.395   6.852  10.587 -0.0521 -0.1770 -0.2306
14535W        W33389  15.754  16.899  13.763  0.1122 -0.0998 -0.0718
14536W        W33390  16.672  10.945   2.348  0.0369  0.2860 -0.2104
14537W        W33391  16.804   1.402  10.963 -0.0698 -0.3088 -0.5640
14538W        W33392   4.710  11.761  10.591 -0.0093 -0.0738  0.1742
14539W        W33393   7.812  15.930   2.488 -0.3519 -0.1272  0.1027
14540W        W33394  16.332   7.260   2.273  0.2329  0.1143 -0.2917
14541W        W33395   8.281  16.240  14.000 -0.0562  0.2274 -0.2910
14542W        W33396   9.994   7.150   2.504 -0.1915 -0.2936 -0.0354
14543W        W33397   9.589   7.060  14.506 -0.1527  0.0492  0.2516
14544W        W33398  10.742   6.047  11.926  0.3014 -0.0031  0.0175
14545W        W33399   8.623   9.443  12.570  0.1044 -0.2194 -0.0315
14546W        W33400   7.125   1.059   2.632  0.1245 -0.0752 -0.0147
14547W        W33401   0.825   6.393   3.693  0.3039 -0.0290  0.0582
14548W        W33402  17.415   9.568  13.318  0.0634 -0.3412  0.2609
14549W        W33403   6.232  11.497  11.076  0.0201 -0.0191  0.1670
14550W        W33404   9.474  18.949   1.934 -0.1837 -0.2796  0.1346
14551W        W33405   9.632   6.080   3.783 -0.0307  0.1141 -0.1654
14552W        W33406  18.539  11.352  14.473 -0.2784  0.3075 -0.0717
14553W        W33407   8.430   6.966   1.497 -0.1151  0.4692 -0.3003
14554W        W33408  16.674  17.215   0.133 -0.3031 -0.2573  0.0034
14555W        W33409   5.820   0.158   1.865  0.3500 -0.0303  0.4142
14556W        W33410  18.396   4.020   2.649 -0.2377 -0.2200  0.0231
14557W        W33411   4.530   8.501  12.665  0.2225 -0.1080 -0.3206
14558W        W33412   0.757  10.406  11.279  0.2556 -0.1663 -0.2566
14559W        W33413   4.934   4.309   2.422  0.1539  0.3179 -0.3147
14560W        W33414  15.296  18.689  10.766 -0.1132  0.1406 -0.4095
14561W        W33415  11.239   7.103   1.443  0.0426  0.0075  0.0872
14562W        W33416  10.051  17.757   2.226  0.1077  0.0675  0.4661
14563W        W33417   1.502  10.321  14.204 -0.1026  0.0767  0.2948
14564W        W33418   4.662   4.318   0.089 -0.0694  0.3404 -0.1011
14565W        W33419   8.952  18.678  12.613 -0.1606 -0.2002 -0.1846
14566W        W33420  10.040   0.236  13.216 -0.0984  0.1470 -0.2534
14567W        W33421  13.193   0.174   2.991  0.0857  0.1053  0.1815
14568W        W33422   2.297   1.690   4.209  0.1028 -0.3144 -0.0044
14569W        W33423   1.441  14.527   1.860 -0.0560 -0.0534  0.0588
14570W        W33424  17.131   9.260  13.008  0.1251 -0.0378 -0.1870
14571W        W33425  18.342  17.359   4.415  0.4053  0.0522 -0.2182
14572W        W33426  15.983   2.907  11.618 -0.0738  0.2987 -0.1539
14573W        W33427   0.664   9.246  11.802 -0.0760  0.0148  0.1896
14574W        W33428  13.460   8.629   0.334  0.1201 -0.1726 -0.0567
14575W        W33429  17.163  10.832   3.127  0.1927 -0.0428 -0.2806
14576W        W33430   2.463  15.176   2.817  0.0844  0.3524  0.0140
14577W        W33431   7.817  10.848  12.967 -0.1048  0.0319 -0.0045
14578W        W33432   5.009  18.976  13.413  0.2084  0.3560  0.0614
14579W        W33433  11.167   7.920   0.929 -0.1666 -0.1004 -0.1277
14580W        W33434  13.578   3.178  13.375 -0.3326  0.3566  0.1538
14581W        W33435   7.751   7.159   1.593 -0.1707  0.4227 -0.1565
14582W        W33436  14.290  16.419  14.085  0.0587  0.2196 -0.0566
14583W        W33437   6.171   9.979  12.966 -0.0176  0.1358  0.3129
14584W        W33438   4.188   0.569   0.837  0.0121  0.0111 -0.4522
14585W        W33439  18.372  10.229   3.310 -0.1081 -0.3031  0.1449
14586W        W33440  17.752  12.972  13.356  0.1931  0.2114 -0.0736
14587W        W33441  11.888   6.049  10.446  0.1243 -0.2168  0.0441
14588W        W33442   1.152  15.959   2.351 -0.1374  0.1024 -0.0609
14589W        W33443  12.904  16.891  14.706 -0.1074  0.0302  0.0164
14590W        W33444   3.858  12.715   4.693 -0.0967 -0.1672  0.2637
14591W        W33445   0.882   8.138  14.115  0.2752  0.2817 -0.1490
14592W        W33446  12.389   4.645   2.309 -0.0576  0.0191 -0.3270
14593W        W33447  11.134   2.086   0.656 -0.2009  0.0193  0.1413
14594W        W33448   4.844  11.689   2.833  0.1806  0.1628  0.2315
14595W        W33449   8.400   1.340  11.570 -0.0273  0.4276 -0.1548
14596W        W33450  12.208   5.006   1.918 -0.2690 -0.5683 -0.0548
14597W        W33451   0.886  16.016   3.626  0.0652  0.1987 -0.2592
14598W        W33452  12.005  11.400  10.968 -0.1289  0.3491  0.0345
14599W        W33453   9.383   3.255   1.759  0.0829  0.1184  0.0456
14600W        W33454  19.150   0.857   3.050  0.0908  0.0024  0.2004
14601W        W33455  10.456   5.016  12.780  0.1232  0.5262  0.0512
14602W        W33456   6.957  15.292  12.463  0.0537  0.2001  0.0538
14603W        W33457  12.427  15.465   2.586  0.0675 -0.1869 -0.1469
14604W        W33458   4.991   7.135   2.747 -0.1236  0.0158  0.2272
14605W        W33459  18.300  17.377  10.427  0.2199 -0.0801  0.0515
14606W        W33460  10.390   9.329  13.189  0.1359  0.3762  0.0760
14607W        W33461  15.218   9.485  13.027 -0.0205  0.2043  0.1654
14608W        W33462  14.289   6.978  11.590 -0.3630 -0.2420 -0.0148
14609W        W33463  13.936   6.038  11.278 -0.4152  0.1168 -0.1044
14610W        W33464  12.796   1.176   4.606 -0.1706  0.0443  0.4840
14611W        W33465  12.978  16.784  12.114 -0.0998 -0.1698  0.0767
14612W        W33466  18.189   9.926  13.774  0.2280  0.1811  0.0798
14613W        W33467  11.186  12.616   1.405  0.1607  0.1258 -0.0620
14614W        W33468  11.734   1.559   1.215 -0.2157 -0.3417 -0.1000
14615W        W33469  14.727  12.613   3.783  0.1793  0.0917  0.0224
14616W        W33470  19.057   9.274   0.023 -0.1870  0.1464  0.1198
14617W        W33471   1.135  18.219  10.733  0.0833 -0.1946 -0.0027
14618W        W33472   7.257   2.483   2.204 -0.1052  0.3001 -0.0152
14619W        W33473  17.683  13.994  13.740  0.1578 -0.1017 -0.1056
14620W        W33474  18.249  13.346   3.686  0.1243  0.2663 -0.0142
14621W        W33475  12.004  16.661  12.691  0.0932 -0.1617  0.1169
14622W        W33476  10.885   4.834  11.592  0.3034 -0.1504  0.1472
14623W        W33477   7.239  17.460   2.462 -0.3135 -0.0685 -0.0695
14624W        W33478   8.337  14.554   3.909  0.2947 -0.2384  0.0908
14625W        W33479   8.987  18.204   3.055  0.1667  0.1100  0.0765
14626W        W33480  11.191  19.091   2.659 -0.1576 -0.3317  0.2558
14627W        W33481   3.808  17.401  11.986  0.1957 -0.2940 -0.0846
14628W        W33482   1.934   5.336  14.542 -0.0961  0.0222  0.0784
14629W        W33483   6.801   9.783  14.543 -0.1720  0.0689  0.1122
14630W        W33484   9.743   1.562  14.637  0.1175  0.3109 -0.0009
14631W        W33485  11.699   1.845  10.981  0.2626 -0.0404  0.1354
14632W        W33486  16.225  12.000   1.665  0.0472 -0.4636  0.0544
14633W        W33487  11.925  18.981  14.373 -0.0864 -0.1999 -0.1280
14634W        W33488   7.776  11.801   2.239 -0.0302 -0.1077  0.1592
14635W        W33489   1.874  15.448   0.603 -0.0028  0.1811 -0.1376
14636W        W33490   3.933  15.504   2.089 -0.0504 -0.3682  0.0154
14637W        W33491   6.843   8.137  10.482 -0.0073  0.0449  0.1691
14638W        W33492  15.353   4.514  10.589  0.2377  0.0228 -0.3047
14639W        W33493  11.277  19.052  11.497  0.4540  0.2432 -0.0721
14640W        W33494   0.799  16.723  14.140 -0.0486  0.0979 -0.1156
14641W        W33495   4.488  10.110   5.334  0.1009 -0.3234 -0.2220
14642W        W33496  19.162   4.124   0.980  0.2362 -0.2745 -0.1575
14643W        W33497  11.624   1.811  12.107 -0.0133  0.1630  0.2396
14644W        W33498   4.168  17.418   0.674 -0.0311  0.1876 -0.2029
14645W        W33499   1.994   3.618   1.395 -0.1224 -0.3130  0.4109
14646W        W33500   5.712  15.415  12.123  0.0371 -0.2222  0.2000
14647W        W33501   2.739  14.888  11.323  0.3526  0.1199  0.4040
14648W        W33502   7.239  15.971  12.068 -0.2356 -0.1606 -0.0463
14649W        W33503  11.708  15.890   3.358  0.0525  0.0031 -0.3022
14650W        W33504  16.656   7.992   0.903  0.0653  0.2057  0.2418
14651W        W33505  14.033   3.241   0.348  0.0671 -0.2934 -0.1083
14652W        W33506   7.804   6.808  11.232 -0.0496  0.1824  0.0597
14653W        W33507  14.649  13.423   3.761 -0.0923  0.0933 -0.0258
14654W        W33508  18.219   5.263  14.558  0.1163  0.0256 -0.2491
14655W        W33509   7.788  16.063  14.006 -0.2188  0.0025  0.1308
14656W        W33510  13.945  16.780   3.952  0.0016 -0.5658  0.0700
14657W        W33511  11.117  16.945   1.767 -0.3155 -0.2258 -0.1365
14658W        W33512   6.495  12.850  13.675  0.2426 -0.0879 -0.1664
14659W        W33513   6.478  19.135   0.129  0.2294 -0.0510 -0.0812
14660W        W33514   4.979  11.545  13.486  0.0379 -0.3846  0.1149
14661W        W33515   9.841  18.678  13.850 -0.0832  0.1393  0.2926
14662W        W33516  16.575  15.873   4.141  0.2850 -0.1107  0.3798
14663W        W33517  12.428   9.586  13.395 -0.1566 -0.0636  0.0755
14664W        W33518   4.911   1.538  13.567 -0.0029 -0.0712 -0.0129
14665W        W33519  14.391  18.107   3.859 -0.1400  0.1847 -0.0163
14666W        W33520  14.295   5.633  11.894  0.0285  0.0678 -0.2081
14667W        W33521  14.349   7.615   1.691  0.0910  0.3755 -0.1504
14668W        W33522   4.057   3.648  13.738  0.1074  0.1112 -0.2768
14669W        W33523   4.582  16.597  12.346  0.2319 -0.2846  0.4121
14670W        W33524  12.955   3.057   1.153  0.0786  0.1297  0.1264
14671W        W33525   3.163  13.844   1.534 -0.1587  0.3460 -0.2775
14672W        W33526  13.083  15.126  12.343 -0.0546  0.2172  0.1914
14673W        W33527   3.784  18.123   0.604  0.0798 -0.2991  0.1478
14674W        W33528  18.661   4.185   2.254  0.0420  0.1215 -0.0947
14675W        W33529   3.440   1.872   9.844  0.1869  0.0838 -0.1525
14676W        W33530  16.408  12.866  13.427  0.0769 -0.0247 -0.0710
14677W        W33531  18.960   1.093   0.384  0.2500 -0.0552 -0.1838
14678W        W33532   3.149   5.332  12.971 -0.0402  0.0313  0.1230
14679W        W33533   2.211  14.975  13.940 -0.1881 -0.0405  0.0090
14680W        W33534  17.566  16.004  14.568  0.0944  0.0220  0.2508
14681W        W33535  10.801   5.142  13.896 -0.0136  0.1411 -0.0612
14682W        W33536   7.947   4.866  14.719  0.1938  0.0101  0.1152
14683W        W33537  17.820  13.092  13.955  0.1129 -0.0674  0.3024
14684W        W33538   3.815   2.181   5.049 -0.1476 -0.1111  0.3481
14685W        W33539   5.773  10.679  14.289 -0.2169 -0.0420  0.1366
14686W        W33540   3.594   6.261  10.954 -0.2262  0.2428  0.0344
14687W        W33541   5.335  16.640  13.616  0.0293 -0.1000 -0.0089
14688W        W33542  14.992  18.891   0.091 -0.4984  0.0126 -0.2160
14689W        W33543   5.684   3.692  10.468 -0.1649  0.0806  0.0998
14690W        W33544   9.845   9.154   4.359  0.1346  0.0217  0.1130
14691W        W33545  18.242   4.501   3.855  0.0546  0.3439 -0.0469
14692W        W33546   0.882   6.257  12.183  0.1381  0.0427  0.1735
14693W        W33547  19.124  18.629   2.865  0.1937 -0.0578 -0.0599
14694W        W33548  11.942   3.216   3.857 -0.0368 -0.2593 -0.1419
14695W        W33549   2.995  18.629  12.457 -0.0267 -0.0327  0.1072
14696W        W33550   2.009  17.416  13.708  0.0484 -0.2059  0.0581
14697W        W33551   8.239   2.220  11.112 -0.1504  0.3241 -0.2238
14698W        W33552   6.657  10.122   3.588 -0.0885 -0.2713 -0.2868
14699W        W33553   8.843  15.585  10.876  0.1420  0.0798  0.0761
14700W        W33554   3.548   9.057   1.133 -0.0230  0.1669 -0.3309
14701W        W33555   3.514  17.809   1.900 -0.0334  0.2425  0.0286
14702W        W33556  15.213   1.164   5.192 -0.3059  0.0067  0.1848
14703W        W33557   9.679   2.232  13.132  0.3734  0.1142 -0.0583
14704W        W33558  18.339   3.219  14.142  0.1758 -0.0701 -0.0784
14705W        W33559   5.137   3.293   4.377  0.0194 -0.0259 -0.1513
14706W        W33560   5.724   7.584   2.636  0.0767 -0.0722  0.4087
14707W        W33561   1.951  14.284  10.429  0.2693  0.1077 -0.1227
14708W        W33562   9.352   5.682  13.593  0.0280 -0.0149 -0.1333
14709W        W33563  14.390   0.841  11.044  0.0779 -0.1446 -0.0758
14710W        W33564   7.964   5.503  13.320  0.0593  0.1917 -0.1653
14711W        W33565   0.688   9.725   2.771  0.0434 -0.0911  0.0066
14712W        W33566   2.847   1.803   4.156 -0.2882  0.0854 -0.0813
14713W        W33567   9.682   4.015  11.875 -0.0938  0.1609  0.1101
14714W        W33568   0.238   8.523   4.267 -0.0149  0.2672  0.2271
14715W        W33569  16.078   7.460  11.078  0.4016 -0.1321 -0.0338
14716W        W33570   7.455  15.676  14.059  0.1271 -0.3604 -0.0505
14717W        W33571   5.565  10.377  11.278 -0.0126  0.0548  0.1453
14718W        W33572   4.614   4.649   1.095  0.0739  0.1193 -0.0625
14719W        W33573  13.128  14.055  10.904  0.3875  0.0780 -0.0524
14720W        W33574  14.330   2.324   0.331 -0.1122 -0.2105 -0.2877
14721W        W33575  14.721   3.084  10.743  0.0198  0.1378  0.0449
14722W        W33576   6.957  13.140  13.800  0.0593  0.0533 -0.0545
14723W        W33577  16.893   2.494   2.803 -0.1663 -0.2163 -0.2289
14724W        W33578  14.398   5.755   2.226 -0.0431 -0.1752  0.2620
14725W        W33579  19.190  14.787  14.263 -0.1608 -0.1873  0.3899
14726W        W33580   2.527   4.238   3.086 -0.0124 -0.4356 -0.1231
14727W        W33581   9.667  11.704   2.175  0.4078  0.2553  0.1583
14728W        W33582   3.996  11.927   0.620  0.1930 -0.1859 -0.1402
14729W        W33583   0.205  14.556   4.165  0.0700 -0.3778 -0.1302
14730W        W33584   3.877  15.168  14.048 -0.0801  0.2312 -0.0746
14731W        W33585  12.879   4.515  14.561 -0.0367  0.2480  0.0073
14732W        W33586  17.112  16.419  13.154  0.1854  0.1195  0.1008
14733W        W33587   7.425   8.056  13.358  0.0417 -0.0152 -0.0787
14734W        W33588   4.797   4.103  12.354  0.1202 -0.0374 -0.0859
14735W        W33589   9.411  12.798   4.076  0.3207  0.1264 -0.0464
14736W        W33590   0.109   5.427  13.475 -0.2013  0.1139 -0.0666
14737W        W33591   4.476   0.279   3.960 -0.2272  0.1289  0.1571
14738W        W33592  17.708   0.807  14.277  0.2102 -0.0216  0.0565
14739W        W33593   0.574  13.452   1.546 -0.1014 -0.2032  0.1739
14740W        W33594   2.931   4.908   3.769 -0.0045 -0.3571 -0.2841
14741W        W33595   0.586   4.022   2.799 -0.3346 -0.2670 -0.0023
14742W        W33596   7.034   9.406   3.986 -0.0871  0.1880 -0.1399
14743W        W33597   6.674  18.047   1.063 -0.2331  0.0456 -0.1335
14744W        W33598  12.069  13.480  12.869  0.2044 -0.1201 -0.1185
14745W        W33599   9.567   9.192  11.400 -0.1429  0.2932 -0.0715
14746W        W33600  16.535   5.995   2.986  0.1403 -0.0220 -0.1220
14747W        W33601  15.778  16.748   4.640  0.1572 -0.2542 -0.0993
14748W        W33602  10.713  17.075   0.297 -0.0015  0.0949  0.0425
14749W        W33603   3.326   1.324   1.632  0.1218 -0.0758 -0.3555
14750W        W33604   0.481   1.945  14.530  0.0187 -0.3122  0.2692
14751W        W33605   8.562   4.739   1.990 -0.1979 -0.0565 -0.2103
14752W        W33606  19.113   0.287  13.801  0.0076 -0.2662  0.3296
14753W        W33607   7.890  18.872   3.947 -0.0767  0.2200  0.0236
14754W        W33608   0.613  13.268  13.382 -0.1561  0.2655  0.1018
14755W        W33609   4.055   1.017   3.563 -0.3189 -0.1758  0.2646
14756W        W33610   7.034  10.704  12.673  0.2953 -0.0288  0.2303
14757W        W33611  18.593  14.521   0.705  0.1207  0.2628  0.0852
14758W        W33612  12.008  18.781   2.280 -0.0677 -0.1148  0.0801
14759W        W33613  14.939   7.355   2.448  0.1304 -0.0344 -0.2363
14760W        W33614   1.022   9.663   3.137 -0.0425 -0.1087 -0.0023
14761W        W33615   3.124  11.828  14.709 -0.0011  0.3463 -0.1525
14762W        W33616  12.611  15.725   4.345  0.0623  0.1365  0.3748
14763W        W33617   4.921   6.380   3.436  0.0311  0.1802  0.2392
14764W        W33618   9.900   1.668   3.043  0.0127  0.0425 -0.0797
14765W        W33619  15.568  18.457   4.434  0.0066  0.1489 -0.1053
14766W        W33620  17.185   5.508  13.389  0.1368 -0.0530  0.4927
14767W        W33621  12.826   3.114  12.756  0.3386  0.0436 -0.0101
14768W        W33622   0.443  17.762  12.250 -0.0789 -0.3411 -0.2611
14769W        W33623   4.904   7.152   4.102 -0.3352 -0.1384  0.1541
14770W        W33624   1.858   3.757  12.594 -0.0661  0.1505 -0.0239
14771W        W33625  14.819   9.911  14.361  0.1037  0.1856 -0.1346
14772W        W33626   7.001  10.970  13.458 -0.0731 -0.0706 -0.1914
14773W        W33627  15.522   1.849   1.127 -0.1935 -0.1546  0.2112
14774W        W33628  15.876  16.151  13.028 -0.1524 -0.0010  0.0195
14775W        W33629  11.859  11.414   1.338 -0.2061  0.0452  0.1004
14776W        W33630   0.239   9.346   1.459 -0.1158  0.1801 -0.0043
14777W        W33631   3.255  12.765  14.644 -0.1356  0.0396 -0.2856
14778W        W33632  13.433   6.738  12.560  0.1359  0.1269  0.3087
14779W        W33633  13.923   3.727   1.475  0.1014 -0.0078 -0.1354
14780W        W33634  12.397  16.668  12.207  0.0750 -0.1341  0.1478
14781W        W33635  12.345   6.974  12.787  0.0410 -0.1579 -0.1076
14782W        W33636  12.107  18.106  14.693  0.0902  0.2653  0.1686
14783W        W33637   2.535   1.476   4.572  0.0745  0.2002 -0.0816
14784W        W33638  16.142   8.524  14.492  0.2610  0.0049 -0.3528
14785W        W33639  14.433  15.604   3.932 -0.2175  0.2540 -0.0342
14786W        W33640   9.108  10.239   1.964 -0.0200  0.1192 -0.2909
14787W        W33641   4.093  18.486   1.210 -0.1758 -0.2416 -0.0062
14788W        W33642  12.396  17.918  13.389  0.0060  0.0174  0.1349
14789W        W33643   3.990   2.361  12.741  0.1140  0.0507  0.2101
14790W        W33644   3.959   9.473  14.298 -0.3327 -0.2623  0.0759
14791W        W33645  18.366   2.735  11.454 -0.3422 -0.4441 -0.1401
14792W        W33646   3.793   4.169   2.856 -0.0516 -0.0850 -0.1486
14793W        W33647  18.514   2.033  11.901  0.2219  0.1359 -0.2064
14794W        W33648  17.726  14.578  12.023  0.2144 -0.0259 -0.1297
14795W        W33649  15.550  17.501   4.609 -0.1101  0.1326 -0.1178
14796W        W33650  11.388  11.116   2.165 -0.0998  0.1316  0.2171
14797W        W33651  13.202   6.368  11.961 -0.2673  0.0553  0.0459
14798W        W33652  10.233   3.409  13.691 -0.1739  0.0990  0.0570
14799W        W33653  10.557   8.967  10.306 -0.0729 -0.0528  0.1183
14800W        W33654   3.106   9.524  12.833  0.1216  0.0464  0.3131
14801W        W33655  10.144  17.940   1.362 -0.0790 -0.3112 -0.1436
14802W        W33656  12.494  13.501  12.430 -0.1400 -0.2850  0.3100
14803W        W33657  10.398   3.457   0.670 -0.1052  0.1575 -0.0466
14804W        W33658   5.357  10.027  12.844  0.0735 -0.1216  0.0640
14805W        W33659  10.439   7.150  13.366  0.3184  0.2119 -0.0058
14806W        W33660   3.001   4.207   0.400 -0.0070  0.0914 -0.0391
14807W        W33661   5.507  18.411   0.459  0.0425 -0.1890  0.0866
14808W        W33662  17.072   1.073  14.165 -0.0315 -0.0336 -0.0121
14809W        W33663   1.076  11.103   5.150 -0.0102 -0.0450  0.1940
14810W        W33664  11.585   6.050   1.270 -0.0849 -0.2829  0.2711
14811W        W33665  12.688   3.265  14.017  0.1504 -0.3397  0.2947
14812W        W33666   8.743   0.292  14.136  0.1219  0.0549 -0.1170
14813W        W33667   7.598  14.219   4.631 -0.0264 -0.0051 -0.2325
14814W        W33668  16.629   0.243   4.530 -0.2000  0.0691  0.2316
14815W        W33669  11.020   8.014   3.933 -0.1623  0.2593  0.1870
14816W        W33670  17.798  14.812  10.937 -0.1335  0.0002 -0.2324
14817W        W33671  11.690  17.777  11.962 -0.0911  0.0602 -0.0054
14818W        W33672   0.100  11.676  12.264 -0.0789  0.0284 -0.0848
14819W        W33673   6.025  19.063  12.813  0.0666 -0.0630  0.3394
14820W        W33674   1.909  13.435   1.627 -0.1951 -0.0699 -0.2625
14821W        W33675  16.217  14.129  13.831  0.1809  0.0405 -0.2545
14822W        W33676   9.262   4.822  13.626  0.1403 -0.1333  0.4190
14823W        W33677  18.682  18.461   1.661  0.1150  0.0156  0.0448
14824W        W33678  18.967   6.261  14.107 -0.2637 -0.0611 -0.0443
14825W        W33679  17.654   4.102   1.212 -0.3855  0.0781 -0.1727
14826W        W33680  17.839  17.976  10.855 -0.1029  0.1807 -0.0824
14827W        W33681  17.360   3.936  13.233  0.0751  0.0081 -0.1631
14828W        W33682  13.582  19.148   4.022  0.1135 -0.1001 -0.1387
14829W        W33683  14.728  14.096   2.716  0.0005 -0.0624 -0.1808
14830W        W33684  13.146   8.369  10.481 -0.0488 -0.2629 -0.2108
14831W        W33685   8.330  14.683   1.238 -0.2256  0.0613  0.1447
14832W        W33686   1.081   8.366  13.175  0.0211  0.2795 -0.0218
14833W        W33687  10.978   8.464  13.062 -0.0728  0.0861 -0.2204
14834W        W33688  17.970  15.537   3.210  0.0094  0.0286 -0.1201
14835W        W33689  18.894   9.178   3.144  0.1372  0.1497  0.0764
14836W        W33690  16.809   4.814   4.683  0.1316  0.2854 -0.4923
14837W        W33691  10.764  12.372   4.268  0.0753 -0.1068  0.1348
14838W        W33692  16.053  14.755  11.491  0.0827  0.3117 -0.1088
14839W        W33693  15.695   2.448   5.241 -0.0909 -0.2820 -0.2663
14840W        W33694  12.624  14.796  11.052 -0.0289 -0.2018  0.0614
14841W        W33695   4.435   3.223  11.867 -0.0455  0.0298  0.2592
14842W        W33696   3.798   4.932   4.311  0.1650  0.2329 -0.0343
14843W        W33697   5.098  16.299   3.880 -0.0113 -0.0373 -0.1801
14844W        W33698  16.662   7.421   2.863  0.2054  0.0197  0.1392
14845W        W33699  14.720   6.032  13.146  0.1598  0.1477  0.2202
14846W        W33700   5.014  15.890   3.618 -0.1984  0.4230  0.1630
14847W        W33701  16.192  10.889   2.583  0.0990  0.1295  0.0417
14848W        W33702  12.896   5.811   1.874  0.0082  0.1468 -0.1948
14849W        W33703  16.942   6.689  10.788  0.0010 -0.0906 -0.1193
14850W        W33704  18.274   2.950  10.469 -0.2105  0.0121  0.0009
14851W        W33705   8.235   2.448  13.058  0.0242 -0.4427 -0.1434
14852W        W33706  18.214   8.937  14.030  0.1231 -0.0786 -0.1945
14853W        W33707  16.142  17.844  13.815  0.0604  0.2069  0.6866
14854W        W33708   4.673  14.431  14.211 -0.1435  0.1644 -0.0283
14855W        W33709   9.869   8.243  13.707  0.0473  0.1374 -0.1004
14856W        W33710   9.656  10.803  11.482 -0.0688 -0.0174 -0.3863
14857W        W33711  17.005  14.009  11.956  0.3283 -0.0344  0.0184
14858W        W33712  12.688   8.660  11.061 -0.2897  0.0113  0.1394
14859W        W33713  15.927   1.357   5.425 -0.4244  0.0750 -0.1407
14860W        W33714   7.535  15.608  13.466  0.1869  0.0886 -0.0637
14861W        W33715  15.279  15.991   0.292 -0.0230 -0.0373 -0.0688
14862W        W33716   2.619   7.465   9.878  0.0003  0.1748 -0.1920
14863W        W33717   6.180   1.264   4.154 -0.0014  0.0680  0.3121
14864W        W33718  18.586   4.454  12.247  0.0036 -0.0841 -0.3179
14865W        W33719  14.287  18.116  13.914 -0.0832 -0.1245  0.1861
14866W        W33720  18.859  13.268  12.906  0.0454  0.0809  0.1483
14867W        W33721  10.773   2.593   2.074 -0.1225  0.1639 -0.2612
14868W        W33722   1.507   0.861   1.822  0.0489  0.2577  0.3098
14869W        W33723   7.290   8.049   0.507 -0.1197 -0.1397  0.1130
14870W        W33724  15.366  11.978  12.088  0.1042  0.0131 -0.2213
14871W        W33725   2.574  11.332  12.187 -0.0460  0.1973 -0.2070
14872W        W33726   8.459   3.265  11.171  0.1462  0.2544  0.0540
14873W        W33727   9.543   6.218  10.293 -0.2751 -0.1486  0.1435
14874W        W33728   4.644  11.580   1.349 -0.3643 -0.1487  0.2329
14875W        W33729  11.291  18.101   0.694  0.0260  0.0149 -0.1216
14876W        W33730   1.027   0.617  13.606  0.1846 -0.1124 -0.0933
14877W        W33731   5.064   1.864  11.579 -0.0121 -0.0719  0.0134
14878W        W33732   8.954   0.615   3.787 -0.0270  0.2135 -0.0534
14879W        W33733   2.904   2.715   3.239 -0.4169 -0.1197 -0.0878
14880W        W33734  12.964   5.020  10.314  0.4974  0.3831 -0.2714
14881W        W33735   1.852   7.518  10.496  0.0380 -0.0178 -0.1170
14882W        W33736   7.505   9.200  10.000 -0.2821 -0.2474  0.1566
14883W        W33737   2.529  16.547   1.581  0.1642 -0.1277  0.0397
14884W        W33738   2.564   9.147   2.906  0.0514 -0.1129 -0.0983
14885W        W33739   0.771  11.723   0.338 -0.0052 -0.0667  0.2518
14886W        W33740  13.359  16.596   0.040 -0.2408 -0.2207  0.0551
14887W        W33741  10.966   8.959  14.598  0.1396 -0.2112  0.1062
14888W        W33742   5.190   3.924   3.775  0.0249 -0.0533 -0.0483
14889W        W33743   8.340   0.505  12.855  0.1734  0.0811  0.0642
14890W        W33744  14.086   1.907  13.090 -0.2870 -0.3865  0.1398
14891W        W33745  15.887  11.261  11.485 -0.0202 -0.2869  0.1866
14892W        W33746  13.440   6.388  13.409 -0.2104  0.0496 -0.2507
14893W        W33747   1.404  10.334   2.752 -0.0348  0.0245 -0.0932
14894W        W33748   2.537  14.275   1.572  0.3539  0.0083 -0.1031
14895W        W33749   8.330   1.300   4.073  0.2490 -0.0448 -0.1633
14896W        W33750   0.841   3.784   3.283  0.4148  0.0117 -0.1658
14897W        W33751  18.857  10.180  14.616 -0.2302  0.0636 -0.0087
14898W        W33752  11.492   8.636   0.804  0.2638 -0.0641  0.1336
14899W        W33753   3.622  13.446   2.202  0.1581 -0.0826 -0.0662
14900W        W33754  12.171  13.717   2.819  0.1559  0.2762  0.0127
14901W        W33755   3.377  17.606   1.461 -0.0846 -0.2842  0.0206
14902W        W33756   4.781   2.289  13.881  0.3042 -0.0233 -0.2953
14903W        W33757  17.317  17.727  14.438  0.1093  0.1386 -0.0712
14904W        W33758  10.330   0.328   1.778 -0.1060  0.0909  0.1504
14905W        W33759   8.017  10.688   4.074  0.0582  0.1918  0.3297
14906W        W33760  14.431  17.142   2.828  0.0353 -0.3799  0.0804
14907W        W33761   2.331   2.958   2.371  0.0597 -0.2888  0.0814
14908W        W33762  11.085  15.344  10.207  0.2320  0.1732  0.0524
14909W        W33763  16.301   4.893   4.324  0.0174  0.2079 -0.0976
14910W        W33764   7.443   2.580  14.345 -0.2430 -0.2070  0.3311
14911W        W33765  12.360   2.659  10.898  0.1325 -0.1000 -0.0228
14912W        W33766  10.767  18.327   9.791 -0.1493  0.0449  0.2000
14913W        W33767   2.293  17.444  10.827  0.0067 -0.1044 -0.1756
14914W        W33768   3.725  18.933  12.253 -0.0731 -0.1205 -0.0479
14915W        W33769   7.954   5.955  11.939  0.1813 -0.0465 -0.1848
14916W        W33770   8.358   0.745   1.709 -0.2849  0.3339  0.0462
14917W        W33771   8.144   5.944  14.570 -0.0569  0.0409 -0.2839
14918W        W33772  10.480  17.086  11.046 -0.0321 -0.2630 -0.3539
14919W        W33773  12.681   6.037  12.849 -0.4327 -0.0925  0.1083
14920W        W33774   3.544  16.047  12.189  0.0925  0.1032 -0.1064
14921W        W33775  16.965   4.285   2.851  0.2036 -0.0224  0.0005
14922W        W33776  12.151   9.071   3.438 -0.4989  0.2439  0.0786
14923W        W33777  15.137   2.584   4.101 -0.0261  0.0664 -0.1758
14924W        W33778   5.705  18.883   3.036  0.2431 -0.2135  0.4695
14925W        W33779  17.145   3.795  12.270 -0.2993  0.1141  0.3533
14926W        W33780   5.626   8.135  13.881 -0.0043 -0.0206 -0.0711
14927W        W33781   6.336   5.507   0.732  0.1440 -0.1284 -0.1004
14928W        W33782   0.005   8.934   0.333  0.2668 -0.0040  0.1027
14929W        W33783   8.687   7.494  11.524  0.0750  0.0102 -0.0669
14930W        W33784  10.613  11.566   4.548  0.1391 -0.0601 -0.2500
14931W        W33785   3.912  17.420  13.009  0.2223  0.0445  0.0986
14932W        W33786   2.169   7.001  14.721 -0.0792  0.0897 -0.1857
14933W        W33787   9.633  11.768   4.265 -0.0044 -0.1590  0.1507
14934W        W33788  12.491  17.391   1.042  0.3282  0.4017 -0.0094
14935W        W33789   5.726  12.875  10.809  0.1202  0.1077  0.0544
14936W        W33790   4.066   4.027   3.934 -0.1568  0.2646  0.0772
14937W        W33791   5.285   2.283   1.583 -0.2779 -0.1303  0.1563
14938W        W33792  13.566   0.024   3.296 -0.0911  0.1942  0.0001
14939W        W33793   7.699  16.191   1.310  0.3682 -0.1075 -0.0307
14940W        W33794   3.386   1.382  12.583  0.0374 -0.2022 -0.1994
14941W        W33795   7.141   5.781   0.595 -0.1507  0.1357  0.1521
14942W        W33796  14.552   6.658   2.156  0.1962  0.1285  0.2141
14943W        W33797   5.866   5.189  12.243  0.3752  0.2629  0.0161
14944W        W33798   8.611  10.198   1.085 -0.2597  0.2443 -0.2762
14945W        W33799  14.712   6.739   1.211  0.0820 -0.0768  0.2134
14946W        W33800   8.050  17.239   2.066 -0.0835  0.1548 -0.0892
14947W        W33801  19.005  12.882   2.575 -0.3356  0.1013  0.1480
14948W        W33802  15.076  10.941  14.268 -0.0549  0.2693 -0.1310
14949W        W33803   3.441   5.467  10.307  0.0679 -0.3050 -0.0058
14950W        W33804   6.093   9.492  14.539  0.1349 -0.0257 -0.2816
14951W        W33805  13.593   8.765  12.193  0.2567  0.1794 -0.1782
14952W        W33806   2.671  10.340   2.838  0.3088  0.2408 -0.0396
14953W        W33807  12.940  10.371   2.871  0.0302  0.3080  0.1232
14954W        W33808   6.599   4.652  13.977  0.0641  0.0518 -0.2408
14955W        W33809   1.472  10.911   0.210 -0.3440 -0.0678  0.2466
14956W        W33810  10.806  18.977  12.660 -0.1268 -0.0516 -0.1364
14957W        W33811  15.364   3.651  13.556  0.0847 -0.0597  0.0492
14958W        W33812  11.307  16.390  13.492 -0.1062  0.1924  0.0277
14959W        W33813   6.043   7.252  11.943 -0.1000  0.1937 -0.0917
14960W        W33814   3.308  16.202   2.410  0.0060  0.1644  0.0048
14961W        W33815  18.328  11.794  11.669 -0.1761 -0.1128  0.1555
14962W        W33816  17.450   1.099   2.784  0.0702  0.2736  0.0798
14963W        W33817  14.542   9.403   0.336  0.2534 -0.2720 -0.0691
14964W        W33818  15.348   9.288  11.271 -0.0986 -0.0398 -0.0985
14965W        W33819  13.920  11.724   1.673 -0.0182 -0.0307  0.2923
14966W        W33820   0.962  13.972  11.754  0.0744  0.4244  0.1118
14967W        W33821  17.009   6.619  14.517  0.0029 -0.1201 -0.0276
14968W        W33822  18.742   6.723  11.308 -0.2127 -0.1342  0.1741
14969W        W33823  10.491  18.065  11.509  0.1233 -0.2792  0.1934
14970W        W33824   8.846   3.545   3.181  0.0664  0.0178 -0.2038
14971W        W33825   9.985  16.281  12.196  0.2985  0.0130  0.0258
14972W        W33826   9.293   7.912   1.525 -0.0440 -0.1509  0.2408
14973W        W33827  12.668  10.152   3.621 -0.1102  0.2144 -0.1263
14974W        W33828   1.852   0.539   2.060 -0.0097 -0.1258  0.0760
14975W        W33829   0.908   7.023   1.520  0.1661  0.0292 -0.0547
14976W        W33830  16.667  10.856   1.119 -0.2558  0.0438 -0.2555
14977W        W33831  14.762   6.073   4.785 -0.2492 -0.1094 -0.1017
14978W        W33832  17.460   0.967  13.416 -0.0536  0.1714 -0.1696
14979W        W33833  11.449  12.524  12.120 -0.0310  0.4936 -0.1379
14980W        W33834   5.000   2.427   0.811 -0.0397  0.0649  0.1245
14981W        W33835   3.983  17.058   5.220 -0.0022 -0.0020  0.2549
14982W        W33836   6.363  11.937   3.286 -0.0831 -0.0528  0.0594
14983W        W33837  12.189  14.750   0.197 -0.1796 -0.0382 -0.0391
14984W        W33838   2.205  11.307  12.487  0.0584  0.2780 -0.1265
14985W        W33839  15.128   4.779   4.180  0.0670 -0.0118 -0.0642
14986W        W33840   3.720  18.349  13.392  0.0763  0.1731 -0.0924
14987W        W33841  12.592  16.955   1.856  0.0547  0.0734  0.0887
14988W        W33842   8.960   2.004  11.301  0.4681  0.0701  0.0317
14989W        W33843   9.405   4.831  12.692  0.1777  0.0339 -0.1913
14990W        W33844  11.856   6.574  11.772 -0.0857  0.0197  0.0024
14991W        W33845   7.598   5.409  11.490  0.0089  0.2963 -0.0837
14992W        W33846   8.811  17.044  11.558 -0.1988 -0.1147  0.1257
14993W        W33847  14.162  18.353  11.762 -0.2519 -0.0807  0.3126
14994W        W33848  14.264   3.518   9.173  0.0264  0.0956 -0.2890
14995W        W33849  13.368   8.737  13.653 -0.5117  0.2187  0.1378
14996W        W33850  14.807  17.607   1.201  0.0994 -0.1512 -0.0393
14997W        W33851   1.282  12.956   2.272  0.1841 -0.2813 -0.1566
14998W        W33852  15.806   5.957   2.296 -0.0624 -0.3403  0.1916
14999W        W33853   5.775  11.398   9.211 -0.2249 -0.2089  0.3443
15000W        W33854   1.335   7.998   2.460  0.0198  0.3015  0.0360
15001W        W33855   8.768  10.850  14.155 -0.0173  0.1010  0.1590
15002W        W33856   1.142   1.129   0.049 -0.1217 -0.0024 -0.0657
15003W        W33857  18.678  17.494  14.196  0.1095 -0.2931 -0.0793
15004W        W33858  17.866   8.836  14.347  0.3637  0.0991 -0.1418
15005W        W33859  15.145  11.008   3.422 -0.3354 -0.3057  0.0442
15006W        W33860   7.709  16.424   9.949 -0.0355 -0.1018  0.1204
15007W        W33861  12.310   0.409   3.434  0.0496 -0.0055 -0.2990
15008W        W33862   1.606  16.370  14.619  0.0522 -0.2355 -0.0355
15009W        W33863  19.111  18.596   3.521 -0.3414  0.1554 -0.0109
15010W        W33864  12.380   9.790   3.816  0.1116  0.0549 -0.2061
15011W        W33865   1.063   5.532   3.054 -0.2616 -0.2188 -0.1107
15012W        W33866   5.085  14.174  14.320  0.0176  0.1396 -0.1862
15013W        W33867  17.348   9.214   3.841 -0.0999  0.0388 -0.3200
15014W        W33868  17.211   7.606   2.065 -0.1764  0.1097  0.1163
15015W        W33869  18.882   9.082  12.900  0.0136 -0.0441  0.1481
15016W        W33870  13.594   7.078   2.104 -0.2001 -0.1544  0.2301
15017W        W33871  12.336   1.208  14.629 -0.4274  0.1616  0.0718
15018W        W33872  10.081  14.129   3.670  0.2600  0.2323  0.0931
15019W        W33873  16.433   6.520  13.802  0.1944 -0.0844  0.4603
15020W        W33874  18.788  18.651   2.084 -0.0947 -0.1353 -0.5877
15021W        W33875   1.795   3.633   3.692 -0.1340  0.1371 -0.1591
15022W        W33876   1.330  12.774   3.749  0.2361 -0.1807  0.0843
15023W        W33877  18.672   0.276   3.967  0.0216  0.1061 -0.1190
15024W        W33878   9.706  14.070   4.906 -0.2296 -0.2582  0.1323
15025W        W33879  15.845   2.429   9.560 -0.1186  0.0675 -0.1405
15026W        W33880  11.404  14.591  11.612 -0.0251  0.1620  0.0124
15027W        W33881  13.821  17.020   1.697 -0.0470 -0.0764 -0.1271
15028W        W33882   8.299   1.749   3.719  0.0249  0.0038  0.0461
15029W        W33883  18.413  10.880   1.021  0.0432 -0.0760  0.0757
15030W        W33884   2.946  11.795  12.410  0.2276  0.2606  0.2597
15031W        W33885   8.704   1.422   2.001 -0.0426  0.1927  0.2751
15032W        W33886  15.218   8.390  10.136  0.0404  0.1813  0.2837
15033W        W33887   5.375  14.276   0.521  0.1277 -0.0931 -0.0209
15034W        W33888  13.370  15.303   2.610  0.0020 -0.3484  0.0481
15035W        W33889   5.665   3.332  13.619  0.0744  0.1716  0.0143
15036W        W33890  10.496  14.143   5.179 -0.1946 -0.2445  0.1002
15037W        W33891   8.100   6.949   2.767 -0.2925  0.3707 -0.2280
15038W        W33892   0.474  16.962  13.808  0.1852  0.2369 -0.0832
15039W        W33893  17.739  15.015  14.673  0.0895 -0.1489 -0.0381
15040W        W33894   9.902  11.812   1.324 -0.0188  0.2005  0.0736
15041W        W33895   2.353   0.582  12.207 -0.1358 -0.0094 -0.2141
15042W        W33896  13.740  11.714   9.799 -0.1662  0.2975 -0.1781
15043W        W33897   5.792   6.649   1.396  0.0106  0.1449  0.0138
15044W        W33898   8.308   5.817   9.971 -0.1198  0.0120 -0.1217
15045W        W33899   1.554   9.600  11.998 -0.1918 -0.3011  0.2206
15046W        W33900   8.038  11.202  10.541  0.2930 -0.0607  0.1521
15047W        W33901  14.446   8.969   2.770 -0.1095  0.1557  0.3156
15048W        W33902   2.708  16.985   1.611 -0.1728  0.2937 -0.0345
15049W        W33903   0.097   3.836  14.506 -0.1115 -0.0184  0.3225
15050W        W33904   3.048   7.518   1.242  0.3361 -0.1547  0.0677
15051W        W33905   8.239  10.593   0.116 -0.0382  0.0860 -0.0504
15052W        W33906  11.712  18.732  12.405  0.0192 -0.1158  0.0696
15053W        W33907  10.562  17.585  11.328 -0.0651 -0.1031  0.1104
15054W        W33908   9.144   7.330  12.425  0.0489  0.1712 -0.0915
15055W        W33909   9.326  17.758  14.269  0.2652  0.3019  0.1250
15056W        W33910  11.279   6.356   0.245 -0.0838  0.1092 -0.2022
15057W        W33911  16.090  10.083   2.545  0.1601  0.2942 -0.2695
15058W        W33912  12.830  12.261  13.312  0.1951  0.2596  0.3326
15059W        W33913   3.522   6.957  10.704  0.0782  0.0244 -0.3272
15060W        W33914  16.026  11.060  14.278 -0.2325  0.0745 -0.2330
15061W        W33915  13.720   2.510   2.661  0.0008 -0.0242 -0.1750
15062W        W33916  18.093   4.730  12.650 -0.1012  0.3509  0.0668
15063W        W33917   3.270   6.346   1.690 -0.1857 -0.1404 -0.0112
15064W        W33918   4.466  18.391   0.327 -0.1450  0.3467 -0.1153
15065W        W33919   8.718   5.261  11.015 -0.0805  0.1028 -0.1769
15066W        W33920   5.453  13.117  11.179  0.0362 -0.2049 -0.2202
15067W        W33921   5.934   5.699   3.876 -0.1446  0.1992 -0.0804
15068W        W33922   4.492   5.541   0.920  0.2507 -0.0967 -0.0173
15069W        W33923  17.737  13.772  12.692 -0.0357 -0.0975  0.0918
15070W        W33924  16.052  11.375   2.851 -0.1226  0.0502  0.2662
15071W        W33925   7.935  14.239   3.837 -0.1223  0.4420 -0.0167
15072W        W33926   0.655   8.902   1.155  0.0067 -0.1363 -0.4457
15073W        W33927   3.497  11.626  11.807 -0.1306  0.0617  0.1785
15074W        W33928  11.200  10.748   9.412 -0.0669 -0.1114 -0.0215
15075W        W33929  13.255   7.538   3.450  0.0494 -0.0506 -0.0278
15076W        W33930   2.985  13.308  12.598 -0.1864  0.0091 -0.0171
15077W        W33931  12.221   6.346  10.920 -0.1162  0.1169  0.0407
15078W        W33932   8.631  17.398  11.882  0.4551 -0.2584 -0.0673
15079W        W33933  12.790  18.324  12.720 -0.1690 -0.0861  0.0763
15080W        W33934  15.361   6.484   3.507 -0.1135  0.0100  0.0126
15081W        W33935  13.824   8.479  13.892  0.2405  0.0344  0.2093
15082W        W33936  18.196   0.419   1.177 -0.0818  0.0519  0.2641
15083W        W33937  11.934   4.251  12.196  0.2892 -0.0850  0.0781
15084W        W33938  13.564   7.729  11.115 -0.3834 -0.1871  0.2328
15085W        W33939  19.051   1.192  12.740 -0.2490  0.2021 -0.1731
15086W        W33940  14.457  15.231  13.707  0.2443  0.1168 -0.0721
15087W        W33941  14.719  11.437   3.828  0.0874  0.4057 -0.2355
15088W        W33942  17.369   9.851  14.448  0.1576  0.1168  0.0856
15089W        W33943  13.485  12.300   0.881 -0.2179 -0.2445 -0.3129
15090W        W33944  10.578  16.462   2.432 -0.2006  0.1077  0.0482
15091W        W33945   9.997  16.109  14.664 -0.1823 -0.0818 -0.0520
15092W        W33946  14.588   6.755   3.634 -0.0982  0.0409  0.1780
15093W        W33947  18.051  14.258  13.113  0.1649 -0.2468  0.1303
15094W        W33948   1.627   9.135   1.801  0.4996 -0.1376 -0.1766
15095W        W33949   8.777   8.344   1.281  0.4327 -0.0172 -0.0222
15096W        W33950  15.131  12.164   4.908 -0.1113 -0.3273  0.1608
15097W        W33951   8.533   4.809   0.690 -0.0276  0.0168  0.1709
15098W        W33952  13.570  13.475  11.752 -0.0167 -0.1923 -0.0709
15099W        W33953   9.612  14.253   3.507  0.1250 -0.0497 -0.2486
15100W        W33954  14.250  12.635   1.950  0.0128 -0.0313  0.1069
15101W        W33955   8.512  10.488  10.300  0.1897  0.3894 -0.0403
15102W        W33956  12.377   4.498  14.547  0.0136 -0.1435 -0.2482
15103W        W33957  17.282   1.454  12.396 -0.0761  0.0741 -0.2557
15104W        W33958   0.020  11.617   0.932  0.2313  0.1977 -0.0758
15105W        W33959  14.935   9.016  11.213  0.3566 -0.1520  0.0164
15106W        W33960   5.116  14.419   3.407  0.0305 -0.0753 -0.0497
15107W        W33961   7.480   8.344  11.448 -0.1208 -0.0570 -0.1764
15108W        W33962   1.730   2.901  11.977  0.2540 -0.1730 -0.4360
15109W        W33963  10.888   9.313  10.163  0.2079  0.0604  0.1290
15110W        W33964   7.275  18.360  14.011  0.2389  0.0062  0.2270
15111W        W33965  17.531  12.579  13.545 -0.3100  0.1628  0.2778
15112W        W33966   9.863  10.882  11.038 -0.1437 -0.2100 -0.1540
15113W        W33967  10.807  16.695  13.668 -0.1575 -0.1018 -0.3363
15114W        W33968  12.870  16.126  13.022 -0.2921 -0.0871  0.5032
15115W        W33969   9.523   2.209   2.506 -0.4165  0.4373 -0.1504
15116W        W33970   7.413   1.817  14.249 -0.0758 -0.0066  0.1979
15117W        W33971   2.034  11.303  10.125 -0.0224 -0.1029  0.1290
15118W        W33972  13.664  10.272  11.381  0.1639 -0.0751  0.1341
15119W        W33973  15.795   5.326  10.625  0.2981 -0.1442  0.1103
15120W        W33974   3.340   0.617  13.820 -0.1936  0.2152  0.1807
15121W        W33975   1.062   6.341  13.882 -0.1300  0.0102  0.3004
15122W        W33976   9.462  15.951   1.626  0.0904  0.0054 -0.0028
15123W        W33977   6.464   6.083  12.483  0.1951 -0.0091 -0.0226
15124W        W33978   6.327  12.372  13.961  0.3743  0.0899  0.0714
15125W        W33979   4.495   5.711   0.085  0.1434 -0.4733  0.0532
15126W        W33980  15.736   5.042   1.392  0.2432  0.4716 -0.0912
15127W        W33981   3.395  11.215   1.170  0.1816  0.2837  0.0220
15128W        W33982   5.717   4.986  13.134 -0.0312 -0.2756 -0.0609
15129W        W33983   9.485   4.488   0.512 -0.1407 -0.1166 -0.3247
15130W        W33984  18.650  16.956  11.408  0.1267  0.0140 -0.3917
15131W        W33985   9.554   9.561  13.083 -0.2237 -0.0424  0.4704
15132W        W33986   0.737  16.067  13.473  0.1950 -0.0120 -0.1033
15133W        W33987   4.471  10.605   2.078  0.5395 -0.0391 -0.0754
15134W        W33988  18.095  10.353  13.439 -0.0931 -0.1311 -0.1480
15135W        W33989   8.093   7.224   1.233 -0.0903  0.2301  0.2324
15136W        W33990   6.688  10.807   0.019  0.2338  0.1459  0.2300
15137W        W33991  17.921   7.280  11.689 -0.0162  0.0687  0.1340
15138W        W33992   1.834   4.183  11.318  0.0148  0.0506  0.0922
15139W        W33993   6.049   8.577  11.995  0.1512  0.2087 -0.0270
15140W        W33994  10.063   8.779  10.207  0.0281  0.0279 -0.2970
15141W        W33995  18.804  11.963  13.868 -0.0515 -0.0151 -0.0439
15142W        W33996  10.550  16.179   3.522 -0.1901 -0.2279 -0.0316
15143W        W33997  14.842   7.302  11.587 -0.0433 -0.1674  0.0356
15144W        W33998  11.869   7.117  11.931 -0.0368 -0.0160  0.1159
15145W        W33999  12.702   1.265   9.998  0.0433  0.0378  0.0074
15146W        W34000   1.087  14.420  12.112 -0.1355  0.0552  0.1345
15147W        W34001   9.148  17.526  13.850  0.2743  0.1339 -0.4708
15148W        W34002   2.565  13.262  12.318  0.1601  0.2254  0.1024
15149W        W34003   8.143  15.258   3.492  0.5151  0.1172 -0.0501
15150W        W34004   6.863  19.193   0.442  0.4095  0.2380  0.0682
15151W        W34005  15.389   3.765  12.546 -0.0595  0.0325 -0.3192
15152W        W34006   9.705  18.128  12.238 -0.1119  0.0659 -0.1294
15153W        W34007   6.919  13.371   3.467 -0.1336 -0.0705  0.0429
15154W        W34008   6.569  16.085  13.716 -0.2207  0.2497 -0.0654
15155W        W34009  15.644  12.520   3.675  0.2622  0.0616  0.0069
15156W        W34010   2.830  16.237  14.112 -0.0282 -0.0881  0.2227
15157W        W34011  14.984  17.566  11.265  0.2092  0.0221 -0.0143
15158W        W34012   1.649   2.606  10.485  0.0327  0.0883  0.1879
15159W        W34013  11.209  18.612   2.894  0.2827  0.0285 -0.0218
15160W        W34014  15.535  10.132   0.529 -0.2568  0.2370 -0.1346
15161W        W34015  10.934  14.126  14.096  0.0430  0.2631  0.0201
15162W        W34016  10.402  13.836  10.630 -0.0697  0.0229 -0.2632
15163W        W34017  16.845  17.917   1.785 -0.3154 -0.1267  0.0088
15164W        W34018  15.868  18.440   5.357  0.0686  0.1335 -0.0541
15165W        W34019   1.645  14.186   3.497 -0.2564 -0.0045  0.0917
15166W        W34020  15.549  10.012  13.666 -0.4592  0.0152 -0.0819
15167W        W34021   4.453  17.919   0.036  0.2594 -0.2719 -0.0490
15168W        W34022  18.481  15.880  10.851  0.0083 -0.2268 -0.1038
15169W        W34023   2.068   4.120   0.271  0.1586 -0.3520  0.5282
15170W        W34024   4.627   7.441   0.586  0.0335  0.1182  0.1618
15171W        W34025  12.288   8.118   2.756  0.0580  0.1650  0.1518
15172W        W34026   0.929   6.188   0.539 -0.0227  0.2119  0.1974
15173W        W34027   5.216  14.998  13.764  0.1361 -0.1745  0.1067
15174W        W34028  10.289   9.471  10.963  0.0054  0.1852  0.1106
15175W        W34029  18.363  15.343   3.006 -0.0192  0.2889 -0.0078
15176W        W34030   7.892  14.003   4.291 -0.2102  0.1871 -0.0956
15177W        W34031  14.162   3.637  12.933  0.1943  0.0516  0.1523
15178W        W34032   8.506   0.438   3.000 -0.1848  0.1745 -0.0324
15179W        W34033  15.615  12.142   1.631  0.0328 -0.0694  0.1582
15180W        W34034  11.631  15.903   5.054 -0.0434 -0.1246 -0.3830
15181W        W34035  12.017   5.512   2.122 -0.2985  0.1779 -0.0719
15182W        W34036   7.252   4.772   0.530  0.0627  0.4079  0.1627
15183W        W34037   8.465  17.165  14.166 -0.1565  0.0306 -0.1845
15184W        W34038  17.626   5.483   0.499  0.1629  0.1609  0.5290
15185W        W34039   1.405  17.539   2.036 -0.0202  0.2196 -0.0027
15186W        W34040   8.676  11.061   9.037 -0.0298 -0.2207 -0.2979
15187W        W34041   5.254  18.887  12.322 -0.0823  0.0696  0.1998
15188W        W34042  18.677   4.438  12.777 -0.0370  0.1837 -0.4556
15189W        W34043   9.014   7.893  13.128 -0.2470  0.0528  0.0468
15190W        W34044  14.016   4.722  14.202 -0.1098 -0.0076 -0.3345
15191W        W34045  16.693   3.092   3.580 -0.0495  0.0766  0.4214
15192W        W34046   7.472  14.668   1.624  0.1606 -0.2224  0.1032
15193W        W34047   5.029   9.107   9.995  0.0868  0.0828 -0.0773
15194W        W34048   6.694  15.536  13.746 -0.4361  0.1359 -0.0749
15195W        W34049   3.991  14.130  12.192 -0.0410  0.2012 -0.1686
15196W        W34050  12.736  10.701  13.933  0.1516 -0.1721  0.3601
15197W        W34051   3.481  12.089   2.379 -0.0024 -0.2273  0.3272
15198W        W34052  15.364   7.370  13.291 -0.0109 -0.2329  0.0182
15199W        W34053  15.713   4.197  10.743 -0.2569  0.0373 -0.0359
15200W        W34054   5.322  17.808  13.206  0.0541  0.2248 -0.0247
15201W        W34055  16.646  18.041  11.814 -0.0189 -0.0980  0.0575
15202W        W34056   6.961   8.613  10.693  0.0010 -0.0304 -0.1989
15203W        W34057  11.405  17.636  13.028 -0.0743 -0.0257 -0.0935
15204W        W34058  15.889  17.756  13.325 -0.2164  0.1864 -0.1330
15205W        W34059  12.171  15.392   9.715 -0.1885 -0.1588 -0.0203
15206W        W34060  13.190   8.812   3.519 -0.2009  0.1103  0.0641
15207W        W34061   8.574  17.896   3.172  0.0827  0.1660  0.2534
15208W        W34062  12.504   9.501  10.843 -0.0578 -0.2746  0.0064
15209W        W34063   0.468  12.457  10.493 -0.0304  0.3077  0.0875
15210W        W34064   9.697  16.168   3.691 -0.2887  0.0631  0.0607
15211W        W34065   9.967   9.629   4.417 -0.2759  0.1417  0.1277
15212W        W34066   1.066  13.169   4.000 -0.2074 -0.1912  0.3197
15213W        W34067   6.169   8.462  14.408  0.1995 -0.2367 -0.4814
15214W        W34068  15.882   9.786   0.454 -0.1211  0.0564 -0.0033
15215W        W34069   7.840  18.563   1.107 -0.2370  0.2999 -0.3087
15216W        W34070  11.205  16.382  11.688 -0.0297  0.0306 -0.3429
15217W        W34071   6.577   1.554   3.819 -0.0534 -0.0694  0.2334
15218W        W34072   7.188  12.625   0.560  0.1587  0.0208  0.1145
15219W        W34073  13.522   2.849  12.942 -0.3128  0.3500  0.0252
15220W        W34074   3.538   9.369   1.865 -0.0166  0.2307 -0.1482
15221W        W34075  16.456   1.144  13.037 -0.0008  0.1162  0.3808
15222W        W34076  14.446   7.204   3.467 -0.0666  0.1186  0.1200
15223W        W34077   0.383   3.711   0.907  0.0917 -0.1377 -0.0784
15224W        W34078  18.750  10.267   1.915 -0.0808  0.1739  0.1972
15225W        W34079  12.082   1.049  14.183 -0.1685  0.0603 -0.2385
15226W        W34080  18.118   3.375  13.729  0.0628  0.0536  0.1465
15227W        W34081   3.969   0.313  11.547 -0.0511 -0.2968 -0.0866
15228W        W34082  13.724  10.188  10.534  0.0848 -0.1266 -0.2856
15229W        W34083  16.447   1.775   3.700 -0.0740 -0.1442 -0.1649
15230W        W34084   5.762   6.320  10.940 -0.0646  0.0511  0.2480
15231W        W34085   6.097   6.327  10.391  0.3369 -0.1135  0.0908
15232W        W34086  10.819  18.893   1.985  0.0787  0.1523  0.0353
15233W        W34087   6.475   1.307   0.978  0.2263  0.1620 -0.2527
15234W        W34088   3.371   0.045   3.212  0.1586  0.3826  0.1499
15235W        W34089   8.940   0.089  11.202 -0.1586 -0.2587 -0.2442
15236W        W34090  10.875  14.640   0.421  0.1880  0.2629 -0.2149
15237W        W34091  11.859  11.752   2.380  0.0972 -0.0425 -0.1098
15238W        W34092  15.731  18.122  11.043 -0.1294  0.2705 -0.0117
15239W        W34093   0.364   3.945  11.165 -0.0412 -0.1537  0.3809
15240W        W34094   2.592   0.022  12.436  0.3729 -0.1694 -0.0528
15241W        W34095   8.980   6.672   3.073  0.0304 -0.2174  0.2428
15242W        W34096   8.321  16.558   2.893  0.1022 -0.0672  0.0419
15243W        W34097   2.316  13.039   9.940 -0.0181 -0.3654 -0.0895
15244W        W34098   5.043   1.736   3.454  0.0384  0.1312 -0.0897
15245W        W34099   1.097   5.190   2.708  0.0104 -0.0157  0.1472
15246W        W34100   1.078   8.031   3.389 -0.1625  0.2239  0.2032
15247W        W34101   3.003  15.413  13.997 -0.0516 -0.0292 -0.0345
15248W        W34102  19.015   7.825  13.306 -0.1911  0.1869 -0.2198
15249W        W34103  12.748  14.071  13.744  0.0940 -0.0361  0.0769
15250W        W34104  13.792   1.533  13.191  0.3951  0.3383  0.3592
15251W        W34105  12.262  18.291  13.016  0.0616  0.3502 -0.3700
15252W        W34106   2.591  11.673  12.704 -0.0910  0.0789  0.1801
15253W        W34107  18.116   4.542   2.269 -0.0869  0.1356  0.4489
15254W        W34108  18.273   5.423   4.468 -0.2361  0.2249 -0.1802
15255W        W34109   4.578   7.425   3.887 -0.0779  0.0045  0.0409
15256W        W34110  18.775  15.588  13.953  0.0059  0.0156 -0.0647
15257W        W34111   7.502   3.379  10.378  0.1102 -0.0617  0.1662
15258W        W34112  13.350  12.794  12.290  0.1129  0.0795  0.0483
15259W        W34113  10.356  18.582  12.871  0.1043  0.1508  0.2218
15260W        W34114  17.068  11.320  10.027  0.2200  0.2596  0.4071
15261W        W34115  12.663   2.901  12.261 -0.1563 -0.1836  0.2791
15262W        W34116   4.367  18.594  10.002  0.0904 -0.0170  0.1472
15263W        W34117   9.406   5.423  14.028  0.0121  0.1275 -0.0689
15264W        W34118   3.320  10.037   2.818 -0.1659  0.2070  0.3565
15265W        W34119  15.931   2.434   0.236  0.2126 -0.3385  0.5074
15266W        W34120   1.503   0.612  11.309 -0.1646 -0.1389  0.0522
15267W        W34121  13.982  18.850  11.833 -0.0011  0.3107  0.1442
15268W        W34122  10.069   6.137  11.099 -0.0137  0.2007  0.0161
15269W        W34123  12.417   1.975   0.535 -0.1906  0.1797 -0.2071
15270W        W34124   3.967   5.550  12.615  0.0497  0.0421  0.0073
15271W        W34125   5.952  12.702  12.069 -0.3011 -0.5189 -0.2036
15272W        W34126  12.909  12.732  13.367 -0.0435 -0.2626  0.0915
15273W        W34127  13.476  12.365  11.996 -0.6571 -0.1578 -0.2817
15274W        W34128   4.524  10.433   0.395  0.0792 -0.4098  0.2840
15275W        W34129   4.027   5.046  10.811  0.0158  0.3046  0.4038
15276W        W34130   1.120   4.944  13.796 -0.0104  0.0680  0.4673
15277W        W34131   9.938   7.805  12.179 -0.4919 -0.0339 -0.1769
15278W        W34132  11.834   1.858   2.584  0.1208 -0.0895  0.0272
15279W        W34133   8.710   7.122  10.628 -0.4722 -0.1640  0.0497
15280W        W34134   1.699  13.760  14.547  0.0449 -0.1619  0.0452
15281W        W34135  17.504  13.212  12.926  0.0413 -0.0651  0.0877
15282W        W34136   3.441   5.076   2.343 -0.3502 -0.0012  0.3817
15283W        W34137   2.948  14.186  10.493 -0.1521  0.2564 -0.1197
15284W        W34138   7.843   9.405   2.483 -0.0154  0.3139  0.2590
15285W        W34139   9.544   8.009   3.381 -0.0046 -0.3071 -0.2756
15286W        W34140   0.529   9.006   0.207 -0.2629  0.0025  0.3814
15287W        W34141  15.008  11.821  12.596 -0.0025 -0.0435 -0.0711
15288W        W34142   1.091  13.794   1.245 -0.2330 -0.0020 -0.3449
15289W        W34143  11.498  13.354  12.890 -0.1201 -0.4811 -0.5837
15290W        W34144   8.862  18.393  12.218 -0.0816  0.1383 -0.0217
15291W        W34145   8.675  14.286  14.592  0.2719 -0.1766  0.3054
15292W        W34146  17.137  10.089   2.687  0.0744 -0.1064  0.2971
15293W        W34147   9.093  11.421  11.957 -0.1689 -0.0928  0.1287
15294W        W34148   2.821   4.837  12.935 -0.2858 -0.0309  0.0648
15295W        W34149   6.515   8.733  12.197 -0.1890  0.0301 -0.2081
15296W        W34150   2.229  16.738   9.689  0.0320  0.3643  0.0074
15297W        W34151   6.080   9.139  10.358 -0.1729  0.2020 -0.1930
15298W        W34152   6.018   2.355   0.581 -0.1513 -0.1460 -0.1884
15299W        W34153   4.973  13.337   2.710  0.2594 -0.1473  0.0562
15300W        W34154   0.260  18.238   4.311  0.0709 -0.0123 -0.0215
15301W        W34155  12.199  10.171   2.232 -0.0627 -0.0200  0.0840
15302W        W34156  12.449  14.889  14.235  0.3618 -0.2434 -0.1309
15303W        W34157  14.426   8.517  13.503 -0.0857 -0.3871 -0.1512
15304W        W34158   1.707  14.263  13.505 -0.0991  0.4919 -0.1936
15305W        W34159   3.161   7.567  13.670  0.1038  0.2182  0.0130
15306W        W34160   3.854  17.276  14.007 -0.0205  0.2116 -0.1056
15307W        W34161   8.710  16.508   3.804  0.0888 -0.0728 -0.6559
15308W        W34162  18.902  16.677  13.820  0.2725  0.1121  0.1436
15309W        W34163   5.727  18.034   1.223  0.0668  0.0702 -0.0525
15310W        W34164   2.101  14.642   0.970 -0.1989 -0.1026  0.2606
15311W        W34165  13.619  16.945  13.858 -0.2592  0.1447 -0.2244
15312W        W34166  11.718  13.899   4.467  0.2632 -0.1151 -0.1136
15313W        W34167  10.073   2.467  12.864 -0.0654 -0.0001 -0.0349
15314W        W34168   3.709  11.392  14.572 -0.0141 -0.0891 -0.1006
15315W        W34169   8.898  11.572   1.042  0.0281  0.0093 -0.0051
15316W        W34170  15.366   4.323   4.076  0.1780 -0.1381  0.0051
15317W        W34171  18.412   7.615  10.744  0.2362 -0.0191 -0.1524
15318W        W34172   3.704   3.594   3.126  0.0103 -0.0431 -0.0659
15319W        W34173   8.487  15.734  12.798  0.0245 -0.1331 -0.0121
15320W        W34174   3.562   0.209   2.527 -0.2448 -0.2400  0.4027
15321W        W34175   2.847   5.856  12.022  0.0618  0.2877 -0.1298
15322W        W34176  11.825   0.146  13.827 -0.0322  0.0054  0.1297
15323W        W34177  15.973   5.249  13.398  0.0402  0.0644 -0.3656
15324W        W34178   2.046   9.691   0.299 -0.2436  0.0644  0.1556
15325W        W34179   8.224   2.847   1.418 -0.3400  0.2280 -0.2919
15326W        W34180  14.612   0.621  13.761  0.0047  0.1926  0.1988
15327W        W34181   3.004   6.645   0.290 -0.1589 -0.1698  0.0300
15328W        W34182  12.968   7.765   2.080 -0.2773  0.1674 -0.3145
15329W        W34183   6.505  18.256   3.874  0.1733  0.2459  0.5346
15330W        W34184   6.133   1.897   1.986 -0.2431 -0.3036 -0.0467
15331W        W34185  13.653   1.478   0.176 -0.0472  0.0900  0.1180
15332W        W34186  10.718   8.762   0.601  0.2803  0.0592 -0.3839
15333W        W34187  13.261  11.534  10.004  0.0160  0.1168 -0.0432
15334W        W34188   0.731   9.137   3.463  0.1943  0.1582  0.2374
15335W        W34189  14.749   9.988   3.772  0.0104 -0.0952  0.0598
15336W        W34190  10.473  18.225  13.921 -0.0543 -0.0242 -0.0684
15337W        W34191   6.611  18.745   3.264  0.0489  0.1831  0.2263
15338W        W34192  12.008  17.739  12.825 -0.0094 -0.0945 -0.1399
15339W        W34193  13.292   6.887   4.131 -0.1246 -0.2173 -0.0531
15340W        W34194   9.912   4.344   3.032 -0.1890 -0.0649 -0.3516
15341W        W34195  11.963   1.533  11.808 -0.0676 -0.0358 -0.1863
15342W        W34196   2.307   7.631   0.649 -0.1003  0.3475 -0.0213
15343W        W34197   0.942   8.145  10.511  0.0606 -0.1155  0.1968
15344W        W34198  11.308   9.210   2.573 -0.0764  0.0783 -0.3151
15345W        W34199  13.061   6.213   0.590  0.2913 -0.2115  0.1130
15346W        W34200  10.806   1.632   3.328  0.0895  0.0336 -0.1925
15347W        W34201  16.245  16.010   3.793 -0.0168 -0.1571  0.1215
15348W        W34202   3.135   5.283  14.564 -0.0437 -0.0772  0.0061
15349W        W34203   8.589   7.820  12.253 -0.3219 -0.3066  0.0982
15350W        W34204  13.389  17.617  13.020  0.0085  0.0928  0.0077
15351W        W34205  14.612   2.100  13.263  0.0661  0.0486  0.1995
15352W        W34206  18.751  17.791   0.022 -0.2171 -0.1536  0.1064
15353W        W34207   7.699  16.326   4.253  0.2557 -0.0405  0.1993
15354W        W34208   0.326  14.953  10.978  0.1741 -0.0705  0.0302
15355W        W34209  12.591   8.513  14.069  0.1543 -0.1704  0.0329
15356W        W34210   4.209  13.717   0.575  0.0914 -0.1323 -0.0968
15357W        W34211  13.813   2.587   3.415 -0.1497 -0.0253 -0.1669
15358W        W34212   2.577  16.722   2.088 -0.0706  0.2185 -0.0376
15359W        W34213  18.855   2.746  11.631  0.1057  0.4203  0.0030
15360W        W34214  17.949   1.575  12.342 -0.3610  0.2398  0.0773
15361W        W34215   9.562  16.211  11.705  0.0189  0.0738 -0.0157
15362W        W34216   3.913   7.500   0.276  0.2438  0.1584 -0.0801
15363W        W34217   5.639   1.449   0.725 -0.2322 -0.4161  0.0685
15364W        W34218   2.468   6.049  11.660  0.1043 -0.2337 -0.1925
15365W        W34219   3.396   9.000  12.989  0.2689 -0.1405  0.1343
15366W        W34220  11.406   1.157  11.431 -0.4217 -0.1447 -0.0706
15367W        W34221   1.356  13.273  12.967 -0.0755 -0.1582  0.3178
15368W        W34222  16.088   9.723   4.098 -0.1324  0.2794  0.1130
15369W        W34223   5.843  19.142   0.905  0.0025 -0.1745  0.1514
15370W        W34224  15.389   2.259  13.033  0.3020  0.3526 -0.1011
15371W        W34225   3.924  12.374  12.919  0.2843  0.2265 -0.1741
15372W        W34226  19.017  13.948   0.764 -0.1033 -0.1647 -0.0967
15373W        W34227  14.473  15.055  12.418  0.0958  0.0892 -0.2762
15374W        W34228  18.643   9.814   4.515 -0.0479 -0.0900  0.2051
15375W        W34229   7.837  17.136   3.465  0.2026  0.1825  0.0583
15376W        W34230  18.520  12.325   1.114 -0.1219  0.1798 -0.0177
15377W        W34231   7.211  12.546  11.310 -0.1500 -0.0941 -0.1599
15378W        W34232  12.480  16.913   1.307 -0.3215  0.0935 -0.2558
15379W        W34233   9.603   7.642  12.577 -0.0460  0.0527 -0.2370
15380W        W34234   0.050   8.956   9.770  0.0830 -0.2337  0.1058
15381W        W34235   7.658   2.929   3.378 -0.2046 -0.1112 -0.2948
15382W        W34236   6.360   6.328   0.201 -0.1290  0.1435 -0.1023
15383W        W34237   5.540   7.796  12.003  0.2836  0.2429 -0.1045
15384W        W34238  14.039   2.728   0.922 -0.3087  0.0679 -0.2515
15385W        W34239  11.514   6.978   2.154  0.1268  0.0115  0.0174
15386W        W34240   4.938   2.103  13.443 -0.0245 -0.0657 -0.0408
15387W        W34241   6.448   3.786  13.855 -0.0225  0.0725  0.1856
15388W        W34242  11.500  18.827  11.121  0.0579  0.0408  0.1614
15389W        W34243  13.333  13.801   2.048  0.0631  0.1016  0.0582
15390W        W34244   9.307   4.786  12.177  0.0402  0.0078  0.2100
15391W        W34245  16.536  14.938  10.795  0.2933 -0.1767 -0.4167
15392W        W34246  11.833   4.743   3.201 -0.1253  0.2197 -0.0547
15393W        W34247   8.618   0.921   0.610  0.3007  0.1317  0.1083
15394W        W34248  17.076   1.359   4.073  0.0465 -0.0412  0.1373
15395W        W34249   8.314  16.954   0.434  0.0635  0.0359 -0.0360
15396W        W34250   2.145   5.035   0.715 -0.1541  0.1693 -0.0879
15397W        W34251   0.343  18.385  11.132 -0.0803  0.2532  0.3640
15398W        W34252   1.145   1.059  13.321 -0.1324 -0.0993  0.0323
15399W        W34253   1.231   9.303   3.484  0.0636 -0.2313 -0.0325
15400W        W34254  11.197   2.326  13.601 -0.2964  0.2633  0.0707
15401W        W34255   2.713  14.781   0.550 -0.0154  0.2383 -0.0581
15402W        W34256   1.371   2.221   3.507 -0.1377 -0.2342  0.0374
15403W        W34257   1.983  17.861   3.790  0.2645  0.3154  0.1043
15404W        W34258   2.520   0.670   0.040  0.1030  0.0822  0.1772
15405W        W34259   1.687  17.803  13.863 -0.1020  0.1092  0.0351
15406W        W34260   1.104   8.994  14.662  0.2704  0.0699 -0.2413
15407W        W34261   3.714  16.319  11.789 -0.0396 -0.3066  0.1645
15408W        W34262   9.771   1.660  12.517  0.0067  0.0481  0.0405
15409W        W34263  16.385   3.074   2.317  0.0416 -0.1166  0.0550
15410W        W34264  12.444  17.173  11.338 -0.2056 -0.1976 -0.0165
15411W        W34265  12.564  11.694  10.619 -0.0481  0.2011  0.2039
15412W        W34266  11.427   9.653   3.830 -0.4527  0.5099 -0.3294
15413W        W34267   1.528   9.455  11.455  0.4144 -0.0991  0.3921
15414W        W34268   7.082   9.023   2.346 -0.1792  0.0076  0.1888
15415W        W34269  15.056  15.357   0.337  0.3543  0.1308  0.1315
15416W        W34270  12.345  15.722  12.226 -0.0312 -0.0550 -0.0830
15417W        W34271   9.543   0.315  13.585 -0.0490 -0.1525  0.1771
15418W        W34272  10.348   0.018   3.172  0.1663 -0.0835 -0.1105
15419W        W34273   8.491  13.485  12.660  0.2029  0.3320 -0.1102
15420W        W34274  12.195   9.742   0.084 -0.1330 -0.1888 -0.0319
15421W        W34275  14.549   3.992   2.462  0.0275 -0.0153 -0.1182
15422W        W34276   1.387  13.071   3.318  0.0244  0.1434  0.1456
15423W        W34277   6.154  13.127  12.835 -0.0603 -0.3080  0.0471
15424W        W34278   7.510   9.340   1.201 -0.0362  0.0159  0.5083
15425W        W34279   5.044  15.306   4.419  0.2312 -0.1449 -0.0044
15426W        W34280   0.607   9.922  14.300  0.1373  0.2173  0.2370
15427W        W34281   0.373   3.125  14.097 -0.0126  0.2286  0.2387
15428W        W34282   5.484  11.833   0.489 -0.1779  0.0452 -0.0432
15429W        W34283   3.563   7.769  14.559  0.1855  0.1131  0.1319
15430W        W34284  11.525   6.495  11.103 -0.1361 -0.1537  0.1056
15431W        W34285  17.901   6.961  13.175  0.0986 -0.0375 -0.0795
15432W        W34286   6.681   3.910   1.889 -0.3203 -0.0253 -0.0955
15433W        W34287  18.361  12.951  13.284 -0.1382 -0.0112  0.1324
15434W        W34288  12.069   9.976  13.518 -0.0351 -0.1370 -0.2136
15435W        W34289   8.733  13.986   4.636 -0.2794 -0.1260 -0.2354
15436W        W34290  15.714   1.550  10.893  0.0965 -0.5597 -0.0483
15437W        W34291  11.706  18.392  13.728  0.0249  0.0620  0.0087
15438W        W34292  18.996  14.165   3.074  0.2302  0.2716  0.0839
15439W        W34293  15.178   2.377  14.046  0.4839 -0.0097 -0.0373
15440W        W34294   7.202   6.852   2.354 -0.1980  0.1879 -0.0302
15441W        W34295  15.748   8.506   2.421 -0.1562  0.1914 -0.4176
15442W        W34296  10.759  17.493  10.886 -0.0976  0.2129  0.0305
15443W        W34297  13.551   0.700  12.583 -0.2140 -0.0521 -0.0230
15444W        W34298  15.500  16.343  12.664  0.5218  0.2531 -0.2330
15445W        W34299   2.469   0.150   1.624  0.0374  0.2288 -0.1612
15446W        W34300  12.749   2.519  11.249 -0.1350  0.1263  0.3875
15447W        W34301   2.272   5.764   0.011  0.3882  0.0136  0.0966
15448W        W34302   3.343   7.690  12.138 -0.1112 -0.2728  0.1074
15449W        W34303  17.707  12.345   5.351  0.2523  0.1504 -0.2427
15450W        W34304   8.810   1.063   4.001 -0.3737  0.1246  0.2096
15451W        W34305   9.310   0.375   0.353 -0.0178  0.2077  0.2688
15452W        W34306  13.051   0.382   0.183  0.1151 -0.0478 -0.0130
15453W        W34307   6.472  13.585   2.545  0.0589  0.1682  0.1845
15454W        W34308  15.939  19.176  13.265 -0.0414  0.1834 -0.0461
15455W        W34309   7.893   8.845   0.276  0.0518  0.3216 -0.2168
15456W        W34310  12.313  18.236  13.879  0.0503 -0.0677  0.2740
15457W        W34311  19.070   9.717  11.704  0.0709  0.1686 -0.0766
15458W        W34312  11.177   2.469  12.828  0.2046 -0.0926 -0.0447
15459W        W34313   5.851   4.359  13.902 -0.1374  0.0728  0.2931
15460W        W34314  18.722  10.320  12.113  0.0584 -0.0043  0.0438
15461W        W34315   0.761   7.943   2.589 -0.0384 -0.1036 -0.1457
15462W        W34316   5.276   7.063  10.598  0.2547 -0.0060 -0.1032
15463W        W34317   6.896  14.622  14.230 -0.1564 -0.0171 -0.3250
15464W        W34318  15.542  18.040   2.261 -0.0750  0.1733  0.3865
15465W        W34319  11.099   8.556  12.303  0.2085  0.0070  0.3067
15466W        W34320   8.525  16.782   2.434  0.0678  0.0502  0.2996
15467W        W34321  14.757  11.036  14.644  0.2106  0.1067  0.1627
15468W        W34322  15.548   0.564   1.215 -0.0624 -0.1282 -0.2276
15469W        W34323  12.904   4.536   2.939  0.0008 -0.0815  0.0496
15470W        W34324  16.211  15.145  14.462 -0.1421  0.3298  0.1671
15471W        W34325   3.056  16.130  12.364 -0.1013  0.2457  0.0051
15472W        W34326   2.599  13.279  11.155 -0.1856 -0.0464  0.0888
15473W        W34327  17.259   4.455  13.385 -0.0434  0.0839  0.0920
15474W        W34328  10.838   9.130   2.269  0.1079 -0.1101  0.1306
15475W        W34329   8.180  16.869   4.228  0.0465  0.0896 -0.0015
15476W        W34330  17.090  18.616  11.712  0.0627  0.2146 -0.0371
15477W        W34331  10.876  14.936   1.790  0.1450 -0.0705 -0.0918
15478W        W34332  16.178  13.360  14.218 -0.0051  0.1518 -0.0671
15479W        W34333  12.887  14.309  11.247 -0.5579  0.2058 -0.0629
15480W        W34334  18.751   1.170   3.240  0.1151  0.0677  0.3290
15481W        W34335   9.879   0.265  14.137  0.2496  0.0017  0.2024
15482W        W34336   0.365   4.018   3.251  0.1353  0.0142 -0.0349
15483W        W34337  13.900   2.494   4.625  0.1768  0.0185 -0.0122
15484W        W34338   5.242   9.148  14.115 -0.0382 -0.1239 -0.1157
15485W        W34339   7.926   1.387  10.532  0.3568  0.0997 -0.1169
15486W        W34340  15.918   8.194   3.663 -0.3169 -0.0450  0.1417
15487W        W34341   9.910  14.351  13.169 -0.2310  0.0960 -0.0272
15488W        W34342   6.809  13.461   1.990  0.0182  0.1231 -0.1351
15489W        W34343   9.621   1.740   9.633  0.1947  0.2875  0.0361
15490W        W34344  17.631  13.435  13.647 -0.0930  0.2399 -0.0881
15491W        W34345  18.875   6.791   2.018 -0.0348  0.2485 -0.0211
15492W        W34346   3.772  17.155  14.469  0.0417  0.1312 -0.2352
15493W        W34347   8.712  10.219   3.623  0.4922 -0.2238 -0.1104
15494W        W34348  17.387  16.016  13.061  0.0441 -0.3629  0.0226
15495W        W34349   3.614  17.923  14.399 -0.5775  0.1977  0.2823
15496W        W34350   4.089   9.398  12.807 -0.2268 -0.2365  0.4458
15497W        W34351  14.338   6.854   4.529 -0.1121  0.1936  0.0153
15498W        W34352   2.024   8.659   3.963 -0.1231  0.1378  0.1021
15499W        W34353   7.281   5.284  12.404 -0.0211  0.0258 -0.4696
15500W        W34354   4.679  15.123  13.534 -0.3604 -0.0164  0.1483
15501W        W34355   9.702   0.636  13.217  0.1518 -0.0509 -0.0512
15502W        W34356  18.227  11.739   4.194 -0.2792 -0.0707  0.0005
15503W        W34357  17.603   6.819   1.031 -0.1633  0.0424 -0.4142
15504W        W34358  16.436  18.586   4.556 -0.1839  0.1556 -0.0359
15505W        W34359  10.886   9.913   1.876  0.1787  0.2567  0.1144
15506W        W34360   5.161   5.067  13.355 -0.0842  0.0408  0.1388
15507W        W34361  14.277   3.374  13.781 -0.1859 -0.0075  0.1724
15508W        W34362   5.194   5.264  13.994  0.4488  0.1353 -0.2134
15509W        W34363   6.242   4.240   1.908  0.0215 -0.1021  0.4022
15510W        W34364   4.442  15.466   1.056 -0.0797  0.1751 -0.1556
15511W        W34365   5.983  11.920  13.730 -0.0492  0.1459 -0.0722
15512W        W34366   1.621  11.273   2.399 -0.0270 -0.0213 -0.1995
15513W        W34367  14.801  18.179   3.619 -0.0809 -0.0773 -0.0035
15514W        W34368  13.682   9.184  13.699 -0.1118 -0.2038 -0.1280
15515W        W34369   3.189  10.652  11.849 -0.2320 -0.0380  0.0710
15516W        W34370   8.153  17.557   3.396 -0.0330 -0.0420 -0.0339
15517W        W34371  15.543   9.047   3.983  0.0450  0.2254 -0.1586
15518W        W34372   0.716   9.461   0.015 -0.1848  0.1440 -0.4706
15519W        W34373  19.037  11.883   0.518 -0.0991  0.0979 -0.5235
15520W        W34374   8.808   1.857   3.654  0.3817 -0.0996  0.2482
15521W        W34375   7.221   0.333   4.837 -0.2417  0.0390  0.1535
15522W        W34376   1.118   9.664   4.305  0.0110  0.1321 -0.2421
15523W        W34377  18.553   4.012  12.505  0.0259 -0.0063 -0.3588
15524W        W34378  11.903  12.115  14.320 -0.0516  0.0373 -0.1366
15525W        W34379  15.190  13.157   0.855  0.1679 -0.2662  0.0784
15526W        W34380   4.268   7.735  14.692 -0.1639 -0.2638  0.0922
15527W        W34381  16.076   3.444  14.170  0.2382 -0.1241  0.1458
15528W        W34382   1.233  15.376  10.121 -0.2746  0.2528  0.1103
15529W        W34383   4.959   0.668   1.622 -0.1371 -0.1605  0.1126
15530W        W34384  18.999   9.313   0.640 -0.2154 -0.0648  0.1036
15531W        W34385   8.849   9.162  10.093 -0.0435 -0.0582  0.0813
15532W        W34386  11.674  16.298   1.575  0.0471 -0.4235 -0.1114
15533W        W34387  17.794   1.760   1.441  0.1800  0.3669 -0.0287
15534W        W34388   7.235   1.410  14.030 -0.1029  0.0441 -0.1758
15535W        W34389   0.728  18.912   1.304 -0.1627 -0.2139  0.3328
15536W        W34390   7.209  13.267  13.397 -0.0267 -0.1241 -0.2540
15537W        W34391   8.694   2.015  14.718 -0.1043  0.0724 -0.1486
15538W        W34392  13.796   3.138  14.631 -0.1849  0.0908 -0.1101
15539W        W34393   9.577  15.636  13.658  0.0009  0.1442 -0.1459
15540W        W34394   2.830  15.150  12.614 -0.0219 -0.1733 -0.1167
15541W        W34395  13.052  11.328  13.409 -0.2285 -0.2666  0.2355
15542W        W34396  17.315   1.401  13.155  0.1027 -0.1317 -0.2012
15543W        W34397   8.291   6.413   0.571 -0.2233 -0.0701  0.0950
15544W        W34398   0.397   7.647   1.849  0.0955 -0.1919 -0.1622
15545W        W34399   0.613  16.151   0.159 -0.0386 -0.3865  0.0076
15546W        W34400  11.281   2.691   0.560 -0.5031  0.0591  0.0407
15547W        W34401   7.600   2.806   0.232  0.4098  0.1383  0.2138
15548W        W34402  14.972   7.991  13.756 -0.1360 -0.0301 -0.0063
15549W        W34403   8.821   3.290   0.374  0.0729 -0.2952  0.0918
15550W        W34404  19.187  11.363  11.272 -0.4372 -0.1008 -0.0214
15551W        W34405  11.961  17.932  13.656  0.0895 -0.0548 -0.0404
15552W        W34406   7.126   3.967  12.328  0.1855  0.2482 -0.0614
15553W        W34407   8.311   6.353   3.514 -0.1389  0.1916 -0.2538
15554W        W34408   3.229  10.324  12.213  0.3197 -0.0617 -0.1208
15555W        W34409   7.139   2.257   0.943  0.0281 -0.0452 -0.2213
15556W        W34410  19.062  14.867   0.617  0.2149 -0.0577  0.2406
15557W        W34411   3.291  11.359  13.634 -0.2410  0.1072 -0.2017
15558W        W34412   8.193  10.535  12.750  0.3210 -0.4698  0.3253
15559W        W34413  13.791  14.201  12.782 -0.0755  0.1740 -0.0363
15560W        W34414   3.064  18.472   2.343  0.1746 -0.3239  0.0566
15561W        W34415  11.723  10.515   3.483 -0.0790 -0.1274 -0.1634
15562W        W34416  10.490  10.022   3.866  0.1847 -0.1787  0.0739
15563W        W34417  12.797   3.535  13.040  0.0321 -0.0322  0.1976
15564W        W34418   4.053   6.649   3.654  0.0866 -0.1931  0.1195
15565W        W34419   3.797   7.838  10.479  0.1316 -0.0869  0.1054
15566W        W34420   5.656   8.805  13.940  0.1669  0.1545  0.0724
15567W        W34421   2.226  16.677   0.721 -0.0493 -0.2549 -0.0521
15568W        W34422   8.784  18.736  11.290  0.3786 -0.2574 -0.1013
15569W        W34423  17.098  17.371   0.452 -0.0181  0.1699 -0.1622
15570W        W34424   7.231   2.667   3.890 -0.0694 -0.3321 -0.1199
15571W        W34425   6.274  18.590  14.088 -0.0042  0.0085  0.1194
15572W        W34426   4.477   5.095   5.513 -0.0479 -0.0935  0.1179
15573W        W34427  10.790  12.053   1.277  0.0422  0.4999 -0.3112
15574W        W34428  12.406  10.008  10.656  0.0148  0.0144 -0.0335
15575W        W34429  12.153  10.665  13.933  0.0483 -0.0673 -0.1700
15576W        W34430   6.477   5.961  13.985 -0.0590 -0.0546 -0.1360
15577W        W34431  10.155  14.119   4.720  0.1942 -0.0105 -0.2217
15578W        W34432  14.918   5.225  12.373  0.0231 -0.2333  0.0110
15579W        W34433   9.870   3.066  12.022  0.1971 -0.2081  0.0067
15580W        W34434  11.847   2.267  12.368  0.4733  0.2167 -0.1629
15581W        W34435  11.998  14.575   2.527  0.0452 -0.1642 -0.0965
15582W        W34436  15.383   4.642  11.680  0.0036 -0.1295 -0.2996
15583W        W34437  16.908   4.829   2.756  0.1385  0.2045  0.0999
15584W        W34438   2.302  15.550   0.399  0.3732 -0.4854  0.1153
15585W        W34439   9.722  12.759  13.670  0.0885  0.1755  0.1376
15586W        W34440   6.781   1.174   1.698  0.0702  0.0629  0.4963
15587W        W34441   7.002   9.584  12.155 -0.0204 -0.1609 -0.0904
15588W        W34442   0.230  19.155  12.647  0.1911 -0.2247  0.2038
15589W        W34443  16.376   7.027   5.132  0.1572 -0.5102  0.1322
15590W        W34444  15.126  17.802   2.216 -0.1416  0.0436  0.0933
15591W        W34445  19.135  18.785  12.908 -0.0568  0.1500  0.2330
15592W        W34446  13.028  16.007   2.313 -0.1478  0.0081 -0.2862
15593W        W34447  13.639   4.395   2.938 -0.0327 -0.0853  0.1756
15594W        W34448  16.786   6.724  11.241  0.0279 -0.0789  0.2198
15595W        W34449  12.881   1.867  13.882 -0.2887  0.0047  0.0582
15596W        W34450  10.921  11.240   0.394  0.1097 -0.0264  0.0552
15597W        W34451  13.741  11.600  10.320  0.1838  0.0766 -0.0115
15598W        W34452   6.428  18.156  10.858 -0.0289 -0.3227 -0.1328
15599W        W34453  18.129  10.789   3.775 -0.3350 -0.2179 -0.3625
15600W        W34454  12.392   7.918  14.363  0.0428 -0.0801  0.0465
15601W        W34455  18.607   1.191   1.709 -0.2356  0.2604  0.0154
15602W        W34456  17.601   5.583   1.809  0.1446 -0.0851  0.2026
15603W        W34457   1.132   5.060   2.245  0.0401 -0.0184  0.0928
15604W        W34458  17.821   2.333  14.600  0.0733  0.1257  0.0568
15605W        W34459   7.879   6.750  13.918  0.0099  0.4412 -0.2309
15606W        W34460  17.322  15.919  12.510 -0.0953  0.1900 -0.3611
15607W        W34461  12.151  18.892   0.217  0.2891 -0.0490 -0.0929
15608W        W34462   6.918   0.933   5.020  0.0582 -0.0155 -0.1071
15609W        W34463  15.490   1.889   3.657 -0.3368 -0.1885  0.1850
15610W        W34464  10.614   9.676   1.024 -0.0798 -0.0626  0.1160
15611W        W34465   2.553   6.673  13.860  0.1857  0.0859  0.1023
15612W        W34466   5.821   7.667  13.860 -0.2359 -0.1428  0.1980
15613W        W34467  10.220  18.480  11.544 -0.0504  0.1823  0.1383
15614W        W34468   1.956  16.463  14.105  0.1898  0.1972 -0.1624
15615W        W34469   0.787  17.524   1.875 -0.2450 -0.2165  0.3721
15616W        W34470   5.895  11.727  12.368  0.4125  0.0736 -0.1004
15617W        W34471  10.025   9.740  13.296  0.1681 -0.1599 -0.1356
15618W        W34472   6.348  11.319  11.610 -0.0452 -0.0732 -0.0396
15619W        W34473   5.203  14.611  12.802  0.1653 -0.3594  0.0506
15620W        W34474  14.688  10.518  13.850 -0.0709 -0.2733  0.3319
15621W        W34475   3.423  17.104  13.678  0.0888 -0.0268 -0.0308
15622W        W34476  14.817   4.339   2.034 -0.2634  0.0495  0.3774
15623W        W34477  13.785   4.662   0.917  0.0552 -0.0135 -0.0555
15624W        W34478  17.319   1.979  12.653  0.0780 -0.0605 -0.0843
15625W        W34479  17.321  17.494   3.547 -0.0106 -0.1032 -0.2406
15626W        W34480   4.305  13.832  11.833  0.1618  0.1547  0.2475
15627W        W34481  10.314   1.669   2.164 -0.1359 -0.1657  0.0780
15628W        W34482  16.885  18.225   0.910 -0.1448 -0.0848  0.3529
15629W        W34483  14.244   4.433   0.814  0.1674 -0.0048  0.1898
15630W        W34484   3.657   9.339   0.362 -0.0355 -0.0808 -0.5123
15631W        W34485   9.447   3.730  13.479 -0.2173  0.1134  0.0982
15632W        W34486   8.657  17.074   4.087  0.2780 -0.1898 -0.0544
15633W        W34487   0.910   8.797   9.692  0.0840  0.1432  0.0323
15634W        W34488  12.473   1.067  13.713 -0.0901  0.2225 -0.0314
15635W        W34489   6.752  15.630   1.800 -0.2149 -0.2378  0.1346
15636W        W34490   8.544  15.503   1.489  0.1176 -0.2685 -0.1162
15637W        W34491  17.208  11.099  14.155 -0.0985 -0.1512  0.0700
15638W        W34492   6.315  16.793   3.941 -0.3352 -0.1867 -0.0782
15639W        W34493   2.130   8.366  13.385 -0.0104 -0.5971  0.1592
15640W        W34494   2.587  14.136  13.578 -0.1947  0.0583 -0.1504
15641W        W34495   4.458  16.239  11.927  0.0795 -0.3939  0.1449
15642W        W34496   9.456  19.027  14.403  0.1286 -0.2542 -0.1378
15643W        W34497  11.475  12.726  13.713  0.2175  0.0815 -0.1247
15644W        W34498   9.359   2.870  11.959 -0.2325  0.1336 -0.1171
15645W        W34499   5.562  17.441  14.057 -0.0884 -0.1279  0.1627
15646W        W34500   9.585  17.935  14.690 -0.1684 -0.1947  0.1651
15647W        W34501  14.313   7.596   0.971  0.1737 -0.2071 -0.0736
15648W        W34502   7.379   8.867   2.895  0.0456 -0.0761 -0.0876
15649W        W34503  12.412  11.153  14.610  0.1061  0.0837 -0.0161
15650W        W34504   4.560   2.870  12.261 -0.2846  0.1999  0.0618
15651W        W34505   2.410  10.337   1.923  0.0928 -0.4583 -0.1491
15652W        W34506   4.938   0.360  12.016  0.0177 -0.0446  0.0179
15653W        W34507  12.035  18.692  11.000 -0.3949  0.2213 -0.1523
15654W        W34508  11.700   8.954  13.193  0.2060  0.0126 -0.0526
15655W        W34509   1.136  12.708   4.325  0.2633 -0.0611 -0.1713
15656W        W34510  17.512   7.415   9.939 -0.2087  0.0259 -0.3725
15657W        W34511  10.276   1.631  14.388  0.1049 -0.2783  0.1253
15658W        W34512   0.914   8.688   3.219 -0.3005 -0.3624  0.1344
15659W        W34513   1.550   7.660  13.785  0.0115  0.0209  0.1925
15660W        W34514   5.885  14.083  11.598  0.1078  0.0698  0.3857
15661W        W34515   8.418  18.099  12.338  0.2879 -0.0833  0.2428
15662W        W34516   6.701   6.421   0.973 -0.1283  0.2706  0.2321
15663W        W34517  15.665   5.486  14.396  0.0792  0.3500  0.0653
15664W        W34518  17.914   4.111  13.844  0.5065  0.0445 -0.0066
15665W        W34519  18.916  19.179  10.852 -0.0741  0.1895 -0.2764
15666W        W34520  16.519  17.744  11.416  0.0540  0.0424 -0.0201
15667W        W34521  18.372  15.629   1.843  0.0423 -0.0658  0.0514
15668W        W34522   2.895  11.283  14.371  0.1485 -0.0243  0.0815
15669W        W34523   4.123  17.419   1.177 -0.3852  0.0485 -0.1025
15670W        W34524  17.095  16.411   1.453 -0.1049  0.0031 -0.1250
15671W        W34525   9.655   1.631  10.630  0.1945 -0.2246 -0.1093
15672W        W34526  11.131   5.187  13.539 -0.2075 -0.3185  0.0953
15673W        W34527   9.696  10.129   3.053  0.2213 -0.2735 -0.0290
15674W        W34528   3.770  16.171   9.756  0.2958  0.3184  0.1024
15675W        W34529  14.336   7.683   9.820  0.1343  0.2155 -0.2852
15676W        W34530  18.169   2.385  11.747  0.1060  0.0151 -0.0295
15677W        W34531   2.029   2.817  11.395 -0.0880 -0.2413 -0.0699
15678W        W34532  15.474  18.812  11.228  0.0875 -0.0663  0.1232
15679W        W34533  17.196   2.527   3.659  0.1906  0.0351 -0.1448
15680W        W34534   9.697  10.034   1.139  0.0986  0.0031  0.0339
15681W        W34535   2.106  13.862   3.282 -0.3639 -0.0510  0.0699
15682W        W34536   8.285   1.338   4.698 -0.3525 -0.2130 -0.4476
15683W        W34537  10.989   1.733  12.649  0.0700 -0.2000 -0.0243
15684W        W34538   1.178   6.798   2.018 -0.1655  0.0135  0.3116
15685W        W34539   8.486  16.492   1.117 -0.2091 -0.0163 -0.1759
15686W        W34540   3.075  18.351   3.388  0.0269  0.0640  0.2006
15687W        W34541   6.244   2.852   2.176  0.0234  0.1506  0.0732
15688W        W34542  14.256  14.710  11.723  0.0956  0.3497  0.1018
15689W        W34543  19.037   9.125   1.189  0.1198  0.2645  0.2158
15690W        W34544   3.458  13.874   3.326 -0.1315  0.2116 -0.0036
15691W        W34545  15.876   1.951   0.255  0.1549 -0.2222 -0.0822
15692W        W34546   9.721   1.063  11.254 -0.2298 -0.2649  0.2293
15693W        W34547  12.474  12.218  11.430  0.0470  0.1872  0.1493
15694W        W34548   8.076  14.952   3.881 -0.0184 -0.2149 -0.0006
15695W        W34549  12.362  15.626  11.600 -0.2736 -0.1762 -0.0400
15696W        W34550  18.940   7.371  12.517 -0.1560 -0.3543 -0.2836
15697W        W34551  10.836   3.329  11.298 -0.1884  0.1864  0.0183
15698W        W34552  10.654   0.443   3.330  0.0965  0.1873 -0.2518
15699W        W34553  16.908   8.807  14.065 -0.1198 -0.1518 -0.2466
15700W        W34554   4.318  12.827  11.301  0.0048  0.2413 -0.2638
15701W        W34555   9.643  12.653  11.753 -0.1730  0.1128 -0.3040
15702W        W34556   1.479   6.248  11.911 -0.1382 -0.0842  0.2908
15703W        W34557   4.200  18.263   4.050 -0.2505  0.0178 -0.2830
15704W        W34558  16.628   1.435   4.066  0.1632 -0.0650  0.1035
15705W        W34559  14.587  12.238   0.050  0.0191 -0.1921  0.0213
15706W        W34560   4.336   5.047   4.123 -0.5069  0.2341  0.0535
15707W        W34561   2.116  17.642   2.116 -0.0821 -0.0928 -0.0261
15708W        W34562  15.710   3.740  11.742 -0.0212  0.1205 -0.3538
15709W        W34563  17.832   1.370   1.719 -0.2229  0.1839 -0.1901
15710W        W34564  19.146   1.601   0.504 -0.3296  0.1822 -0.0183
15711W        W34565  15.173   6.993  13.766 -0.1628  0.2607 -0.0962
15712W        W34566   4.594   0.705  12.027 -0.2111 -0.2502 -0.0093
15713W        W34567   9.314   7.406  14.297  0.2373 -0.1152  0.2029
15714W        W34568   9.280  12.243   0.945  0.0181 -0.0475  0.1391
15715W        W34569  19.128  16.309   0.770  0.2455  0.1490 -0.0593
15716W        W34570   9.831  13.451   4.186 -0.0998 -0.0788  0.2173
15717W        W34571  11.636   8.731  14.039  0.0547  0.0890 -0.1970
15718W        W34572   2.854  17.109   2.519  0.0112  0.1340 -0.1381
15719W        W34573  10.463   5.360   9.927  0.3459 -0.1299 -0.0658
15720W        W34574  11.968  18.509   1.481  0.3967  0.1733 -0.2024
15721W        W34575   2.340   0.044  10.389 -0.0266 -0.1391 -0.4828
15722W        W34576  16.854   3.642   4.787  0.0514  0.1744  0.0836
15723W        W34577   2.414  17.135   0.299  0.1248  0.1762  0.0582
15724W        W34578  14.537   3.991   0.914 -0.2635 -0.1892  0.1891
15725W        W34579  14.944   4.924   1.262  0.1754 -0.1915 -0.0979
15726W        W34580  17.529   0.435   4.099 -0.0702 -0.3271 -0.0279
15727W        W34581   8.131   8.126   0.925  0.2544 -0.1299 -0.0360
15728W        W34582   7.018   0.645   4.247 -0.1850  0.0413 -0.3031
15729W        W34583   9.808   5.196  14.734 -0.0396 -0.0996  0.1611
15730W        W34584   2.773   0.607  13.583 -0.0589 -0.0012 -0.0475
15731W        W34585   2.237   5.547   0.854  0.0142 -0.0293  0.1774
15732W        W34586   7.489   3.091  13.240 -0.0382  0.0361 -0.1384
15733W        W34587   9.152   4.610  14.077  0.1823 -0.2593 -0.1537
15734W        W34588  13.609  11.941  11.706  0.1314  0.1502  0.0102
15735W        W34589   4.335  13.666   4.415 -0.3302  0.0840 -0.2254
15736W        W34590   8.210  13.145   3.140 -0.0297  0.0993 -0.2923
15737W        W34591   0.697  10.862  11.628  0.1999  0.0402 -0.3269
15738W        W34592  12.672   8.935  10.248  0.1003  0.1809  0.0280
15739W        W34593   5.380   5.902   3.796  0.1507  0.3472 -0.0658
15740W        W34594   2.187   4.261   4.925 -0.0193 -0.1114 -0.0799
15741W        W34595   5.391  13.415   0.623  0.2883 -0.1655 -0.0914
15742W        W34596   3.130  15.000  13.636 -0.1373 -0.2161 -0.0843
15743W        W34597  18.116   7.755  11.594  0.0973 -0.0303  0.0788
15744W        W34598   8.270  17.463   0.411 -0.0714 -0.4459  0.0001
15745W        W34599   3.929  12.814   1.191 -0.3214  0.0347  0.2378
15746W        W34600  17.737  17.442   1.701  0.1685 -0.0581  0.2418
15747W        W34601  10.441   5.592  12.154 -0.0183  0.0607 -0.0194
15748W        W34602  18.148   5.081   2.311  0.0135 -0.0638 -0.1062
15749W        W34603  13.101  18.768  14.007  0.1312  0.2764 -0.1346
15750W        W34604  18.364   6.762  14.517 -0.0730  0.3747 -0.1778
15751W        W34605   1.742   5.692   2.106  0.0718 -0.0841 -0.0029
15752W        W34606  12.199   9.498  13.830 -0.0087  0.3641 -0.2313
15753W        W34607  17.580  14.956  11.625  0.2336 -0.2006 -0.1324
15754W        W34608   2.432  12.049  14.466 -0.0036  0.2074 -0.2803
15755W        W34609  17.794   1.720   3.298 -0.1248  0.1618  0.1251
15756W        W34610   5.772  10.695   4.491 -0.0140 -0.1089 -0.0680
15757W        W34611  14.502  12.099  11.564 -0.1519  0.0428  0.0822
15758W        W34612  10.801  18.118   0.829  0.2002 -0.4101  0.1211
15759W        W34613  15.086  16.440   1.319  0.2232  0.1910  0.0734
15760W        W34614  13.107   7.829  11.362 -0.1731  0.0565  0.0299
15761W        W34615   8.728   4.797  11.454  0.1278  0.4921 -0.0140
15762W        W34616  14.483   3.383  12.482  0.0816  0.1488 -0.1184
15763W        W34617   2.294  14.796   3.648  0.0045 -0.1152  0.0795
15764W        W34618  13.866  10.038  11.014 -0.0769  0.1108 -0.2658
15765W        W34619  18.677  10.682   0.481 -0.2364 -0.0351 -0.0123
15766W        W34620  11.638  17.597  14.372  0.1144 -0.0211 -0.5171
15767W        W34621   2.547  13.300  14.170 -0.2196  0.3388 -0.0925
15768W        W34622  16.432  16.205  11.518  0.0210  0.3623 -0.1457
15769W        W34623  17.086   1.949  14.392  0.2314  0.1407 -0.2555
15770W        W34624   8.222  15.125   1.536  0.0774 -0.0536  0.0003
15771W        W34625   5.273   2.440  13.214  0.1390 -0.0146 -0.1048
15772W        W34626  12.700   0.824  11.806  0.1820  0.1973  0.3064
15773W        W34627  11.769   8.594   2.115  0.1403 -0.3560  0.1727
15774W        W34628  15.572   6.604   3.054  0.2386 -0.3112 -0.1830
15775W        W34629  14.892  15.353  13.465  0.0719  0.0724  0.2243
15776W        W34630  14.692   3.044  11.224  0.2980 -0.4070 -0.1400
15777W        W34631   5.446  10.293  14.198 -0.1522  0.2521  0.1137
15778W        W34632   0.349  16.352  10.157 -0.0127  0.1340 -0.0217
15779W        W34633   4.181   2.367  11.439 -0.0768  0.4350 -0.1433
15780W        W34634   6.301  11.161   3.735 -0.0950 -0.2494  0.0260
15781W        W34635   4.448  11.399  13.556  0.4329 -0.1395  0.2820
15782W        W34636   1.278  18.479   9.576  0.0315  0.2451 -0.4203
15783W        W34637   6.596  13.097   2.479 -0.0376 -0.1529 -0.0696
15784W        W34638  17.069   4.867   1.508 -0.1425 -0.1523 -0.0045
15785W        W34639  18.075  19.106   1.317 -0.0578 -0.0785  0.1589
15786W        W34640  10.428  13.420  12.529 -0.0587  0.0500  0.2019
15787W        W34641   7.305  10.863  13.060 -0.0411  0.0356 -0.0958
15788W        W34642  18.044   9.441  13.916 -0.1618  0.0783 -0.0616
15789W        W34643   6.023   7.303   1.839  0.2104 -0.0487  0.0036
15790W        W34644  15.061  12.904   1.772  0.0750  0.4029 -0.2513
15791W        W34645  14.196  14.056   0.884  0.3177  0.2929 -0.1049
15792W        W34646   2.206  14.493   1.812 -0.0123 -0.2558  0.0451
15793W        W34647  11.062   4.999   3.637 -0.0957 -0.0059  0.0670
15794W        W34648  10.039  16.378  11.213 -0.1065  0.0901  0.3651
15795W        W34649   2.666  10.574   2.424 -0.2622 -0.0612  0.4427
15796W        W34650   1.672  17.301  14.237 -0.1984  0.3396  0.1862
15797W        W34651   5.395   4.809  14.597 -0.1232  0.1893  0.3667
15798W        W34652  11.744  16.580  13.091  0.1364  0.1359  0.0302
15799W        W34653  15.391  17.043   2.475 -0.0038  0.0704  0.1193
15800W        W34654   9.135   8.640  13.664  0.1682 -0.0404 -0.1353
15801W        W34655  14.535  14.078  11.584  0.0206 -0.1566  0.0251
15802W        W34656  17.540  13.258   0.807 -0.0365  0.0563 -0.0700
15803W        W34657   2.196  13.424  13.628  0.0922  0.0273  0.2975
15804W        W34658  12.419  17.428   1.883 -0.1447 -0.2541  0.0236
15805W        W34659  15.047  10.923  10.603  0.2882  0.1845 -0.2956
15806W        W34660   3.815   8.507  14.438 -0.1011 -0.1198 -0.0025
15807W        W34661  12.018   9.805  10.409 -0.5116  0.2287 -0.0577
15808W        W34662  13.146  13.398   3.408 -0.0800 -0.0801 -0.2931
15809W        W34663   6.838   9.720  11.653  0.0166 -0.0957  0.2279
15810W        W34664   3.553   8.603  10.560 -0.1030  0.1813  0.4740
15811W        W34665   3.467  13.472  13.348  0.1014 -0.1297  0.0889
15812W        W34666   9.562   7.172  12.632  0.2562 -0.2005  0.3346
15813W        W34667   6.009   8.453  10.544  0.2096 -0.0211  0.0636
15814W        W34668   2.485   9.219   4.071  0.1579  0.1032 -0.0885
15815W        W34669  10.213   9.627   0.386  0.1788  0.1954  0.0441
15816W        W34670   0.047  16.344   9.642  0.0957  0.2016  0.2768
15817W        W34671   9.644  10.350   0.007 -0.2001 -0.0026 -0.1588
15818W        W34672   1.757   0.002   3.976  0.0454  0.0797 -0.0583
15819W        W34673  17.426  13.372   4.629  0.1019  0.0728  0.0394
15820W        W34674  16.493   7.446   4.208  0.2963  0.0780 -0.0302
15821W        W34675   1.595  14.790  13.254  0.1049  0.0430 -0.1288
15822W        W34676   4.332  12.403   1.291  0.3457  0.0947  0.0023
15823W        W34677   6.924  14.932  14.601 -0.1473 -0.0068  0.0399
15824W        W34678  14.633   2.600  11.437 -0.1314  0.0524  0.3366
15825W        W34679  14.737   0.537   0.622  0.2105 -0.1344 -0.0512
15826W        W34680  10.977   1.450  13.081  0.3754  0.2167 -0.1259
15827W        W34681   4.482  15.615   2.039  0.3968 -0.1076  0.0277
15828W        W34682   7.436  11.952  13.581  0.1368  0.0673  0.2060
15829W        W34683  11.107  14.237  12.640  0.0779  0.1045 -0.0532
15830W        W34684   6.583   3.091   0.626  0.0674 -0.0080 -0.0529
15831W        W34685   0.446   1.493  11.829 -0.2158  0.0171 -0.2912
15832W        W34686   0.380  17.207  12.781 -0.1848  0.0288  0.0726
15833W        W34687   9.188   9.641  11.649  0.2743  0.1293 -0.2800
15834W        W34688  13.668   2.242  12.446 -0.3199  0.1324 -0.2795
15835W        W34689  13.634   5.144  10.335 -0.0088  0.0342 -0.1234
15836W        W34690  10.979   2.640   5.160 -0.1905  0.1978  0.0766
15837W        W34691  14.504  17.460   3.712  0.0516 -0.2327 -0.0190
15838W        W34692  15.449   8.031  14.283 -0.5460 -0.1918  0.0101
15839W        W34693  10.815   9.211   0.347  0.0014 -0.0322  0.3248
15840W        W34694   3.059   8.972   2.779 -0.2314  0.0614 -0.2897
15841W        W34695  11.058   4.073  13.781 -0.5103 -0.0370  0.0480
15842W        W34696  18.642  15.580  11.714  0.2847  0.0519 -0.1348
15843W        W34697   3.640  14.648  12.615  0.1152  0.2668  0.2303
15844W        W34698  18.594   8.857   1.671  0.1079  0.1325 -0.0020
15845W        W34699   0.666   9.817   4.087 -0.1991  0.0272 -0.2002
15846W        W34700  16.108   0.432   3.225  0.0715  0.0843 -0.1064
15847W        W34701   1.062  16.765  13.096  0.0476  0.4866 -0.3534
15848W        W34702  12.641   5.089   0.476  0.0654  0.2040  0.1321
15849W        W34703   2.846   0.975   0.301  0.0061 -0.3113 -0.3298
15850W        W34704   4.769  11.944  12.132 -0.2677 -0.0578  0.1900
15851W        W34705  14.232  12.106  14.297  0.1612 -0.1959 -0.0107
15852W        W34706   6.980  13.608   0.481 -0.1286 -0.1334  0.0793
15853W        W34707   7.991  15.602  13.855  0.3821  0.0009 -0.1152
15854W        W34708   4.585  12.328  10.608 -0.2453  0.1648  0.0070
15855W        W34709   1.913  17.039   3.357 -0.0081 -0.0046 -0.0318
15856W        W34710   5.361   2.369  11.926 -0.0779 -0.2539 -0.1398
15857W        W34711  15.901  10.083  14.731  0.1341  0.2545  0.0959
15858W        W34712   0.941  17.849  12.234 -0.1555 -0.1772 -0.0830
15859W        W34713  12.050   0.889  13.696  0.0930 -0.0141 -0.2149
15860W        W34714   9.497   5.108   1.809 -0.0007 -0.1227 -0.0935
15861W        W34715  12.100   0.660  12.597 -0.2339  0.1940 -0.2110
15862W        W34716   6.573  11.998  11.831 -0.1090 -0.0905  0.4248
15863W        W34717  18.350  13.581   4.466 -0.4285 -0.0644  0.0081
15864W        W34718  15.261   3.004   2.898  0.3262 -0.1408  0.1747
15865W        W34719   3.756   6.980   2.881 -0.0139 -0.0861 -0.0916
15866W        W34720  10.444   3.824   1.447  0.3360 -0.1147 -0.0129
15867W        W34721   2.446   6.870  12.270  0.0097  0.2150 -0.0721
15868W        W34722  16.123   8.738   0.190 -0.0641  0.1761  0.0095
15869W        W34723   5.860  12.056   2.881 -0.1702  0.0849 -0.2164
15870W        W34724  13.314   5.312  10.655  0.0127 -0.1439  0.2255
15871W        W34725   4.391   4.098   1.767 -0.3603 -0.0356 -0.0157
15872W        W34726  15.729   8.806   1.592  0.4641  0.2126 -0.1730
15873W        W34727   1.349   6.987  11.201 -0.1208  0.0975 -0.0456
15874W        W34728  18.511   6.483  12.691  0.1809 -0.0654  0.2313
15875W        W34729  15.019   4.121  12.349  0.1060 -0.1102 -0.1924
15876W        W34730   9.228  15.234  12.184 -0.0969  0.2627 -0.0131
15877W        W34731   9.765   6.519  10.597 -0.1292 -0.1660 -0.1849
15878W        W34732   8.748   4.448   3.784 -0.0574  0.2415 -0.4498
15879W        W34733  19.020  12.530  11.892  0.0422 -0.3477  0.0972
15880W        W34734  10.813   5.484   4.224 -0.1257  0.0034  0.0192
15881W        W34735  13.163   1.734   0.912 -0.3768  0.1662  0.1701
15882W        W34736  14.583   2.249  11.976 -0.1733  0.0090 -0.0523
15883W        W34737  10.354   1.120   0.391  0.3845 -0.1541 -0.2366
15884W        W34738  14.440  15.084   3.384  0.3153 -0.0827  0.0213
15885W        W34739   0.101  13.025  14.645  0.2449  0.1633  0.1182
15886W        W34740  13.334  12.370   1.378  0.1967 -0.0326  0.2628
15887W        W34741   5.760   9.275  14.093  0.0195  0.0679 -0.2938
15888W        W34742  15.946   8.081  12.400  0.2552 -0.2636  0.1180
15889W        W34743  17.488   4.691  10.402 -0.0734  0.0684 -0.0084
15890W        W34744   1.554   3.780   1.695 -0.1154 -0.1635  0.1423
15891W        W34745  10.732   9.597   4.691 -0.0129 -0.1789 -0.0575
15892W        W34746  13.685  13.611   0.555  0.0569 -0.2130  0.0834
15893W        W34747   7.511   8.737   0.624  0.2406 -0.2224 -0.1960
15894W        W34748  14.061   7.482  10.849  0.5112 -0.1083  0.0742
15895W        W34749  13.293  10.475   0.991  0.2490 -0.1256 -0.3177
15896W        W34750  10.714  13.574   1.823  0.1608  0.1559  0.2775
15897W        W34751  11.808   6.516   1.338 -0.3566 -0.0707  0.1926
15898W        W34752   6.488  16.923   1.039  0.1081  0.3103 -0.3264
15899W        W34753  16.793  18.649   1.205  0.0669 -0.1276  0.0553
15900W        W34754  17.682   4.895   3.936  0.1092  0.0585 -0.3758
15901W        W34755   1.615  15.298   2.730 -0.1019 -0.0150 -0.0721
15902W        W34756  18.422   9.336   3.020 -0.2232 -0.0928 -0.0769
15903W        W34757  11.785   5.520   3.736  0.1209  0.3065 -0.0116
15904W        W34758  12.570   9.010  10.709 -0.0695 -0.1506 -0.1257
15905W        W34759   8.827  16.384   1.425  0.0875 -0.0578 -0.1370
15906W        W34760   2.747   6.551  14.335  0.1325  0.1243 -0.2446
15907W        W34761   2.882  17.295   3.412 -0.1068 -0.3898  0.3550
15908W        W34762   5.164   6.962  11.544  0.1024 -0.1079  0.1828
15909W        W34763  16.666   5.051  10.386  0.0777 -0.0766 -0.0163
15910W        W34764  10.076  14.526   3.388  0.3899 -0.0208  0.3718
15911W        W34765   5.586  15.188   3.071  0.0804 -0.0150  0.2120
15912W        W34766   5.590  13.030  13.117  0.1765  0.2249 -0.2805
15913W        W34767  13.446  11.516  12.187  0.0548 -0.3057 -0.0732
15914W        W34768  13.638  17.785   3.263  0.1262 -0.2296 -0.1092
15915W        W34769   8.876   7.712  14.176 -0.0728 -0.2265  0.0241
15916W        W34770   6.141   6.745  11.903 -0.1662 -0.3116 -0.1725
15917W        W34771   4.514  18.723   0.899  0.0757 -0.0242 -0.1699
15918W        W34772  18.191  17.855  13.892  0.1038  0.2597  0.3275
15919W        W34773  12.834  18.269   2.466 -0.0961 -0.0664  0.0308
15920W        W34774  12.582   0.852  14.244  0.2242 -0.0728  0.3593
15921W        W34775  11.874   2.999   1.236  0.1346  0.2315  0.0725
15922W        W34776  19.103   4.200   1.593  0.2132  0.0385  0.1115
15923W        W34777   9.098  14.012  14.380 -0.1244 -0.1097  0.0728
15924W        W34778   6.732   6.636   2.343  0.1015 -0.1270  0.0737
15925W        W34779  17.270   6.289  10.080  0.0929 -0.0447  0.1263
15926W        W34780  14.218   1.385   4.398  0.0671  0.1270  0.0651
15927W        W34781  18.060   5.657  13.006 -0.0518 -0.1192  0.1496
15928W        W34782   5.395  13.152   2.545 -0.1323 -0.2391  0.0896
15929W        W34783   3.942   5.104   0.075 -0.0579 -0.0886 -0.4569
15930W        W34784  15.493  16.276   9.929  0.2782  0.2774  0.2731
15931W        W34785   7.534   9.765   0.376 -0.2422  0.2161  0.0164
15932W        W34786   9.429   6.611  12.858  0.2602  0.2847 -0.2030
15933W        W34787   7.269  16.944   4.069  0.2105  0.2344  0.0918
15934W        W34788  17.481  12.106  10.921  0.2863 -0.2581  0.0176
15935W        W34789  11.572  16.160  12.038 -0.2321  0.0425  0.2684
15936W        W34790   1.794  12.700   3.945  0.0828  0.1565 -0.2431
15937W        W34791  13.017  11.113  10.244  0.1692  0.3592  0.3499
15938W        W34792   3.844  11.347   1.003  0.1280 -0.2600 -0.1163
15939W        W34793  11.465   7.784  12.155  0.1246  0.0953  0.2396
15940W        W34794  10.921  13.095   2.059  0.1170 -0.1529  0.1747
15941W        W34795   5.763  10.949   4.050 -0.2825 -0.3490  0.3063
15942W        W34796   6.407   9.737  13.396  0.1353  0.1048  0.0347
15943W        W34797   7.938   8.033  13.452 -0.0099  0.0943 -0.0936
15944W        W34798  11.602   4.316  11.109 -0.1395  0.1313  0.0683
15945W        W34799  14.763   6.782  10.962  0.1558 -0.0113 -0.4226
15946W        W34800  18.083   8.349  11.566  0.1627  0.1685  0.0840
15947W        W34801   8.381  16.605   5.712  0.0859  0.0246 -0.0830
15948W        W34802   6.872  11.002   1.761  0.0949  0.0490  0.1845
15949W        W34803   5.964   4.716   5.704  0.1547 -0.2545  0.2199
15950W        W34804   6.969   6.769  14.490 -0.0860 -0.0931  0.0082
15951W        W34805  12.886  13.132   0.570 -0.1541 -0.1291  0.1892
15952W        W34806   6.904   4.343   2.963  0.2507  0.1998 -0.0182
15953W        W34807   6.060  12.390   0.083  0.0384 -0.5299  0.2224
15954W        W34808  19.125  11.016  12.590  0.0661  0.0206 -0.0787
15955W        W34809   6.587  14.811   0.592 -0.0559 -0.3475 -0.1093
15956W        W34810  15.517  18.742   3.445 -0.1348  0.0338 -0.4401
15957W        W34811   6.876   7.918  11.982  0.0525 -0.0649 -0.0319
15958W        W34812   9.992  10.931   0.569  0.3166  0.2417  0.0356
15959W        W34813   4.647  12.248   3.621 -0.0531  0.1765  0.3125
15960W        W34814   0.784   2.942  12.397 -0.2652  0.0140 -0.0689
15961W        W34815   5.501   9.194  10.327  0.2483  0.2607 -0.0356
15962W        W34816  11.864  16.831   5.300  0.1004  0.0962 -0.0773
15963W        W34817  15.563   9.087  11.676 -0.2499 -0.3307 -0.0265
15964W        W34818   9.523   1.653   2.685  0.2252  0.0153 -0.1863
15965W        W34819   0.557  17.681   5.072 -0.0939 -0.2574 -0.0187
15966W        W34820   3.702  12.030  11.513  0.0580  0.0036 -0.1268
15967W        W34821  13.829   0.903   2.597 -0.0582 -0.0239 -0.2509
15968W        W34822   9.574   7.910  11.868 -0.3289 -0.0292  0.2835
15969W        W34823   0.241   2.997  10.618  0.0150 -0.1727 -0.2992
15970W        W34824  13.595   2.337  11.325  0.1162  0.1939 -0.2504
15971W        W34825   1.730  10.072   0.496  0.1090  0.1610 -0.0942
15972W        W34826  14.120  18.745   0.160 -0.1465  0.1017  0.1846
15973W        W34827   5.034   9.634  13.654 -0.0344  0.4066 -0.1808
15974W        W34828  13.923  17.573  13.197 -0.0406 -0.0473  0.2545
15975W        W34829   3.562   5.568   1.713  0.1164  0.0957 -0.1338
15976W        W34830   3.276  11.770   2.021  0.1977  0.0001 -0.0310
15977W        W34831   8.330   1.128   2.121  0.2690  0.0960  0.2652
15978W        W34832   7.966   3.724   0.064 -0.0435 -0.1003  0.0356
15979W        W34833  16.998  15.703  11.976  0.2561  0.3719 -0.3731
15980W        W34834   1.136  10.954  12.631  0.1736 -0.1604  0.0377
15981W        W34835   0.496  11.892   4.285 -0.0302 -0.2830 -0.1330
15982W        W34836   1.192  16.035   1.445 -0.0131 -0.4139  0.1142
15983W        W34837  12.478   0.378  13.125  0.0982 -0.1998 -0.1783
15984W        W34838  12.536  10.993  12.229  0.1316 -0.2022 -0.1547
15985W        W34839  18.745  11.860  12.455  0.1822 -0.1534 -0.1575
15986W        W34840  15.646  16.643  11.075  0.3975  0.2431 -0.2044
15987W        W34841   8.426  14.140   2.730 -0.0510  0.1234  0.1402
15988W        W34842  15.559  19.023   2.151  0.1690 -0.0958 -0.1923
15989W        W34843   5.195   9.933  13.999  0.0217  0.0458  0.0021
15990W        W34844  18.520   1.631  13.865 -0.0115  0.0545 -0.1379
15991W        W34845  17.163   8.294   5.001 -0.2287  0.0197 -0.1264
15992W        W34846   4.241  14.979  10.359  0.0414  0.0179  0.4271
15993W        W34847   2.179   6.459  12.945  0.3771  0.1860 -0.1830
15994W        W34848   7.957   8.808  13.141  0.0144  0.0811  0.1583
15995W        W34849   2.514  14.515  11.609 -0.2418  0.0088  0.0269
15996W        W34850  17.880   9.227   0.483  0.1443  0.1255 -0.1690
15997W        W34851   2.941  12.138   1.724 -0.0163  0.1502  0.0765
15998W        W34852  13.592  14.889  14.511 -0.1475  0.0950  0.2564
15999W        W34853  19.064  15.411   2.534  0.0107  0.0258  0.0560
16000W        W34854  14.334  14.235   3.946 -0.1032  0.1716 -0.0431
16001W        W34855  17.908   0.828   2.856  0.0253 -0.2869 -0.2720
16002W        W34856   5.518  15.798   3.425 -0.0785  0.0287 -0.1814
16003W        W34857   0.220  11.665   5.554  0.2031  0.1988 -0.0623
16004W        W34858  15.561  12.362  14.275 -0.1929  0.1033 -0.0006
16005W        W34859   7.268   3.940   1.886  0.1107  0.0644  0.0234
16006W        W34860   7.412   1.915  13.665  0.1124  0.1233  0.1956
16007W        W34861  11.061  14.796   2.298 -0.1068  0.0204  0.0011
16008W        W34862  12.551   2.427   0.700  0.3666  0.0851 -0.0527
16009W        W34863  12.064  16.986  13.115  0.0022 -0.1679  0.1984
16010W        W34864  14.576   9.178   1.377  0.0161  0.2072 -0.2686
16011W        W34865   7.104   9.605  12.792  0.1640 -0.3327  0.1769
16012W        W34866  16.130  12.859  11.694  0.0635 -0.0312 -0.0494
16013W        W34867  12.959  10.047  14.416  0.0144 -0.3648 -0.2211
16014W        W34868  19.203   7.582   2.638 -0.1426 -0.4533  0.1416
16015W        W34869   9.876  13.338   1.471  0.3033 -0.2799 -0.0763
16016W        W34870   9.069   9.229  12.519 -0.0883  0.0505 -0.0907
16017W        W34871   5.651  11.280  12.712 -0.1427 -0.0241  0.1434
16018W        W34872   5.499  17.861   0.324  0.2473  0.0288  0.0078
16019W        W34873   1.120  12.512   3.374  0.0454 -0.2655 -0.1433
16020W        W34874  17.212   6.316   3.746  0.3159 -0.0007 -0.1492
16021W        W34875   6.045  14.333   2.128  0.1505 -0.2523  0.4401
16022W        W34876   7.400   3.894  11.247 -0.1204 -0.1505  0.1387
16023W        W34877   8.172  11.506  10.956 -0.1870 -0.1315  0.0885
16024W        W34878  11.848   1.372   9.720 -0.0247  0.1224  0.0318
16025W        W34879   3.622   0.795   3.364  0.2554 -0.0150  0.3063
16026W        W34880   1.117   8.800   0.410  0.2193 -0.3687 -0.1597
16027W        W34881   4.219  19.201  10.278  0.2932 -0.1668 -0.1654
16028W        W34882  16.051   3.459   2.299  0.0750  0.2768  0.2252
16029W        W34883   8.286  16.118  13.116  0.0510  0.2783 -0.0088
16030W        W34884   7.307  11.142   3.508 -0.3214 -0.2245  0.1215
16031W        W34885   3.505   8.464   1.682 -0.4381  0.0654 -0.0409
16032W        W34886   2.206   7.692   2.717  0.3646 -0.1738 -0.1374
16033W        W34887  16.682   1.419   0.096  0.0499  0.3218  0.0338
16034W        W34888   2.228  10.145  11.974  0.3485  0.0799 -0.0816
16035W        W34889  12.543   3.668   3.367  0.0548 -0.2298  0.0689
16036W        W34890   0.004  13.161  11.054  0.0574  0.0234 -0.1657
16037W        W34891   5.454   5.872   4.295  0.2627  0.2553  0.0394
16038W        W34892  14.627   4.783   4.126 -0.1339 -0.1799  0.3165
16039W        W34893   5.429   8.995   3.007  0.2286  0.3167  0.3530
16040W        W34894   2.232   8.943   3.261 -0.0361 -0.0591 -0.0434
16041W        W34895   0.991  16.254  13.933 -0.1684  0.1026 -0.1904
16042W        W34896  16.245  14.627   2.501 -0.1292  0.1400 -0.1402
16043W        W34897   7.430  17.397   4.360  0.1637  0.2921  0.0641
16044W        W34898   2.207   1.537   0.480 -0.4301 -0.1558 -0.1485
16045W        W34899  17.240   2.005   3.715  0.1504  0.1363 -0.1340
16046W        W34900   1.796  18.312  12.872  0.0658 -0.0045 -0.2276
16047W        W34901   3.801  12.535  13.679  0.2152  0.0220  0.4634
16048W        W34902   6.987   2.926  12.091  0.0174 -0.0105  0.2263
16049W        W34903  12.250   5.634  10.162  0.0654  0.3163  0.2332
16050W        W34904   0.791   5.132   9.546  0.1504 -0.1624  0.6130
16051W        W34905   2.886   5.116  11.564  0.0389 -0.2610 -0.3587
16052W        W34906  13.406   9.495   1.431 -0.1706  0.1114  0.0196
16053W        W34907  13.042   7.608  10.446  0.0136  0.1760 -0.0475
16054W        W34908  17.626   9.410  14.360 -0.2660  0.0985  0.1491
16055W        W34909  13.508  16.796   2.502 -0.0590 -0.2867 -0.0622
16056W        W34910   0.531  16.788   2.861 -0.2134 -0.2009  0.1121
16057W        W34911  16.355   8.408   3.425 -0.4753  0.0925 -0.2255
16058W        W34912  16.338  13.341  11.646 -0.0500  0.0751 -0.2683
16059W        W34913  18.558  19.165  11.374  0.1453 -0.0147  0.1903
16060W        W34914  10.975  16.074  13.850  0.1169  0.2747  0.0511
16061W        W34915  14.398  12.164   4.283  0.0540  0.2293  0.1062
16062W        W34916   1.918   6.637   0.280  0.1092 -0.0501 -0.1914
16063W        W34917   4.022  16.880   4.344 -0.0119  0.1414  0.0869
16064W        W34918  15.701   8.896  12.338 -0.3160  0.0265  0.1844
16065W        W34919   7.342  15.923   3.793 -0.4982  0.3066  0.1830
16066W        W34920   9.526  11.802  10.722  0.2527  0.0012  0.0223
16067W        W34921  11.712   5.524   2.522 -0.1291  0.1264  0.2483
16068W        W34922  15.277  15.543   2.877  0.1614  0.2304  0.0664
16069W        W34923   2.962  14.324  11.382 -0.0061 -0.1727  0.0439
16070W        W34924   1.062   8.868   3.730  0.1108  0.0610  0.0815
16071W        W34925   0.871   8.938   2.244  0.2488 -0.3551 -0.0439
16072W        W34926  10.721   5.715   0.435 -0.0676 -0.1040 -0.0970
16073W        W34927  18.925   1.154   1.222 -0.1229  0.1493  0.3627
16074W        W34928   0.677   4.802  13.554  0.1428  0.0558 -0.0427
16075W        W34929   3.465   8.109  10.681 -0.3849  0.2725  0.1360
16076W        W34930  15.447   4.608  13.137  0.0043 -0.2605 -0.1720
16077W        W34931   7.332  14.206  11.493  0.1095  0.0141  0.0872
16078W        W34932   1.715  17.699  12.709 -0.0208 -0.3600 -0.1652
16079W        W34933  12.617   1.779   3.744 -0.0367  0.3927 -0.0417
16080W        W34934   8.275   6.208  11.679  0.0195 -0.3021 -0.2309
16081W        W34935  14.706  10.883   3.053  0.0781 -0.1720  0.0305
16082W        W34936  17.873   9.090  10.938  0.2198 -0.1922 -0.0824
16083W        W34937   9.309   6.964   0.109 -0.2471  0.2946  0.0393
16084W        W34938   6.303  10.268   2.632  0.1463  0.0879  0.0501
16085W        W34939   1.207   9.792  13.341  0.2321  0.1030 -0.0251
16086W        W34940   6.374  15.388   2.265 -0.0481 -0.0718 -0.0837
16087W        W34941  12.652   6.416   0.453 -0.1191 -0.0249  0.2031
16088W        W34942   1.946  10.813  10.944  0.2742  0.2381 -0.0566
16089W        W34943   9.872  13.895   4.429 -0.1749 -0.0552 -0.0332
16090W        W34944   8.639   5.212  14.047 -0.1595  0.0730 -0.0243
16091W        W34945  11.778  13.545   0.837  0.0009 -0.0481  0.0143
16092W        W34946  14.795  19.066   3.887  0.0215 -0.0339  0.0777
16093W        W34947  10.116   9.364   1.996 -0.0316 -0.1751 -0.0919
16094W        W34948   0.496   3.832  10.680  0.2179  0.0562 -0.3834
16095W        W34949  13.902   2.952   1.408  0.1261  0.0789 -0.1329
16096W        W34950  10.509  16.334  11.020  0.0812 -0.1508  0.1771
16097W        W34951   0.392   4.574  11.189  0.0409 -0.2714 -0.0728
16098W        W34952   1.977   1.104  13.942  0.1852  0.0191 -0.1015
16099W        W34953   9.040  10.682  10.393 -0.1406 -0.0527  0.4446
16100W        W34954   5.632   3.727   5.544 -0.0106 -0.2367  0.0286
16101W        W34955   4.439   9.113   1.614 -0.3547  0.0705  0.0348
16102W        W34956  13.253  17.216  10.605 -0.0224 -0.1694 -0.2261
16103W        W34957   0.806  18.757   2.610 -0.0970  0.1123 -0.0953
16104W        W34958   3.351  18.153   1.466 -0.0063  0.0318 -0.0961
16105W        W34959   5.818  16.457  14.363  0.1964 -0.1024 -0.0806
16106W        W34960   5.902   4.612   2.690  0.1217  0.0012  0.0831
16107W        W34961  16.104  14.646  12.449 -0.0149 -0.0064 -0.2599
16108W        W34962   8.089  12.029  14.171  0.0884  0.0230 -0.0605
16109W        W34963   1.855  11.053  11.428 -0.0037  0.3181  0.1282
16110W        W34964   7.917  12.969  10.601 -0.0042 -0.1916  0.0300
16111W        W34965   7.572  12.076  14.014 -0.0296  0.1020  0.0310
16112W        W34966   5.480   1.132  11.685  0.1602 -0.2761  0.1998
16113W        W34967  11.600   8.478   2.603 -0.1063 -0.2808 -0.0623
16114W        W34968  15.308  13.449  13.415 -0.1472 -0.1378  0.0446
16115W        W34969   4.453  17.912  13.006 -0.0441 -0.2076 -0.1295
16116W        W34970   7.665  16.730   3.853 -0.0443  0.0045 -0.2303
16117W        W34971   0.367   8.491   3.259  0.0729  0.1847  0.0276
16118W        W34972  14.813  13.555   0.137  0.0910  0.3176  0.0384
16119W        W34973   2.682  13.929   2.869  0.2754 -0.3099 -0.0314
16120W        W34974   0.970   5.036   3.187  0.2624 -0.1122 -0.0129
16121W        W34975  12.923  15.481   2.439  0.0369 -0.2794  0.0037
16122W        W34976   4.977   7.767   0.888 -0.3472  0.1146 -0.1543
16123W        W34977  10.787   7.142   1.839  0.1887  0.0475 -0.2132
16124W        W34978  13.943   5.783   4.102  0.0944  0.0334  0.2241
16125W        W34979  17.304   4.285  12.239 -0.1094  0.0655  0.1352
16126W        W34980  18.429  16.738  14.208 -0.0803 -0.2314  0.0376
16127W        W34981  16.656   0.833  12.613 -0.1569 -0.1559  0.0746
16128W        W34982  13.747  17.794   0.332 -0.0902 -0.1268  0.1911
16129W        W34983  18.183  12.786  13.760  0.0666 -0.0403  0.3608
16130W        W34984  18.945  10.822  10.727 -0.1174  0.0948 -0.1004
16131W        W34985   5.778   8.043   2.478 -0.0335  0.0023  0.0071
16132W        W34986   4.963  13.097  10.987  0.3547 -0.0649 -0.4064
16133W        W34987   5.734   2.739   1.379  0.1706 -0.2689  0.1786
16134W        W34988  17.669  15.293  10.628  0.0994 -0.1987 -0.1210
16135W        W34989   6.583   0.809  14.417  0.1080  0.0235 -0.1902
16136W        W34990   2.888  11.380  13.872  0.0974 -0.0779  0.2508
16137W        W34991  15.171   5.776   2.806  0.2318  0.2119 -0.1019
16138W        W34992   3.592  15.776   0.689 -0.0557  0.0742  0.2073
16139W        W34993   8.516  13.292  11.309  0.0862  0.2933 -0.5855
16140W        W34994  15.475   2.832   1.934 -0.1045  0.0025  0.0145
16141W        W34995  17.846  14.005   1.606 -0.3618  0.2890  0.3379
16142W        W34996  17.967   1.547  11.513 -0.1141 -0.3646 -0.1516
16143W        W34997  17.083   9.659   3.855  0.0133  0.2528  0.0123
16144W        W34998  13.558   9.640   0.347  0.2913  0.1214 -0.0503
16145W        W34999  16.749   4.791   4.081  0.1662  0.0530 -0.3789
16146W        W35000   4.663  15.341   4.120 -0.0244  0.2552 -0.0835
16147W        W35001  14.005   7.789  11.325  0.0356  0.1447 -0.1243
16148W        W35002   4.951   7.038   2.073 -0.0326  0.1841  0.1853
16149W        W35003   1.738  16.545   2.209  0.2370  0.0912 -0.0312
16150W        W35004  13.951   1.212   1.936  0.0163 -0.0666  0.0864
16151W        W35005  16.583  18.317   3.152  0.2522  0.0054 -0.1078
16152W        W35006   1.286   1.821  14.152 -0.0394  0.2399 -0.1938
16153W        W35007   5.704   3.225   3.479  0.0052  0.0871  0.1563
16154W        W35008   5.246   0.623   4.135 -0.3152 -0.1949 -0.0981
16155W        W35009  16.927  15.769  13.285  0.1163 -0.0240 -0.1018
16156W        W35010   0.221   4.279  14.668 -0.1107  0.2851 -0.0153
16157W        W35011   1.188   1.560   0.333 -0.0233 -0.1553 -0.1320
16158W        W35012   1.372   4.061  13.425 -0.0624  0.0875  0.1338
16159W        W35013   4.288  15.501   4.378  0.3754  0.0341 -0.2612
16160W        W35014  12.948  16.801   4.613  0.0812 -0.4311  0.1129
16161W        W35015   0.691   2.506   3.328 -0.3087  0.1751  0.0518
16162W        W35016  17.274  18.644   2.668  0.2831  0.2634  0.0074
16163W        W35017   2.748  10.227  11.149  0.3289 -0.0977 -0.0134
16164W        W35018  16.661  11.714  14.552  0.3263 -0.2426  0.1262
16165W        W35019   2.481   1.512  11.304 -0.2444 -0.1001  0.0766
16166W        W35020   9.945   4.420  11.523 -0.0207  0.2822  0.0053
16167W        W35021   5.572   4.812  14.089  0.0818  0.0867  0.2043
16168W        W35022  14.000  11.674  13.065  0.1675  0.1720  0.3692
16169W        W35023  10.790  10.412  14.532  0.1817 -0.5235  0.0569
16170W        W35024   4.872   9.344  11.655  0.1178  0.2408  0.4228
16171W        W35025  11.505   6.242  13.699  0.1607  0.1845  0.0058
16172W        W35026   9.383   7.943   2.904  0.1197  0.1034  0.0102
16173W        W35027   9.251  17.495   3.551 -0.1441 -0.1938 -0.0981
16174W        W35028  12.277  19.158  13.855 -0.2896  0.0378  0.2720
16175W        W35029   0.896  16.287  13.026 -0.0534 -0.0159 -0.0991
16176W        W35030  11.414  17.080   4.461 -0.0666  0.0391  0.0460
16177W        W35031   0.512  15.047  14.087  0.1000  0.0569  0.1974
16178W        W35032  17.629   1.508  12.779  0.0059 -0.0736  0.1806
16179W        W35033   9.635   3.713  12.590 -0.2421  0.1365  0.2368
16180W        W35034   3.074  14.916   3.308  0.0116 -0.3074 -0.1137
16181W        W35035   8.350   1.326   0.490  0.0762  0.0919  0.3475
16182W        W35036   6.758   2.276  12.084 -0.0475  0.0894  0.1090
16183W        W35037   0.271   8.117   2.428 -0.0419  0.0550  0.0447
16184W        W35038   1.376  13.562   4.133  0.2882 -0.1834  0.0759
16185W        W35039  10.708   5.763   2.417 -0.2548 -0.0765 -0.0134
16186W        W35040  18.585  17.489  11.541 -0.0048  0.2781  0.3753
16187W        W35041   4.177   8.129  12.203  0.0318 -0.0241  0.2885
16188W        W35042   7.813  12.305   3.648 -0.2654 -0.0290 -0.5006
16189W        W35043  15.766   4.489   2.110  0.0687 -0.1748 -0.1199
16190W        W35044  19.138   3.669   0.625 -0.1156 -0.2284 -0.1375
16191W        W35045   3.114  10.825   2.566 -0.0669 -0.1471 -0.0728
16192W        W35046   0.941  13.227  11.065  0.1989 -0.3496 -0.0494
16193W        W35047  15.376   9.202   1.131  0.0790 -0.2573  0.2317
16194W        W35048   6.952   8.230   0.154 -0.1451 -0.1528  0.1337
16195W        W35049   4.884   6.859  11.943  0.1406  0.0761  0.4711
16196W        W35050  18.735   6.393  14.618  0.0286  0.1089 -0.2073
16197W        W35051   4.736   7.227  13.560  0.2387 -0.2049 -0.0678
16198W        W35052   9.418   2.185   0.944 -0.0795 -0.3040  0.2389
16199W        W35053   0.962  17.613  11.359 -0.0609  0.1255  0.3045
16200W        W35054   7.895   6.806  12.952  0.1396 -0.2090  0.0978
16201W        W35055  16.635   6.405   3.897  0.0716 -0.1194 -0.1051
16202W        W35056   4.701  14.502   3.649  0.0465 -0.1682  0.0008
16203W        W35057  18.354   4.111   0.403  0.2259  0.0235 -0.1650
16204W        W35058  15.842   1.020   2.054 -0.2792 -0.2313  0.1715
16205W        W35059  10.751   3.679  13.690 -0.2975 -0.0489  0.2011
16206W        W35060   7.102  15.953  14.612  0.2680  0.0558 -0.1084
16207W        W35061  19.129  10.669   4.137  0.0212  0.0329  0.0609
16208W        W35062   3.785  18.499  14.470 -0.0326 -0.2012 -0.0004
16209W        W35063  17.329  17.878   1.599  0.0525 -0.0576 -0.3076
16210W        W35064   8.231   7.156   4.159  0.0925  0.1489  0.0165
16211W        W35065  16.244   6.899   0.535  0.0302  0.0401 -0.1790
16212W        W35066   2.829   4.808   0.709  0.0093  0.0592 -0.0385
16213W        W35067  16.009  10.900  11.110 -0.2305 -0.0362 -0.0245
16214W        W35068  18.167   6.090  13.483 -0.1743 -0.0810  0.3379
16215W        W35069  18.166   1.877   2.831 -0.5178  0.0280 -0.1887
16216W        W35070  18.355  14.549   1.716  0.2098  0.1580 -0.3910
16217W        W35071  10.008   9.291   2.905 -0.0464  0.1457 -0.2437
16218W        W35072  14.972   1.041   1.105  0.0727 -0.0748 -0.0437
16219W        W35073  17.359  15.497  11.373  0.2673 -0.1112  0.0550
16220W        W35074   6.757  12.125  14.161 -0.0863 -0.1031 -0.0268
16221W        W35075  16.766  12.105  13.721  0.3994  0.0816  0.2528
16222W        W35076   1.064   2.843  14.031  0.1012  0.2384  0.0770
16223W        W35077   3.412   9.765   0.410 -0.1250  0.1144  0.2627
16224W        W35078  12.497  18.648   2.235  0.2212 -0.1489 -0.0360
16225W        W35079  16.882  11.602   3.379  0.4749  0.2232 -0.0142
16226W        W35080   4.549  15.712  12.102  0.0350  0.1288  0.2249
16227W        W35081   2.387  18.511   1.281 -0.0303 -0.2102 -0.2015
16228W        W35082   4.559  16.430   1.862  0.0546 -0.3946 -0.4818
16229W        W35083  18.469   3.398   0.131  0.3267 -0.0505  0.0240
16230W        W35084   5.359  12.623  12.821  0.1328  0.0634 -0.3525
16231W        W35085  18.216  11.005   0.601 -0.2398 -0.0450  0.1056
16232W        W35086   5.582  15.622   1.765 -0.2287  0.0986 -0.4055
16233W        W35087  14.538   0.211   2.744  0.0005  0.2808  0.0711
16234W        W35088   5.151  13.651  14.209  0.2094  0.0449 -0.1495
16235W        W35089   7.162  13.472   0.976 -0.0800 -0.2674  0.0027
16236W        W35090  10.089  10.553   0.083  0.2262  0.0466  0.0602
16237W        W35091  10.677   7.915   2.506  0.0327 -0.3530 -0.2437
16238W        W35092   1.056  12.505  11.835  0.1635  0.0530 -0.3533
16239W        W35093   0.420  13.075   0.318  0.0507 -0.1726 -0.0760
16240W        W35094   0.815  15.292  11.586  0.0894  0.0909 -0.2928
16241W        W35095   7.192  16.476   1.697  0.0383 -0.1672 -0.1134
16242W        W35096  10.203   8.537  13.514  0.0093 -0.0301 -0.3610
16243W        W35097   9.295  13.192   2.063  0.0550  0.1270  0.2672
16244W        W35098  13.573   0.726   4.266  0.1581 -0.0303  0.2347
16245W        W35099  18.336   6.010  10.707  0.0226 -0.2387  0.2639
16246W        W35100  11.373  10.995  13.530  0.0965  0.1375 -0.1917
16247W        W35101  13.863   1.609   3.209  0.4635  0.0106 -0.0701
16248W        W35102  14.302   1.786   3.399  0.1170  0.1810 -0.1434
16249W        W35103  18.003   6.402  10.717  0.2223 -0.0043  0.0874
16250W        W35104  12.277   8.015   3.259  0.0670 -0.4366 -0.1047
16251W        W35105   9.879  16.883  10.990 -0.1886  0.2351  0.4928
16252W        W35106   0.207  17.106  13.305 -0.0802 -0.1230  0.0660
16253W        W35107  14.938  18.077  11.622  0.1190 -0.0657 -0.1382
16254W        W35108   0.994   6.003   3.342 -0.1289 -0.1952 -0.1901
16255W        W35109  18.745   2.875  14.183 -0.0033 -0.0615 -0.6469
16256W        W35110  10.581   5.613   3.230 -0.0245  0.0146 -0.0126
16257W        W35111  18.549  16.473   3.459 -0.0534  0.2931 -0.0689
16258W        W35112   5.788  15.507   2.568 -0.1002 -0.0837 -0.1587
16259W        W35113  12.136   3.517  14.397  0.0137  0.0868  0.1633
16260W        W35114   7.724   5.348  10.915  0.1989  0.2879  0.1795
16261W        W35115   0.151   8.568   0.615  0.2319  0.2349 -0.0554
16262W        W35116  16.786   2.710   0.944  0.2260  0.2394  0.3016
16263W        W35117  16.002   6.321  13.212 -0.0839 -0.1517  0.2480
16264W        W35118   2.161  13.681  14.173 -0.0880  0.0278 -0.1549
16265W        W35119   8.667  13.436   0.855  0.1365 -0.2337  0.2220
16266W        W35120  13.055   7.720  13.526 -0.1892  0.0708 -0.0169
16267W        W35121  18.349   5.721  13.864 -0.1288  0.2293 -0.0373
16268W        W35122   8.157  12.713   0.694 -0.0581  0.3567 -0.1074
16269W        W35123   3.075   1.404  14.671 -0.0638  0.0761 -0.4218
16270W        W35124  14.946  18.294   0.471 -0.0299 -0.0591  0.1588
16271W        W35125  11.655  14.186  14.364 -0.4202 -0.1935 -0.0093
16272W        W35126   1.737  12.764  13.980 -0.0133 -0.0248 -0.0376
16273W        W35127   7.450   7.044  14.227  0.2348  0.4061  0.0040
16274W        W35128   6.619  14.290   1.000  0.3350 -0.1137  0.2025
16275W        W35129  16.895  14.858   1.949  0.0653  0.2862  0.0213
16276W        W35130  17.606  14.505  13.975 -0.0754 -0.4896 -0.1517
16277W        W35131  11.845   0.693   4.172  0.1931  0.1594  0.1034
16278W        W35132  18.846  11.342   0.539  0.0305  0.4137 -0.3544
16279W        W35133  15.302   5.730  11.611  0.2666 -0.2220 -0.4262
16280W        W35134  12.733  18.518   1.053  0.3150  0.2381  0.1522
16281W        W35135  13.805   5.755   1.131 -0.1076  0.2568  0.2043
16282W        W35136   5.226  10.936  12.487 -0.0848 -0.1066  0.0091
16283W        W35137  11.933  17.831   4.719 -0.2209  0.1392 -0.2401
16284W        W35138   5.495  15.192   9.997 -0.1820 -0.0891  0.4046
16285W        W35139  11.749   2.203  12.852  0.0825  0.2296  0.1403
16286W        W35140   6.091  17.249  11.153 -0.1229 -0.0910  0.3018
16287W        W35141   0.808  10.625  12.866 -0.0947 -0.0693 -0.3042
16288W        W35142   3.905  16.443  11.241  0.1549 -0.0261 -0.0494
16289W        W35143   3.588   3.024  10.534 -0.0557 -0.0820 -0.3136
16290W        W35144   4.909   7.487  10.803  0.1108  0.0838 -0.1675
16291W        W35145  12.119  15.317   2.978 -0.1298  0.0907  0.1392
16292W        W35146   5.368   0.111   1.051  0.0628  0.1585  0.1463
16293W        W35147  13.832  17.280  12.786  0.2134  0.0949  0.0610
16294W        W35148   8.341   3.243   2.209  0.2356 -0.0141 -0.3581
16295W        W35149  16.507   3.183  14.071  0.0884  0.1862  0.0837
16296W        W35150  17.707  19.128   4.109  0.0149 -0.1724  0.2860
16297W        W35151   3.252  16.230   4.188  0.3009  0.0638  0.0898
16298W        W35152  17.571  13.885   0.806 -0.0092 -0.0673  0.0164
16299W        W35153   6.705   6.542  12.362  0.1423 -0.2104  0.2064
16300W        W35154  17.178  16.929  14.448 -0.0686 -0.0729  0.0424
16301W        W35155   0.733  17.635   1.334  0.1986  0.1981 -0.2958
16302W        W35156   4.458   9.273  11.285 -0.4709  0.0903  0.1487
16303W        W35157   2.116  17.433   1.154  0.0181 -0.1017 -0.0557
16304W        W35158  16.927   6.121  13.287 -0.2025  0.1726 -0.1558
16305W        W35159   2.941   0.775  12.888  0.0435  0.1264  0.4082
16306W        W35160  18.600  15.365  10.811  0.0280 -0.0669  0.1031
16307W        W35161   2.122  12.511  13.771 -0.4090 -0.5734 -0.2018
16308W        W35162  13.970  17.570   0.759 -0.0383 -0.0250 -0.0516
16309W        W35163  11.701   8.397  12.523  0.3440 -0.0548 -0.0872
16310W        W35164   3.565  12.778  10.581 -0.2267 -0.0936 -0.0358
16311W        W35165  16.816  13.491   1.268 -0.2317 -0.3051 -0.2551
16312W        W35166   2.609   4.538  14.405  0.6599 -0.3195  0.1285
16313W        W35167   1.669   5.532  11.602 -0.2835 -0.1820  0.3139
16314W        W35168  11.313  16.978   2.328  0.3230  0.1076  0.3843
16315W        W35169  13.005   5.283  13.574  0.0302 -0.4676 -0.2128
16316W        W35170   7.385   1.126  13.081 -0.3987 -0.2274  0.0302
16317W        W35171   6.197  13.924  14.046  0.2600 -0.3819 -0.0949
16318W        W35172   9.983   9.397  10.372 -0.2917 -0.1617  0.2080
16319W        W35173   0.843   1.242   1.463 -0.3115 -0.0723  0.2228
16320W        W35174  13.246   7.910   0.008  0.0938  0.2366  0.1603
16321W        W35175  14.783  18.337  10.581  0.2762 -0.3209  0.1764
16322W        W35176   5.074   7.920  14.539  0.0597 -0.1741  0.0434
16323W        W35177   9.210   1.285   2.737 -0.1217  0.0653  0.0990
16324W        W35178   1.652   3.729   0.082  0.4499  0.3869  0.0377
16325W        W35179  17.663  13.838  11.673  0.1947  0.0586 -0.0885
16326W        W35180  15.786  14.593   4.807  0.2244  0.3436  0.0187
16327W        W35181   7.426  11.796  12.462  0.2646 -0.0488  0.4017
16328W        W35182  14.723   9.033  11.897  0.4690  0.5421 -0.0550
16329W        W35183  18.808  17.365  10.541 -0.0775  0.2548 -0.2235
16330W        W35184  15.351  16.284  10.775  0.2136 -0.1812  0.0990
16331W        W35185   7.774  18.595   0.577 -0.2298  0.0192 -0.0142
16332W        W35186   2.582   8.252  14.670  0.3161 -0.0287 -0.0192
16333W        W35187   5.412  10.847  12.947 -0.3651 -0.0492 -0.0744
16334W        W35188   0.872   0.327   1.827  0.1171 -0.2360  0.0716
16335W        W35189  10.293  10.088  13.048  0.4397 -0.0256 -0.0630
16336W        W35190   9.742   6.953  11.610 -0.4398  0.3063 -0.0820
16337W        W35191  14.343   6.398   9.511  0.0135 -0.2333 -0.0444
16338W        W35192   2.247  14.205   4.682 -0.0972  0.2319  0.1313
16339W        W35193   5.734   9.447   3.798 -0.0412  0.0864 -0.2417
16340W        W35194   5.564   1.002   0.984 -0.2009  0.0707  0.0005
16341W        W35195   7.065  17.229   5.211  0.0396  0.0925  0.3395
16342W        W35196  15.316   2.835  12.185  0.1379  0.1443 -0.0604
16343W        W35197   4.985  18.173  13.057  0.3272  0.0221  0.0735
16344W        W35198  15.362  19.125   3.725 -0.1177  0.1603  0.1557
16345W        W35199   4.063  15.989  11.485  0.1210  0.0315 -0.0140
16346W        W35200  12.087  11.250   0.948  0.2492 -0.1209 -0.1111
16347W        W35201   4.494  15.258  11.327 -0.1841  0.3761  0.2702
16348W        W35202   2.931  17.386  12.638  0.0148  0.0178 -0.2919
16349W        W35203   9.632   0.213   2.000 -0.1837  0.2435  0.4227
16350W        W35204  12.706  10.052  11.545  0.1967  0.2030 -0.1344
16351W        W35205   6.324  16.872  13.244  0.0367 -0.1157  0.2001
16352W        W35206   5.980   2.445  11.520 -0.0043 -0.0309 -0.1379
16353W        W35207  18.122  11.932   3.685 -0.3318 -0.0017 -0.1441
16354W        W35208  17.477  18.496  12.172  0.0764 -0.1663 -0.4467
16355W        W35209   6.777   8.048  11.477 -0.0420  0.0251 -0.0240
16356W        W35210   7.565   1.012   0.529  0.3416 -0.1890 -0.0838
16357W        W35211   5.889  16.140  12.133  0.1763  0.0512 -0.2403
16358W        W35212   5.178   4.442   3.418  0.1061  0.1366  0.0900
16359W        W35213   7.484  17.190  10.364  0.0478  0.0419  0.1139
16360W        W35214   6.883   9.988   5.176 -0.0250  0.0630  0.0390
16361W        W35215  14.921  13.943   3.272  0.1686 -0.3699  0.0311
16362W        W35216  12.586   7.670   2.856  0.3869  0.0357  0.1171
16363W        W35217   3.757   0.695   2.384  0.1082  0.0190 -0.0182
16364W        W35218  14.546   2.765   2.219  0.0479  0.4069 -0.0408
16365W        W35219   3.179   2.105   3.135  0.0264  0.1767  0.0812
16366W        W35220  18.366  12.248   2.030  0.0014  0.0708 -0.3371
16367W        W35221  15.152   3.091  11.060  0.1313  0.2872  0.2837
16368W        W35222  18.259   4.284   1.437  0.0376 -0.1439 -0.1982
16369W        W35223   9.046   2.393  10.525 -0.1035 -0.0224 -0.2254
16370W        W35224  18.548  12.875   1.822 -0.2646  0.1090  0.2528
16371W        W35225   6.650   9.295   4.299 -0.0577  0.1815 -0.1148
16372W        W35226   4.960  14.627   1.293 -0.1840 -0.1391 -0.0641
16373W        W35227   2.986  10.576   0.857 -0.0519  0.1778 -0.1267
16374W        W35228  18.111  12.120   3.203  0.0600  0.0642  0.1720
16375W        W35229   7.338  17.664  13.853  0.1973 -0.0742 -0.0991
16376W        W35230  13.211   9.598  11.395  0.0947 -0.1424 -0.0291
16377W        W35231   3.659   8.277  12.315  0.1800  0.2748  0.0362
16378W        W35232   9.973  14.353   0.588 -0.0416  0.2581 -0.1522
16379W        W35233  11.119  17.211   2.739  0.0210  0.0174 -0.0147
16380W        W35234   5.178  15.564   2.259 -0.0728  0.1343  0.2112
16381W        W35235   4.014   2.179  10.587  0.3899  0.3840  0.0526
16382W        W35236  12.383  17.646   4.485  0.3228  0.1779 -0.1837
16383W        W35237  10.835  16.844   2.167 -0.0596  0.0435  0.5328
16384W        W35238  14.669   2.918  13.221  0.1023  0.1626 -0.2562
16385W        W35239  18.203   2.130  10.183 -0.2031  0.1975 -0.3641
16386W        W35240  11.547   0.079  14.305  0.0215  0.0970 -0.2341
16387W        W35241  16.825   8.857   1.564  0.1352  0.0532  0.1066
16388W        W35242   0.505   6.601  11.171 -0.3042  0.2552  0.0213
16389W        W35243  15.243  11.302   3.825 -0.1112 -0.0428 -0.3508
16390W        W35244  12.184   7.176  11.133  0.1798 -0.0058  0.3236
16391W        W35245   3.897   5.302  12.179 -0.0613 -0.0710 -0.1869
16392W        W35246  10.309  13.338  11.993  0.1912 -0.3489  0.2988
16393W        W35247   6.466   4.992   4.426 -0.1259 -0.0105  0.0994
16394W        W35248  10.315   1.867   2.609  0.2613  0.3258  0.3874
16395W        W35249   8.338  15.040  11.243 -0.0411  0.1205 -0.3352
16396W        W35250   8.909   9.972  13.356 -0.0744  0.2487  0.0080
16397W        W35251   5.471  14.215  12.637 -0.0866  0.0254  0.0783
16398W        W35252   9.735   6.513  11.972 -0.2503 -0.1444  0.0532
16399W        W35253  13.986   7.142  13.702  0.0283  0.0218 -0.0530
16400W        W35254   1.327   4.072  11.053  0.1616 -0.0299  0.1112
16401W        W35255  12.159   4.974   0.656 -0.0280 -0.0740  0.2613
16402W        W35256   2.056   5.140  12.855 -0.0405  0.0863  0.2795
16403W        W35257   9.310   6.618  13.877  0.1419  0.2584 -0.1782
16404W        W35258   4.024   9.487   1.904  0.0983 -0.0974 -0.1246
16405W        W35259  11.691  10.137   3.092 -0.2252 -0.1530 -0.0862
16406W        W35260   5.922   8.679  12.485 -0.0129 -0.0380  0.0323
16407W        W35261   0.581   1.755  10.657 -0.0553  0.3440 -0.1556
16408W        W35262   6.227  16.193  14.206  0.1774 -0.3143  0.1509
16409W        W35263  16.063  18.465  13.968 -0.2243 -0.0420 -0.0176
16410W        W35264  13.352   4.306  14.536 -0.0684 -0.0606  0.1102
16411W        W35265  17.701   8.261  12.421  0.2004  0.3412 -0.0795
16412W        W35266   1.323  19.157  14.211  0.1416  0.2018 -0.1801
16413W        W35267   0.598  15.453   2.991  0.0121 -0.0633  0.4417
16414W        W35268  10.911   3.521   0.985  0.0660  0.0997  0.3495
16415W        W35269  13.516   2.963   3.481 -0.2045 -0.0455  0.1232
16416W        W35270  14.567   6.416  11.878 -0.1758 -0.0974 -0.0519
16417W        W35271  17.222  11.120   4.007 -0.3100  0.1572  0.2279
16418W        W35272   3.521  10.580   2.722 -0.0126 -0.1189  0.4199
16419W        W35273   9.270   0.202   1.572 -0.0410 -0.0221  0.0151
16420W        W35274   8.904  15.820   3.933  0.0907  0.0065  0.1798
16421W        W35275   7.656  12.760  12.746  0.2326 -0.3316  0.1980
16422W        W35276  18.495  14.811  10.770  0.1130  0.1991 -0.0917
16423W        W35277  18.169  16.013   5.416 -0.3133  0.2794  0.0694
16424W        W35278   2.863  16.772   2.991 -0.2395 -0.2758  0.2395
16425W        W35279  14.461   5.687  14.355  0.0474  0.3977 -0.0091
16426W        W35280   9.838  16.786   0.417  0.0456  0.1771 -0.0512
16427W        W35281  14.140  19.096  12.447 -0.1966 -0.0942 -0.1240
16428W        W35282   4.441   0.560   2.892  0.1071 -0.0403  0.2027
16429W        W35283   4.466  18.153   4.734 -0.1166 -0.0176  0.1494
16430W        W35284  19.002  18.783  14.551  0.0784 -0.1224 -0.0511
16431W        W35285   7.067  13.927  11.068  0.0514 -0.1131 -0.1103
16432W        W35286   0.979   2.042  11.265 -0.3187 -0.3433  0.0381
16433W        W35287  14.068   0.720  13.370 -0.0087 -0.2273  0.0323
16434W        W35288   6.398   3.565   2.451  0.0914 -0.0901  0.0494
16435W        W35289   7.489   1.438  13.465  0.1134 -0.0110 -0.1600
16436W        W35290  13.454  14.529  11.607 -0.1317 -0.0348 -0.0380
16437W        W35291  13.137  14.821   3.568  0.1425  0.2206  0.0172
16438W        W35292   4.072  12.365   0.310 -0.3663  0.1735 -0.3477
16439W        W35293  16.449  12.262  10.932  0.2719  0.2321 -0.1308
16440W        W35294  10.962  10.661  10.377 -0.0371 -0.1442  0.0631
16441W        W35295   0.472   2.233  11.286 -0.2171 -0.0037  0.0047
16442W        W35296   1.811   9.554  10.758  0.1211 -0.2498  0.1313
16443W        W35297  15.597   0.159   4.229  0.1192 -0.0033 -0.1026
16444W        W35298  16.129   9.545  12.740 -0.2981  0.0511  0.0575
16445W        W35299   8.660  14.284   0.465  0.2525  0.0336  0.0818
16446W        W35300   4.739  18.000  12.468 -0.1134  0.4108  0.1199
16447W        W35301   7.969   7.960   1.931  0.0347  0.0012 -0.0617
16448W        W35302   7.221   5.856  13.119  0.3272 -0.1363  0.3159
16449W        W35303   7.571  18.098  13.682  0.4309 -0.0360  0.1613
16450W        W35304   3.354  17.526  11.826  0.3194  0.0526 -0.0673
16451W        W35305   8.367  13.073  10.293  0.2067 -0.0700 -0.0351
16452W        W35306   3.596   9.290  12.670  0.2833  0.0606  0.1186
16453W        W35307   3.754  12.042   3.774 -0.0013 -0.2149  0.1925
16454W        W35308   3.117  15.624  12.004  0.0559  0.1523  0.2782
16455W        W35309   5.388   0.424   1.941 -0.0860 -0.0240 -0.0041
16456W        W35310   9.764  12.022  11.080  0.1083 -0.0179 -0.1905
16457W        W35311  13.109  14.073  14.236 -0.4827  0.0172  0.0039
16458W        W35312   8.442  13.788   0.455 -0.0147 -0.1909 -0.1543
16459W        W35313   8.089  17.659   1.075 -0.0216  0.0291 -0.0537
16460W        W35314  15.230  10.602  10.067 -0.1307  0.0373 -0.1568
16461W        W35315  18.777   0.032  14.615  0.0206 -0.0095 -0.0057
16462W        W35316  14.321  11.158   2.901 -0.1930 -0.1413  0.1050
16463W        W35317   1.959  17.002   0.514  0.0262  0.0266  0.0084
16464W        W35318   5.615  15.760   9.963 -0.2287  0.0502 -0.0507
16465W        W35319   2.879   3.768   2.859  0.1678  0.3863  0.1970
16466W        W35320   1.381   8.640  12.044 -0.0359 -0.2628 -0.2401
16467W        W35321  18.767  11.849   1.046 -0.1748 -0.1234 -0.2515
16468W        W35322  18.237   9.324  10.566 -0.0524  0.0140 -0.3937
16469W        W35323   4.625  15.520   1.565  0.1272  0.1733 -0.2457
16470W        W35324   6.391   1.401  12.618  0.0691  0.0035 -0.0522
16471W        W35325   4.406   0.840   0.288  0.1717 -0.2304 -0.0260
16472W        W35326   5.116  11.400  14.311 -0.1633  0.0391 -0.1641
16473W        W35327  10.994   0.263  13.463 -0.1114 -0.0405  0.1078
16474W        W35328  11.669  12.641   3.330 -0.0100 -0.0671  0.2880
16475W        W35329  16.901   0.810  13.675  0.0898  0.2342  0.1582
16476W        W35330  15.303  14.190  11.237  0.1276 -0.2319  0.0248
16477W        W35331   4.380   2.951   2.803  0.3502 -0.0045  0.2007
16478W        W35332   7.748  16.580   4.884  0.0492 -0.0636 -0.3514
16479W        W35333  18.518  15.425   0.302 -0.2883 -0.0662 -0.2275
16480W        W35334  13.793   1.336  10.465  0.1069 -0.0856  0.3615
16481W        W35335   9.329  15.401   0.956 -0.4026 -0.1923 -0.0914
16482W        W35336   8.424  15.549  10.016  0.1105  0.1508  0.1348
16483W        W35337   6.238  15.591   4.593  0.0021  0.0750  0.1308
16484W        W35338   2.561  11.941  11.423  0.0744 -0.2608  0.0505
16485W        W35339   7.412  14.974   0.570  0.2077 -0.0155 -0.2839
16486W        W35340   9.449  11.172   2.265 -0.0684 -0.0369  0.1372
16487W        W35341  16.516  18.792   3.316  0.0876  0.0010 -0.1517
16488W        W35342   0.910  15.448   2.626 -0.0848  0.2283 -0.0077
16489W        W35343   8.576   2.489  10.801  0.1116 -0.0539  0.0672
16490W        W35344  11.324   3.545   4.361 -0.0538 -0.0084 -0.1515
16491W        W35345  13.185   6.135  11.024 -0.0803  0.0516 -0.3264
16492W        W35346  12.571  18.263   0.143  0.1016  0.0854 -0.0348
16493W        W35347  18.997   5.219   1.598 -0.2581  0.1284 -0.0635
16494W        W35348  15.646  18.439   3.883  0.3368  0.0429  0.0764
16495W        W35349   5.301   3.717  13.387 -0.3675  0.0741  0.1291
16496W        W35350  11.469  10.686  10.428  0.0213  0.3107 -0.1236
16497W        W35351  16.520  12.435   2.570 -0.0136 -0.0260 -0.0851
16498W        W35352  18.229  17.214  12.905 -0.0380  0.1490 -0.0134
16499W        W35353  18.068  17.646   1.996 -0.0949 -0.1337 -0.0543
16500W        W35354   5.871  12.655   1.456  0.1420 -0.0323 -0.1832
16501W        W35355  16.999   9.665  11.715  0.1398 -0.0224  0.0807
16502W        W35356   4.763   0.760  13.878  0.0072 -0.1953 -0.1863
16503W        W35357   1.219   7.271   1.917 -0.0712 -0.3069 -0.0918
16504W        W35358   2.218  15.857   4.515 -0.1038  0.2281 -0.0104
16505W        W35359  16.773  10.568  11.553  0.1882  0.2301 -0.1913
16506W        W35360   2.627   5.716   4.174  0.1361  0.0554  0.2390
16507W        W35361   9.549   1.744   0.986  0.0064  0.0783  0.2027
16508W        W35362   0.872   3.983  11.105  0.0139 -0.1446  0.3187
16509W        W35363  15.283  14.245   3.948  0.0128 -0.4259  0.2301
16510W        W35364  18.522   2.181   2.700 -0.1005  0.1476  0.1917
16511W        W35365  13.993   1.828   2.418 -0.2670 -0.1315  0.0444
16512W        W35366   4.720   1.616  11.291  0.1369  0.4522  0.0772
16513W        W35367  11.867   7.492  11.435 -0.1189  0.2025  0.1085
16514W        W35368  13.160   3.937   3.672 -0.0013 -0.1050 -0.0032
16515W        W35369  10.206   6.427   1.309 -0.0624 -0.1004  0.4006
16516W        W35370   5.034   6.217   9.515 -0.1332 -0.1950 -0.1004
16517W        W35371  10.938   0.917   2.341 -0.2312  0.0522 -0.0258
16518W        W35372   6.701  16.388   3.144 -0.2096  0.1410  0.0019
16519W        W35373  12.717  13.564  13.824 -0.1449 -0.1924  0.3351
16520W        W35374   1.788   3.549  13.840 -0.3410  0.1978  0.1037
16521W        W35375   9.181  18.999   2.285 -0.0505 -0.0881 -0.1413
16522W        W35376  13.592  18.879   2.908 -0.2674 -0.0258  0.3003
16523W        W35377   5.699  16.921   0.474  0.0491 -0.3057 -0.0480
16524W        W35378  11.096   4.941   0.291  0.0144  0.0453 -0.1018
16525W        W35379  17.529  17.134   2.684  0.0296  0.0140  0.0172
16526W        W35380   0.074   6.741  11.318 -0.1186 -0.1432 -0.0746
16527W        W35381  12.556   5.095  12.482  0.0874  0.2848  0.1339
16528W        W35382  14.551   5.616   1.730  0.2452  0.2113  0.2417
16529W        W35383  16.806  18.947  13.903  0.0475 -0.0421 -0.1460
16530W        W35384   1.007   3.873   0.475  0.0471 -0.1628  0.0121
16531W        W35385   5.676   2.836   3.046 -0.0532  0.0241  0.0471
16532W        W35386  17.743   6.592  12.858 -0.0729 -0.3316  0.1318
16533W        W35387  13.712  10.609   0.227  0.1176  0.2808  0.2138
16534W        W35388  14.359   2.240   4.453  0.1243  0.1431  0.1579
16535W        W35389  15.659  18.342   2.685  0.0561  0.2712  0.1356
16536W        W35390   7.389  14.560   4.255  0.1046 -0.1587  0.1822
16537W        W35391   5.357  14.734   3.137  0.1620 -0.0981  0.3114
16538W        W35392   3.664  10.526  14.677  0.0252  0.0769 -0.2451
16539W        W35393   3.260   8.969  11.523  0.2110  0.0982 -0.2515
16540W        W35394  16.506   8.758   1.975 -0.3961 -0.1761  0.3659
16541W        W35395   8.157  14.420   2.120 -0.0646 -0.0052  0.1359
16542W        W35396  11.375  16.043   1.273  0.0453  0.0737  0.1737
16543W        W35397   1.590   3.419  12.921 -0.0277 -0.0397 -0.0158
16544W        W35398   8.203  13.956   3.485 -0.4809 -0.0419  0.1048
16545W        W35399  14.836  18.430   1.562 -0.1556 -0.0083  0.0885
16546W        W35400   3.391  18.172   3.846 -0.0324 -0.1322  0.0294
16547W        W35401   7.466  14.453  12.354  0.0662 -0.0739  0.2410
16548W        W35402   9.125   1.669   2.318 -0.1187 -0.3824  0.1775
16549W        W35403  11.790  16.936   3.088  0.5349  0.3067  0.5454
16550W        W35404  11.636  13.721   1.697  0.1921 -0.1575 -0.1024
16551W        W35405   5.736  13.695  14.019  0.0289  0.3575 -0.1957
16552W        W35406   6.015   8.700  11.547  0.0990  0.0967  0.1098
16553W        W35407   2.967   8.788  13.033  0.2007 -0.0100 -0.3106
16554W        W35408  12.964   5.962   2.457  0.2331  0.1398 -0.2595
16555W        W35409   4.185   4.391   1.435  0.2561 -0.1679  0.0227
16556W        W35410  11.288  18.675   5.520 -0.0764  0.1154 -0.0014
16557W        W35411   1.011   1.141  13.838  0.0462 -0.1782  0.0484
16558W        W35412  11.799   1.962   1.783  0.2809 -0.3269  0.1304
16559W        W35413   2.303   0.922  11.244  0.1443  0.3194 -0.0242
16560W        W35414   7.176  11.918  14.253 -0.0281 -0.1682 -0.0759
16561W        W35415  10.102  15.574  11.522 -0.0892  0.2656  0.0492
16562W        W35416   5.848   6.178   2.600  0.0891 -0.1564  0.1812
16563W        W35417   6.613  17.930   5.346 -0.2240 -0.3055 -0.2959
16564W        W35418   1.143  17.398   3.478 -0.0507  0.0463  0.2029
16565W        W35419   1.430   6.607  11.525 -0.2703 -0.2077  0.0277
16566W        W35420  14.713  12.140   3.456 -0.1857  0.0638  0.3162
16567W        W35421  18.471   6.011   2.637  0.0274  0.0635 -0.3494
16568W        W35422  13.902  11.312  13.405 -0.0249 -0.0915 -0.0282
16569W        W35423  16.415   9.615   1.171  0.2634 -0.2467 -0.1613
16570W        W35424   9.370  13.200   9.507  0.2040  0.2380  0.2528
16571W        W35425  14.628   3.012  13.900 -0.0285 -0.4090 -0.2750
16572W        W35426  17.630   6.306  12.321  0.1200 -0.4674  0.1825
16573W        W35427   9.513   6.526   3.251 -0.4963  0.0006 -0.3107
16574W        W35428  13.976  14.796  10.540 -0.1640 -0.0400 -0.0105
16575W        W35429   7.542  11.386   3.088 -0.0830 -0.3171 -0.2180
16576W        W35430  11.336   1.785   1.049  0.0454 -0.0098  0.4562
16577W        W35431   7.321   8.750  11.702 -0.1127 -0.0339  0.1533
16578W        W35432   2.233   1.455   3.448  0.1203 -0.2936  0.0399
16579W        W35433   7.963  18.516  12.661  0.2469 -0.3412 -0.2181
16580W        W35434  14.087  15.415   0.805 -0.1219  0.4213 -0.3598
16581W        W35435  14.176  17.786  11.631  0.0924  0.0889 -0.3600
16582W        W35436   6.405  13.636   0.208 -0.0785 -0.2871 -0.0139
16583W        W35437   6.326   4.982  13.208  0.1702  0.0525 -0.1037
16584W        W35438   7.866   0.349  12.065  0.2285  0.3590 -0.4180
16585W        W35439  16.129   9.153  14.635  0.4752  0.0797  0.4140
16586W        W35440  11.570   3.852  13.364  0.0061 -0.1080 -0.0246
16587W        W35441  10.025  16.457  14.159 -0.1101 -0.0206 -0.1260
16588W        W35442  18.891  11.320   1.611  0.1462 -0.0763 -0.1326
16589W        W35443  10.444  13.672  12.952 -0.0451  0.2899 -0.0183
16590W        W35444   3.153  15.982  14.648  0.1872  0.3877  0.1211
16591W        W35445  12.803  10.633   0.486  0.3328  0.0058 -0.3463
16592W        W35446   2.683   3.714  14.623  0.0465 -0.0952 -0.1287
16593W        W35447  13.486  10.629  11.650  0.1123  0.3243 -0.1044
16594W        W35448   5.788   5.678  12.436  0.1752 -0.2674  0.1849
16595W        W35449   7.742   5.704   2.692  0.0208 -0.0145 -0.2288
16596W        W35450  12.806   5.481   4.187  0.2519 -0.6381  0.2941
16597W        W35451  17.158   2.140   1.452 -0.0909 -0.1232  0.0195
16598W        W35452  12.498   9.260   3.765 -0.0103 -0.0974  0.2258
16599W        W35453  17.992   7.149  14.633 -0.2050  0.4153 -0.3991
16600W        W35454   0.714   9.634   0.469 -0.0733 -0.0550  0.0178
16601W        W35455   3.138  16.056   1.959 -0.1126 -0.0801  0.0593
16602W        W35456  15.734  18.718   1.107 -0.1511 -0.0543  0.1270
16603W        W35457  18.210  13.150   1.477 -0.0480 -0.2354 -0.1809
16604W        W35458   5.190  11.283   3.424  0.1681 -0.0178  0.1280
16605W        W35459  13.008   2.020   2.336  0.3967 -0.1442  0.0167
16606W        W35460  12.474  17.510  12.471 -0.1096  0.1505 -0.3352
16607W        W35461   6.550  11.493   0.960 -0.1336  0.1962 -0.0043
16608W        W35462   7.449  12.360   0.181  0.3099 -0.3306  0.1933
16609W        W35463  12.966   4.635   0.345 -0.1639 -0.3893 -0.1786
16610W        W35464   3.812   3.121  11.053  0.0763  0.1453  0.0345
16611W        W35465  13.288  15.623   0.933  0.3082 -0.2876 -0.1914
16612W        W35466  12.893  14.282  12.391 -0.0542  0.0136  0.0808
16613W        W35467  12.007   6.484  13.624 -0.3674  0.1892  0.3528
16614W        W35468  12.902   9.367  10.549  0.0246 -0.1837  0.0246
16615W        W35469   3.956   1.022  12.698 -0.2660  0.3837 -0.0475
16616W        W35470  17.734  17.733   1.286  0.1191 -0.2583 -0.1799
16617W        W35471   8.085   2.853   0.519  0.1371 -0.1119 -0.1372
16618W        W35472  10.558   2.637  13.084  0.1800  0.0515  0.0057
16619W        W35473   5.832  19.177  14.262  0.1782  0.1126  0.0811
16620W        W35474  18.346  12.223  13.183 -0.2153  0.1620  0.2590
16621W        W35475   0.603  12.885  14.511  0.0509  0.0029 -0.0934
16622W        W35476   6.649  11.330   2.711 -0.1939  0.1326 -0.0087
16623W        W35477  16.804   3.149  14.699  0.0665  0.3240  0.0131
16624W        W35478   6.245   3.366   3.451  0.2721 -0.4417  0.0577
16625W        W35479  18.651   4.778  13.938  0.1346  0.2770 -0.0481
16626W        W35480  18.761  15.103  14.715  0.1037  0.2704  0.1907
16627W        W35481   5.952   5.127  10.318  0.0365  0.1408 -0.0834
16628W        W35482  17.359   2.896   1.769 -0.1233  0.3501 -0.1592
16629W        W35483   3.216  12.974   1.832 -0.3164 -0.0701 -0.2038
16630W        W35484  15.422   2.593   3.277 -0.0666 -0.3931  0.1799
16631W        W35485   9.418  16.351   1.323 -0.1073 -0.0917  0.0788
16632W        W35486   7.052  16.302  10.942  0.1455 -0.1077  0.0192
16633W        W35487  14.287  15.157   2.135 -0.1094  0.0877 -0.0861
16634W        W35488  18.569  13.894   3.569 -0.2961  0.0655  0.2541
16635W        W35489   5.644  11.478  14.535  0.2689 -0.2234 -0.2757
16636W        W35490  11.808   8.548   3.837 -0.0565 -0.1476 -0.0562
16637W        W35491   7.404   2.539   3.253  0.1497 -0.1399 -0.0370
16638W        W35492  16.799  17.403  11.051 -0.0090  0.0957  0.0567
16639W        W35493  14.313  18.210  10.332 -0.0617 -0.2290  0.0163
16640W        W35494   8.513  10.359   2.324  0.0121 -0.2775 -0.0567
16641W        W35495  14.083  18.469   3.585  0.2959  0.0319  0.2355
16642W        W35496  15.475   8.493   4.797  0.1102  0.2027  0.1069
16643W        W35497  12.611   7.326  10.912  0.2022 -0.0642 -0.3440
16644W        W35498   4.087   4.419  14.203  0.1609  0.1664  0.0174
16645W        W35499  14.203  15.150  12.925 -0.1672 -0.0572  0.3359
16646W        W35500  17.439   5.355  10.113  0.2102 -0.2751  0.0973
16647W        W35501  14.840   8.474  10.394 -0.2378  0.1118 -0.3371
16648W        W35502   1.450  15.425   4.176  0.1597 -0.0332  0.0426
16649W        W35503   4.791  14.242   0.792  0.2087  0.0108  0.2074
16650W        W35504  17.258  11.833   3.180  0.0863 -0.0401  0.0434
16651W        W35505  17.650   0.187  11.434 -0.0542 -0.1755  0.0426
16652W        W35506  13.739   8.661   1.865  0.0211 -0.0091 -0.3383
16653W        W35507  14.045   8.272  10.411  0.1068 -0.3148 -0.2327
16654W        W35508   0.921   5.931   2.797  0.2191 -0.0788  0.2871
16655W        W35509   8.621   6.986  12.786 -0.1164 -0.0024  0.3113
16656W        W35510   7.354  11.186   1.691 -0.2684  0.1809  0.0078
16657W        W35511   4.129   4.854   0.709 -0.3032  0.2399  0.1668
16658W        W35512   7.171  17.420  10.705  0.0206  0.1260 -0.2384
16659W        W35513  10.025   0.188  12.525 -0.1173  0.2258  0.1886
16660W        W35514  19.080   1.955  14.452 -0.1677 -0.1738  0.2659
16661W        W35515   1.434  16.261  13.088  0.2012  0.2132  0.3923
16662W        W35516   9.517   2.505   3.426  0.0017 -0.0414 -0.1207
16663W        W35517   8.611   2.046   0.913  0.2544  0.3346 -0.3071
16664W        W35518   0.491   1.790   4.879  0.0872  0.2199  0.1070
16665W        W35519  12.972   0.847  10.246 -0.3202 -0.0275  0.0331
16666W        W35520  13.115  12.410   3.021 -0.2253 -0.0562 -0.2506
16667W        W35521  10.856  12.991   3.530  0.0396  0.0017  0.3266
16668W        W35522   0.139  18.721   0.618 -0.0981 -0.1156  0.1961
16669W        W35523   7.134   3.148   3.917 -0.2790 -0.0011 -0.1270
16670W        W35524   4.119   4.676   1.901  0.1153 -0.2085  0.0478
16671W        W35525  15.168  14.567  13.758  0.2091 -0.0901 -0.0482
16672W        W35526  14.889  12.824  13.626  0.0803  0.2204  0.2345
16673W        W35527  14.875   1.631  14.610  0.2610  0.3701  0.0862
16674W        W35528   8.538  17.509   4.139  0.0920 -0.1483  0.2185
16675W        W35529  18.627   3.784   1.490  0.0458  0.1981  0.2215
16676W        W35530   2.949  17.357  13.898 -0.0369 -0.2119  0.1260
16677W        W35531  13.222  13.763   4.381 -0.2164  0.1701 -0.0004
16678W        W35532   5.717  11.053   1.790  0.0118 -0.2838  0.0356
16679W        W35533  17.992   6.124  11.988 -0.0822 -0.0151  0.0841
16680W        W35534   6.182   0.195  12.390  0.0466  0.4865 -0.1071
16681W        W35535   9.916  12.873  10.917  0.1992 -0.1065  0.3962
16682W        W35536  13.820   1.703   4.206 -0.1288 -0.0679 -0.2688
16683W        W35537  12.861  12.508  11.444 -0.2302 -0.0712  0.3449
16684W        W35538  17.060   7.134  14.653 -0.3496 -0.2708  0.2414
16685W        W35539  18.243   8.653   1.291  0.0135  0.2369  0.0018
16686W        W35540  10.764  18.609   0.706 -0.2034  0.2504  0.4542
16687W        W35541   3.368  16.710   3.783  0.0144 -0.1520  0.0342
16688W        W35542  10.077   2.922   1.301  0.1983  0.0641 -0.0019
16689W        W35543   2.304  13.746  14.668 -0.1800 -0.1290 -0.2252
16690W        W35544   6.608  12.149   4.018 -0.0652 -0.0634 -0.0054
16691W        W35545   8.832   9.290  13.021 -0.1089 -0.2235  0.0099
16692W        W35546  17.767  10.951   0.376  0.1045  0.0333  0.1610
16693W        W35547   7.720   7.484  10.597 -0.3672  0.5751  0.1886
16694W        W35548   9.079   5.669  13.171  0.2933 -0.3930 -0.0542
16695W        W35549   7.351   0.589  10.461 -0.1289 -0.1251 -0.4564
16696W        W35550  10.434  12.660  10.020 -0.3928 -0.2092  0.0105
16697W        W35551   2.107  16.462   1.327 -0.1665 -0.2173 -0.1078
16698W        W35552  18.552   5.255  14.141 -0.0412 -0.0362 -0.0977
16699W        W35553  10.990   4.046   3.192  0.2899  0.2383 -0.0675
16700W        W35554   4.884  13.898   9.662  0.0570 -0.0832  0.2257
16701W        W35555  11.600   9.860  10.640  0.1626  0.1547 -0.0698
16702W        W35556   6.931   8.043  13.245 -0.0147  0.0006 -0.0872
16703W        W35557  12.008  10.922   1.375 -0.0564 -0.0685 -0.1901
16704W        W35558  16.691   5.755   0.165 -0.0310 -0.1534  0.1293
16705W        W35559  13.274   1.186  14.727 -0.0141 -0.1904 -0.1037
16706W        W35560   6.467  10.019  13.813 -0.0934  0.3697  0.1202
16707W        W35561   1.986  14.422  12.550 -0.1639 -0.0807  0.2337
16708W        W35562   2.824   8.888  11.124  0.1940  0.0632 -0.4249
16709W        W35563  11.100   4.591  14.618 -0.1221  0.1305 -0.0396
16710W        W35564  18.022  12.503   4.996 -0.2638 -0.1928 -0.1841
16711W        W35565   4.726   6.024  13.070  0.1140 -0.0522  0.0782
16712W        W35566  16.976   4.145   0.525  0.1508  0.3650 -0.1051
16713W        W35567  16.443  13.049  12.076 -0.0721  0.0201 -0.1575
16714W        W35568   3.812   3.658  12.257 -0.2714 -0.1607 -0.0027
16715W        W35569  12.016   6.255   4.152 -0.0029 -0.1829 -0.1890
16716W        W35570  11.377  11.455  12.947 -0.0231 -0.0445  0.0061
16717W        W35571  14.715  15.625   0.560  0.0086 -0.1499 -0.0303
16718W        W35572   9.524   5.278  12.576  0.0296  0.0406 -0.1931
16719W        W35573   6.072   1.784  12.356 -0.2565 -0.0413 -0.2399
16720W        W35574   5.363  13.755   2.721 -0.3712 -0.0900  0.2815
16721W        W35575   0.419  14.995  11.852 -0.3183 -0.1403 -0.2623
16722W        W35576   8.760   9.120  11.430  0.2825  0.1201 -0.0188
16723W        W35577  10.273  14.515   2.852  0.0262 -0.1075  0.1176
16724W        W35578   1.086  13.202   2.797 -0.1775  0.0699 -0.2478
16725W        W35579  13.969   9.976  11.955  0.0381  0.0184 -0.1987
16726W        W35580  14.088   8.990  13.969  0.0471  0.1437  0.3373
16727W        W35581   2.324  12.582   2.850  0.0027  0.0853 -0.0120
16728W        W35582   8.724  11.444   2.396 -0.0358 -0.1888  0.0846
16729W        W35583   0.521   7.760  10.503 -0.0754 -0.0827  0.4030
16730W        W35584  13.884   2.252   4.211  0.2722  0.0077 -0.1068
16731W        W35585  17.254   5.798  10.802 -0.0960 -0.2362  0.1231
16732W        W35586  12.562   0.562   5.516  0.3440  0.0357 -0.2453
16733W        W35587  13.053   0.392  13.703  0.0331  0.0870 -0.1059
16734W        W35588  15.764  14.888   2.301 -0.0734 -0.1142  0.4291
16735W        W35589  10.023   6.581   0.571 -0.1313 -0.1518 -0.2473
16736W        W35590   1.939  12.329   3.199  0.0352 -0.1114 -0.1461
16737W        W35591   7.608  13.886   0.032 -0.0388  0.2703 -0.2396
16738W        W35592  18.656   3.128  11.343  0.4054 -0.0303 -0.0147
16739W        W35593   3.143  13.047   2.888  0.2244 -0.1906  0.3659
16740W        W35594  17.383  19.185   9.983  0.4804  0.0551 -0.0857
16741W        W35595  10.818  14.398   0.938  0.2085  0.2235 -0.1521
16742W        W35596  19.155   2.945   1.657  0.1834 -0.2775  0.0680
16743W        W35597  17.927   0.442   4.398  0.1203  0.0358 -0.1501
16744W        W35598   8.830  14.588   2.891  0.4052  0.0200  0.0284
16745W        W35599   5.746   1.169   3.208  0.2718 -0.0135  0.1651
16746W        W35600  18.111  16.742  13.785 -0.1791 -0.1520 -0.2240
16747W        W35601  17.969  18.829   0.526 -0.1345  0.0330  0.1370
16748W        W35602  11.315   3.545  12.119  0.3517 -0.0096 -0.2706
16749W        W35603   9.392  13.576  10.890 -0.1004 -0.1294 -0.0938
16750W        W35604  12.879  18.891   0.662  0.0500 -0.5903 -0.0782
16751W        W35605  16.952  15.875   0.630  0.1357  0.1968 -0.0489
16752W        W35606  11.849   1.324  12.283  0.0156  0.1352 -0.1703
16753W        W35607  17.517  18.221   2.190  0.1322 -0.0339  0.2224
16754W        W35608  16.258  12.352  11.815 -0.0144  0.0322  0.3003
16755W        W35609  14.331   6.384  13.326  0.0602  0.0968  0.0617
16756W        W35610  17.062   4.734  13.785 -0.0748 -0.1783  0.0858
16757W        W35611   9.204   0.485  13.216  0.3264  0.4030  0.1365
16758W        W35612   3.378   0.089  14.054  0.0777  0.0479 -0.0278
16759W        W35613   9.973  14.670   1.623 -0.2840  0.0528  0.1017
16760W        W35614   8.586   0.919  11.716  0.1874  0.1282  0.1759
16761W        W35615  16.798   0.461  12.131 -0.1256  0.0036 -0.2890
16762W        W35616   5.234  18.477   1.926  0.1109  0.1531 -0.0338
16763W        W35617  12.432   9.767  14.233 -0.1721 -0.1427 -0.0781
16764W        W35618  16.233   8.965   9.333 -0.1677  0.1426 -0.4248
16765W        W35619  10.131   4.178   4.006  0.2935 -0.1915 -0.2031
16766W        W35620  16.356   7.535  13.181  0.1493  0.3305 -0.0748
16767W        W35621  18.761   8.420   0.428  0.0595 -0.0152  0.0412
16768W        W35622  14.050  16.920  12.322  0.2946 -0.0383  0.1755
16769W        W35623   7.601   4.837  12.479  0.1929 -0.0260 -0.2023
16770W        W35624  10.596  16.006   5.034  0.2159 -0.1171  0.1108
16771W        W35625  15.909  13.765   2.372  0.0030 -0.0530  0.4374
16772W        W35626  12.583  15.452   3.678  0.2301 -0.2844 -0.0768
16773W        W35627   3.395   9.717  14.148 -0.1448 -0.0114 -0.1249
16774W        W35628   4.632  17.243   2.940 -0.3726 -0.0937 -0.2354
16775W        W35629   2.166  14.470  13.507 -0.0974 -0.0833  0.0182
16776W        W35630   0.800   8.431  13.699  0.0921 -0.3342  0.0511
16777W        W35631   5.819   8.523   2.649 -0.0658  0.3173 -0.0763
16778W        W35632   9.665  17.072   1.286 -0.1443  0.0901 -0.2799
16779W        W35633  18.021  10.402   1.262 -0.4463 -0.1026  0.0391
16780W        W35634  19.056   4.653   3.493  0.1657 -0.3046  0.1716
16781W        W35635   2.090   1.882  12.816  0.0255 -0.0958  0.1817
16782W        W35636   6.128  15.034   0.432 -0.0555  0.0055  0.4117
16783W        W35637   7.673   4.684  13.006  0.1580  0.1089  0.3098
16784W        W35638  15.364  18.006  13.467 -0.0186  0.0850  0.0637
16785W        W35639   7.725   2.842  11.643 -0.2206  0.3538 -0.0838
16786W        W35640   0.900   8.821  11.966  0.1335  0.3156 -0.1291
16787W        W35641  10.202   2.524   0.772 -0.0515  0.2477 -0.4251
16788W        W35642  11.210  15.150   1.180 -0.1670  0.1932 -0.4345
16789W        W35643  10.532   6.182  13.817 -0.1866  0.0290 -0.0832
16790W        W35644  13.601   0.260   1.684 -0.1745  0.2197  0.2843
16791W        W35645   6.891   9.711   2.046  0.0612  0.2132  0.1059
16792W        W35646   5.834   3.154  12.434  0.0198 -0.3787 -0.0457
16793W        W35647   2.708   5.928  10.777 -0.1259 -0.1401  0.0293
16794W        W35648  18.495  10.149  11.561 -0.1494 -0.2081 -0.0540
16795W        W35649   2.854  18.031  11.400 -0.1024  0.0527 -0.0216
16796W        W35650   7.668   1.286  13.851 -0.1520  0.0962 -0.0008
16797W        W35651  11.685  13.767  13.153  0.1539  0.1105 -0.0810
16798W        W35652   1.382   8.515   3.480 -0.2317 -0.1001 -0.2143
16799W        W35653  12.444  11.241  11.082 -0.1199  0.0772  0.0927
16800W        W35654   7.058   0.946  14.555  0.3484 -0.1191  0.0168
16801W        W35655   3.452  14.365   4.203 -0.2152 -0.1021 -0.0837
16802W        W35656   4.648  15.637  11.030 -0.1492  0.0142  0.1895
16803W        W35657  14.541   0.062   4.308 -0.1246  0.0562 -0.0261
16804W        W35658   7.294   1.590   2.722  0.0291  0.0781 -0.2198
16805W        W35659   3.592  16.875  10.988 -0.1592  0.1998  0.2317
16806W        W35660  18.684   7.691   2.873 -0.0562  0.2597 -0.0537
16807W        W35661   8.734  11.343  10.524  0.0698  0.0029 -0.1638
16808W        W35662   3.642   8.285   3.331  0.0771  0.2399 -0.0952
16809W        W35663  13.494   0.783   0.865  0.1877 -0.4204  0.3694
16810W        W35664  18.596   6.122  13.786 -0.0487 -0.2525  0.1154
16811W        W35665  11.596  10.007  13.857 -0.2700 -0.0599 -0.0222
16812W        W35666  12.051   0.617   0.700  0.3214  0.0024 -0.1997
16813W        W35667   4.686  17.987   3.786  0.1217  0.1327 -0.2703
16814W        W35668   6.470  14.120  10.838 -0.1836 -0.1484  0.0141
16815W        W35669   8.480  15.792  13.878  0.2493 -0.3480 -0.1336
16816W        W35670  15.687   4.959   2.111  0.0041  0.0846  0.1086
16817W        W35671   5.144   1.518  12.446  0.2338  0.1357  0.0989
16818W        W35672  10.453  14.769  12.037  0.2353  0.5304 -0.2542
16819W        W35673  13.635   1.013  10.021 -0.1014 -0.1718  0.1042
16820W        W35674   4.218  13.426  13.984 -0.1336  0.2007  0.1647
16821W        W35675   5.712   3.209  10.926 -0.0151  0.2382  0.1394
16822W        W35676  14.323  13.609   4.057 -0.0643  0.4405  0.0957
16823W        W35677  14.984  10.026   1.432 -0.1597 -0.1160  0.0165
16824W        W35678   7.465  18.850  10.641  0.0463 -0.1533  0.0819
16825W        W35679   9.876  12.464   0.550  0.3548  0.2092  0.1313
16826W        W35680  16.518   9.690   0.283  0.1484  0.2593  0.1776
16827W        W35681  18.408  14.124   1.415 -0.1078  0.0220 -0.0509
16828W        W35682   0.863  18.210   2.602 -0.0613 -0.0443 -0.0555
16829W        W35683   0.843  12.637  12.719 -0.0536  0.3763 -0.3671
16830W        W35684  10.671   2.250  11.025 -0.0364  0.2037 -0.0944
16831W        W35685   0.344   6.155   2.868 -0.0338 -0.1037 -0.1919
16832W        W35686  16.876   1.042  12.222  0.1988  0.1107  0.0982
16833W        W35687  14.479   3.930   1.957 -0.1472  0.2535 -0.1447
16834W        W35688  14.330   9.968  12.292 -0.3504 -0.0927  0.0763
16835W        W35689   3.469  18.826   2.345 -0.0275  0.1359 -0.0564
16836W        W35690   6.785   9.741  10.237 -0.1073  0.2065  0.1956
16837W        W35691  10.081   3.475  14.264 -0.0039 -0.1178 -0.2185
16838W        W35692  13.893  16.330  14.490 -0.0410 -0.0438 -0.1691
16839W        W35693   9.606   0.714  14.104 -0.1653  0.2837 -0.2204
16840W        W35694   5.731   1.480   2.259  0.4082 -0.2254  0.0668
16841W        W35695  10.856  10.246   9.993  0.0937 -0.0032  0.2948
16842W        W35696  10.587  14.047   2.503  0.0584  0.0661 -0.1521
16843W        W35697   9.490  17.593  13.508  0.2537  0.0860  0.1978
16844W        W35698   2.317   0.405   4.253 -0.1784 -0.0126 -0.0574
16845W        W35699   9.733   1.602  14.022 -0.1436  0.0966  0.0056
16846W        W35700  12.241   2.670   1.552  0.1052 -0.0221  0.1136
16847W        W35701   3.974   2.631  11.022 -0.1331 -0.0224 -0.2217
16848W        W35702   1.203   8.277   9.729  0.4692 -0.1676 -0.1620
16849W        W35703  14.951  14.754   0.706  0.3775 -0.1088  0.2611
16850W        W35704   9.751  16.935   9.862  0.4862  0.2863 -0.2096
16851W        W35705   1.450   7.854   1.065 -0.3714 -0.0496  0.1136
16852W        W35706   6.090  15.979   3.797 -0.0383  0.1782  0.1173
16853W        W35707  11.443   3.042   2.927 -0.5321  0.0911 -0.0974
16854W        W35708  15.769   0.378   3.622  0.1211 -0.1130 -0.0815
16855W        W35709  11.834  10.707   3.944  0.0824  0.1333 -0.1219
16856W        W35710   9.020   5.915   1.535  0.0422 -0.0385 -0.2317
16857W        W35711   4.537  11.195  10.596  0.2940  0.2971  0.1736
16858W        W35712   1.800   4.557   0.045  0.1146  0.0701 -0.2643
16859W        W35713   4.364   5.124   1.220 -0.4144 -0.0014 -0.2301
16860W        W35714  19.018   1.435   4.819 -0.3347 -0.4147  0.1817
16861W        W35715   8.936  16.101  14.027  0.0298 -0.1134  0.2107
16862W        W35716  11.477  15.244   0.019 -0.0795 -0.2275 -0.0496
16863W        W35717   7.311   0.927   1.781 -0.2414  0.0417 -0.2328
16864W        W35718   9.522   4.530  11.263 -0.1434  0.0117 -0.2508
16865W        W35719   7.860   4.643  12.097 -0.1569 -0.1020  0.1143
16866W        W35720  15.570   7.816   3.644  0.0744  0.1349 -0.1823
16867W        W35721  17.336   4.856  12.118  0.0403  0.2212  0.5240
16868W        W35722  14.168  16.580   1.670  0.3525 -0.2743  0.0607
16869W        W35723   3.894   9.679   0.001  0.3132 -0.1499  0.3530
16870W        W35724   0.588  13.624   0.182  0.0949 -0.2842  0.2488
16871W        W35725  15.349   3.220  12.511  0.0069 -0.1085 -0.1856
16872W        W35726   3.086  12.868   3.859 -0.0735  0.0315 -0.0480
16873W        W35727  11.986   8.847  12.190  0.0905 -0.0596 -0.0151
16874W        W35728  10.993  17.266  11.834  0.0072 -0.0719 -0.0920
16875W        W35729  16.876  13.399   3.156  0.3737 -0.1021 -0.1926
16876W        W35730  12.701   1.166   1.329  0.2904  0.1384 -0.1741
16877W        W35731   3.158   9.692   2.192 -0.0689  0.2587 -0.1956
16878W        W35732   2.697   6.181  12.591 -0.3760  0.1889 -0.0674
16879W        W35733  13.451   3.233   4.173 -0.2114  0.0289 -0.2173
16880W        W35734  17.444   8.401  14.192 -0.2127 -0.1634  0.2426
16881W        W35735  15.107   5.282  10.545 -0.1921 -0.1895 -0.0209
16882W        W35736  17.471  15.408  12.326 -0.2359 -0.2278  0.1353
16883W        W35737  13.424  10.559  12.612  0.3057  0.3288 -0.0159
16884W        W35738   4.422  14.488   2.582  0.5802 -0.3074  0.0746
16885W        W35739   8.305  13.758   3.958  0.1394 -0.1968  0.2481
16886W        W35740  17.854  13.660   4.651  0.2947  0.3742  0.1321
16887W        W35741  18.765  15.322  12.189 -0.0531 -0.1495  0.2349
16888W        W35742  16.751  18.967   4.395  0.2281 -0.0190 -0.1536
16889W        W35743   1.400  14.331   1.288  0.4678 -0.1276 -0.2639
16890W        W35744   7.353   3.954  13.396 -0.0909  0.2301  0.1632
16891W        W35745   9.126  17.206  11.966  0.0423 -0.0739  0.2011
16892W        W35746  17.090   1.217  11.795 -0.0299 -0.0176  0.2000
16893W        W35747  14.536   8.101   1.886  0.2865 -0.0971 -0.2241
16894W        W35748  18.704  16.847   4.682  0.1076 -0.1442  0.0169
16895W        W35749   7.907  15.656  10.159 -0.1503  0.0410  0.0421
16896W        W35750  12.827  16.044   0.910 -0.1473  0.0633 -0.0329
16897W        W35751  14.660  13.809   0.726  0.1731  0.1354  0.0688
16898W        W35752   5.599  16.997  12.300  0.2627 -0.3252 -0.0031
16899W        W35753   4.343   6.386   0.947 -0.2103  0.1814 -0.0349
16900W        W35754  11.718   1.082   2.961 -0.2609 -0.1941 -0.1256
16901W        W35755   5.472   3.535   2.425 -0.0073  0.3965 -0.0966
16902W        W35756   4.312  19.069   0.460  0.1413 -0.1727 -0.1609
16903W        W35757   6.816  13.921   2.701 -0.1255  0.1865  0.2809
16904W        W35758  17.551   2.992   0.413  0.1129  0.0864 -0.0520
16905W        W35759  18.570   2.301   3.402 -0.1206 -0.1852  0.0191
16906W        W35760   5.644  19.157   3.959 -0.1808 -0.2072 -0.3541
16907W        W35761  16.511   5.446  13.955 -0.1429  0.1766 -0.0982
16908W        W35762  10.225  15.109   0.875 -0.0465  0.1239  0.2495
16909W        W35763   6.410   1.196  11.252 -0.0680 -0.0083  0.0114
16910W        W35764  13.724  17.452  11.934  0.1060 -0.0917  0.1163
16911W        W35765   3.674   1.685   3.760  0.4821  0.0288 -0.1804
16912W        W35766   8.459   1.888  14.261  0.2380  0.0482 -0.4020
16913W        W35767   5.892  14.967  13.629  0.0882 -0.0385  0.2125
16914W        W35768   6.974  10.521   1.810  0.1312 -0.2314  0.2484
16915W        W35769   5.701  15.243   2.065  0.2420  0.1347  0.1844
16916W        W35770   8.760   1.238   2.432  0.0792  0.1379 -0.0770
16917W        W35771  12.407  15.080  12.941  0.0826 -0.0853 -0.1507
16918W        W35772  16.848  14.062   0.492  0.1222 -0.2449 -0.0595
16919W        W35773   1.471  17.781   4.481  0.1669 -0.2272 -0.2532
16920W        W35774   2.085  18.855   3.909 -0.0495 -0.1468 -0.3139
16921W        W35775  18.934  12.956  14.299 -0.1311 -0.0094 -0.1124
16922W        W35776   9.766   1.251  12.136  0.3170  0.0320  0.2710
16923W        W35777   5.514  13.072   0.873 -0.1054 -0.0122  0.0803
16924W        W35778   5.187   6.131  11.836 -0.1089 -0.1685 -0.2843
16925W        W35779   4.738   5.033  14.122  0.0893  0.1034  0.0195
16926W        W35780   8.056  12.180   0.525 -0.0347  0.3681  0.3343
16927W        W35781   0.912  16.504   3.557  0.0312  0.1599  0.0428
16928W        W35782  15.652   8.914  14.690 -0.2891 -0.2493 -0.3296
16929W        W35783  16.426  17.565   1.914 -0.3032  0.0900  0.0091
16930W        W35784  10.088  13.861   1.301 -0.0106 -0.2086  0.3172
16931W        W35785  18.375  16.884   3.784 -0.4449 -0.4241 -0.1563
16932W        W35786   6.768  10.548   3.315 -0.2109 -0.1042  0.3218
16933W        W35787  13.065  15.693   4.039 -0.1784 -0.0736  0.0661
16934W        W35788  11.787   2.872   0.223 -0.1806  0.2450  0.1092
16935W        W35789  12.047   1.397  13.804 -0.0314 -0.1855 -0.2374
16936W        W35790   9.215   8.515   3.210  0.1291  0.1641 -0.1418
16937W        W35791   8.574   8.106  12.823  0.1987 -0.0731 -0.3140
16938W        W35792   0.660   8.816   4.143 -0.0494  0.2071  0.2025
16939W        W35793  12.534  12.832   3.836  0.0526  0.0187 -0.0787
16940W        W35794   7.148  15.330  12.902 -0.2831 -0.3316  0.0913
16941W        W35795  16.656  13.343  10.173 -0.0805  0.1974 -0.1876
16942W        W35796   8.443  10.820  11.884 -0.1318 -0.0818  0.3711
16943W        W35797  14.808  11.858   1.868  0.2241 -0.0655  0.1395
16944W        W35798  16.174   3.917   3.240 -0.3328  0.1163 -0.0723
16945W        W35799   9.828  11.649  13.616  0.1336  0.1418  0.0122
16946W        W35800  10.654  11.711  14.513 -0.3457  0.3614 -0.0487
16947W        W35801   4.348  11.971  12.894 -0.2406  0.4365 -0.2662
16948W        W35802  12.265  17.065  12.606 -0.3379 -0.2951  0.1614
16949W        W35803  18.462  17.344   2.828 -0.0901  0.2358 -0.2833
16950W        W35804  12.500  17.948  14.434  0.0837 -0.1753 -0.0888
16951W        W35805  10.065  12.405  11.850  0.1061 -0.0376  0.0587
16952W        W35806   5.342  14.034   4.381  0.2432 -0.3268 -0.2297
16953W        W35807  14.908   6.144  13.734  0.2566 -0.1374  0.0019
16954W        W35808   4.518   3.897   3.322  0.2416  0.0803  0.2037
16955W        W35809  17.031   5.463  11.615  0.1223 -0.0902  0.0561
16956W        W35810  17.173  11.212  12.083 -0.0030 -0.2660 -0.2290
16957W        W35811   4.813  18.566   4.651  0.0024  0.0813  0.0350
16958W        W35812  14.721  11.502  11.233 -0.1594  0.2285 -0.3034
16959W        W35813  18.814   9.150  11.408 -0.0576 -0.1909  0.0245
16960W        W35814  16.290   6.800  12.402 -0.0310  0.1759  0.2338
16961W        W35815  11.306  19.188  12.517  0.0620  0.1251 -0.2516
16962W        W35816  10.049   9.984  11.645  0.0524 -0.0989 -0.1335
16963W        W35817   0.552  15.089   3.332  0.1513  0.0337 -0.1804
16964W        W35818   3.548   2.703   1.507 -0.2274  0.2620 -0.0680
16965W        W35819   6.628   7.627  13.452  0.1389  0.1774  0.1674
16966W        W35820  11.115   9.724  13.564  0.0792 -0.3122  0.3560
16967W        W35821  10.989  12.034  11.288 -0.1893  0.1615 -0.3448
16968W        W35822  10.718   4.843  11.014  0.0664 -0.0377  0.1878
16969W        W35823   1.768  18.678   2.950  0.0906  0.0127  0.0602
16970W        W35824  10.745  11.274   0.861 -0.3268  0.1836 -0.4538
16971W        W35825   9.306  11.764  11.177 -0.3305  0.1876 -0.0610
16972W        W35826   5.618   7.267  14.305 -0.1831 -0.0819 -0.0117
16973W        W35827   4.112   0.706   1.332 -0.2168 -0.0585  0.0129
16974W        W35828  14.728   0.049   5.082  0.2418 -0.0123  0.1698
16975W        W35829   8.624  18.959   9.627  0.0738 -0.2086  0.0130
16976W        W35830   2.559  14.913   3.260  0.1247 -0.3279 -0.0992
16977W        W35831   5.630   6.280  12.172  0.0261  0.1198  0.0798
16978W        W35832   8.962   3.509   4.200 -0.1219 -0.0761  0.1262
16979W        W35833  12.140   1.163  12.671 -0.1452 -0.2474 -0.0314
16980W        W35834   6.228  17.790  14.660 -0.1731 -0.2199 -0.1808
16981W        W35835   4.841  18.052   1.614  0.0882 -0.0311  0.2604
16982W        W35836   3.847   6.906   1.827 -0.2791 -0.2178  0.0753
16983W        W35837  16.581   9.929  10.773 -0.0383 -0.0351 -0.2475
16984W        W35838   3.147  14.819  11.668  0.2399  0.0797  0.3435
16985W        W35839   3.431  16.515  12.259  0.1865  0.1030 -0.1704
16986W        W35840   8.141   7.697   1.190 -0.0017 -0.4103  0.0917
16987W        W35841   7.740  18.935  12.634 -0.1951  0.0941  0.2309
16988W        W35842  13.966  17.061   3.040 -0.2073  0.0929 -0.1406
16989W        W35843   1.465   8.813  10.400  0.1693 -0.0883 -0.1520
16990W        W35844   9.510   9.009  12.697 -0.0435 -0.2313  0.2148
16991W        W35845   4.829   3.835  10.662  0.0443  0.1335  0.0072
16992W        W35846  16.792  18.984  14.414  0.0119  0.1582 -0.0559
16993W        W35847   7.953   3.058  13.738 -0.0569 -0.0972  0.0590
16994W        W35848  13.883  15.454   2.461 -0.2204 -0.1391 -0.1151
16995W        W35849  15.322   8.368  13.648 -0.2687  0.0954  0.0431
16996W        W35850   1.494   9.917  11.549  0.0350 -0.1617 -0.1585
16997W        W35851  10.728   0.076   4.154  0.1413 -0.0233  0.0533
16998W        W35852  17.042  15.727   2.889  0.3337  0.2997 -0.0957
16999W        W35853  11.905   6.177  12.504  0.0816 -0.3546  0.1492
17000W        W35854   6.180  15.610   5.488  0.0353 -0.2422  0.1635
17001W        W35855   8.560  17.801   2.542  0.2384  0.0741  0.1621
17002W        W35856  11.438   7.483  14.455 -0.1518 -0.5221 -0.2383
17003W        W35857   0.179   0.923  10.681  0.0104 -0.0279 -0.1147
17004W        W35858  13.347   4.334  11.024 -0.0036 -0.2517 -0.1060
17005W        W35859   7.142  16.342  12.359  0.2807  0.1168 -0.1826
17006W        W35860   0.584   7.269   0.265  0.5695  0.0538 -0.1601
17007W        W35861  19.147   8.418  11.110 -0.1833  0.1255  0.0860
17008W        W35862  15.531   5.113   4.077 -0.0121 -0.1345  0.3815
17009W        W35863  13.873   2.423   0.577  0.0632 -0.1587  0.0205
17010W        W35864   0.938  10.362  12.468 -0.1051  0.1209  0.0875
17011W        W35865   1.362  13.081   1.776  0.0666 -0.2162 -0.0236
17012W        W35866   8.820  12.261  12.126 -0.1385 -0.2540 -0.0866
17013W        W35867   2.458   5.438  14.341 -0.1811  0.1963 -0.4772
17014W        W35868   5.741  18.481   3.391  0.3337  0.4537  0.3095
17015W        W35869  12.011  12.093   1.635 -0.1412  0.2417  0.1825
17016W        W35870  19.073   1.262  10.349  0.0738 -0.1735  0.1022
17017W        W35871   3.107   5.311   1.736  0.3226 -0.0524  0.1781
17018W        W35872  11.031   7.907   0.231 -0.0634 -0.3169  0.0634
17019W        W35873   2.250  16.469   3.209  0.1572  0.1086  0.0738
17020W        W35874   9.320   4.841   2.476 -0.0759  0.2764  0.0896
17021W        W35875  17.193   5.699   2.537  0.1937 -0.1532 -0.2656
17022W        W35876   2.301   0.643  13.766 -0.0256 -0.0995 -0.1170
17023W        W35877  15.303  11.855  12.985  0.1304  0.1167 -0.0687
17024W        W35878   9.092   9.779   4.006  0.1968 -0.1462 -0.3189
17025W        W35879   7.896   6.848   3.704 -0.0788  0.0103  0.1221
17026W        W35880  15.173  17.226  12.100 -0.1886 -0.2832 -0.3015
17027W        W35881   6.611   2.945  13.661  0.1074  0.0777 -0.3229
17028W        W35882   9.451  12.405   0.463 -0.0829  0.0583 -0.3205
17029W        W35883   8.223   9.664  12.789  0.0869 -0.1570 -0.1927
17030W        W35884  15.521  13.923   2.711 -0.1130 -0.2291 -0.0118
17031W        W35885   2.765  13.933   1.812 -0.0841 -0.3438 -0.0536
17032W        W35886  10.514   0.838  11.798 -0.0761 -0.1548 -0.0628
17033W        W35887  15.891   9.285   4.337  0.1993 -0.2913 -0.0413
17034W        W35888   0.923   4.962  11.210  0.4234  0.1026 -0.2538
17035W        W35889   2.918  10.470   0.319 -0.0521 -0.1430  0.2770
17036W        W35890  18.375  15.595  11.301 -0.1692 -0.1323  0.0983
17037W        W35891   1.485  16.661   2.605 -0.1154  0.1410  0.1562
17038W        W35892   8.649  13.567   2.190  0.0065 -0.2615  0.2755
17039W        W35893   7.150  18.107   1.216  0.0305 -0.0858  0.0092
17040W        W35894  19.145   3.764   2.963  0.1965 -0.2389 -0.1766
17041W        W35895  12.516   5.932   4.252  0.0981  0.0238  0.0492
17042W        W35896   2.995  12.252  11.443 -0.0123  0.5712  0.2399
17043W        W35897   8.891  10.443  13.707 -0.0931 -0.0767  0.0135
17044W        W35898  13.559  17.979   2.757  0.2684  0.0755 -0.0652
17045W        W35899   4.969  17.327  10.505  0.2657 -0.1474  0.0362
17046W        W35900   2.939  15.461   4.091 -0.0883  0.1919  0.0035
17047W        W35901   4.935  14.304  12.529 -0.2982  0.0370  0.1205
17048W        W35902   1.224  12.135   4.432 -0.3126  0.1188 -0.2785
17049W        W35903   4.632   3.244  12.934 -0.1226  0.2042  0.0834
17050W        W35904  18.347   7.045  10.542 -0.1616  0.2205 -0.1710
17051W        W35905  10.441  11.687   1.375 -0.3095  0.1526  0.1819
17052W        W35906   7.243  17.807   0.395 -0.1019  0.1233  0.0425
17053W        W35907   0.781   4.574   3.798  0.0734 -0.3171 -0.1042
17054W        W35908  14.063  18.008  14.713  0.1981 -0.1689  0.2092
17055W        W35909   9.358   8.831  11.723 -0.1014  0.0787 -0.2729
17056W        W35910   9.409   8.354   4.177 -0.1515  0.2138  0.2998
17057W        W35911  12.243  16.863   3.958 -0.0662 -0.0618 -0.2041
17058W        W35912  13.184  10.090  11.357 -0.0805  0.0409 -0.1933
17059W        W35913  17.416  15.124   2.786  0.1497  0.1723  0.1102
17060W        W35914  16.604   5.612  13.476 -0.1370  0.1366  0.0401
17061W        W35915   0.308  12.198  11.448  0.0517 -0.0817  0.1801
17062W        W35916  11.976  13.551   3.950 -0.1199  0.4536 -0.1067
17063W        W35917   7.962  11.845  12.357  0.3654  0.0748  0.2521
17064W        W35918  13.611  10.619   1.340  0.1507  0.0851  0.0989
17065W        W35919  15.852   8.028   3.152  0.2536 -0.1537  0.4745
17066W        W35920   1.670  11.063   3.316  0.4282 -0.0626  0.3254
17067W        W35921  10.380  16.800  11.976  0.1200  0.1044  0.3515
17068W        W35922  15.130  18.252   4.077  0.1917 -0.1975 -0.1897
17069W        W35923   9.270  12.973  12.486  0.2178 -0.0421  0.3615
17070W        W35924  17.997  17.723   4.263  0.2369 -0.1555 -0.1506
17071W        W35925  13.960  17.943  11.194  0.2147 -0.0908  0.0650
17072W        W35926   4.728   0.018  10.400  0.1055  0.0708 -0.1322
17073W        W35927   7.316   4.230   0.626 -0.1134  0.0062 -0.0813
17074W        W35928   0.647  12.661  10.019 -0.0662  0.5491  0.1085
17075W        W35929  17.798   5.996  13.776 -0.0081 -0.0189 -0.0005
17076W        W35930   9.959  16.502  13.555  0.1756 -0.4272  0.0438
17077W        W35931  18.625   6.637  14.050 -0.0429 -0.3391  0.0516
17078W        W35932  16.196   0.989   1.564 -0.0271  0.2658 -0.1387
17079W        W35933   4.501   5.513  12.075 -0.1208 -0.2670 -0.0184
17080W        W35934  13.038   0.063   3.476  0.3115 -0.2081  0.0645
17081W        W35935   5.822  11.780   1.457  0.2463  0.1102  0.3874
17082W        W35936   2.431   5.773  14.022  0.2051 -0.0132  0.1639
17083W        W35937   2.039   7.571   1.970  0.0090  0.1567  0.1497
17084W        W35938  12.072   1.955  11.624 -0.3422  0.0161  0.0858
17085W        W35939   7.991  17.811   1.611 -0.0409 -0.2487 -0.2846
17086W        W35940  14.905  18.226   3.143  0.3398 -0.0446  0.3091
17087W        W35941   3.330   1.880   1.776 -0.1032  0.2992 -0.1109
17088W        W35942   9.779  17.582   3.537 -0.4631  0.0842 -0.1005
17089W        W35943   4.524   0.719  13.417 -0.0386 -0.0102  0.0219
17090W        W35944  14.747   1.951   2.022  0.0032 -0.1391 -0.1221
17091W        W35945  11.240  15.846  11.047 -0.1751 -0.2239 -0.3384
17092W        W35946   0.084   3.337   2.069  0.2149 -0.1286 -0.2375
17093W        W35947   2.032  17.186  12.985  0.3213  0.0373 -0.0553
17094W        W35948   8.341  18.570   4.065 -0.2931  0.2021 -0.0759
17095W        W35949  16.074   3.373   1.418  0.0115 -0.3283 -0.3050
17096W        W35950   3.784  10.011   4.212 -0.0740 -0.0438  0.3606
17097W        W35951   2.366   0.954  10.712 -0.2635 -0.3510 -0.1220
17098W        W35952  15.255   8.919  13.284  0.0415  0.0821 -0.1621
17099W        W35953   9.692   6.148  13.539 -0.1249  0.0356  0.2811
17100W        W35954  15.117   2.223  11.166  0.0411 -0.2511  0.0176
17101W        W35955  14.874   2.560  14.444  0.2112  0.0569  0.1901
17102W        W35956  16.555   0.154   3.127 -0.0365  0.1330  0.0564
17103W        W35957  18.203  12.336  11.619 -0.3042 -0.1840  0.1529
17104W        W35958   5.753  15.623   5.794  0.0098  0.0932  0.2564
17105W        W35959  12.159   7.636   1.828  0.0309 -0.1267 -0.1309
17106W        W35960  10.191  12.087  11.417  0.1950 -0.2609  0.1592
17107W        W35961   2.534   8.507  12.088  0.3671  0.2593 -0.2926
17108W        W35962  18.321  10.450   0.790  0.0428  0.2296  0.3615
17109W        W35963   1.875  15.069  10.958  0.0142 -0.3557 -0.3170
17110W        W35964   7.008  13.418  13.018  0.0734  0.3688 -0.2859
17111W        W35965  18.806  16.002  11.284  0.3317  0.0791 -0.1292
17112W        W35966   9.256   6.603   1.964  0.0122 -0.0061  0.1372
17113W        W35967   7.285   7.937  11.153 -0.2196 -0.2751 -0.1176
17114W        W35968   6.573   7.563  10.664 -0.1956  0.2393 -0.0155
17115W        W35969  15.125  16.825  11.790  0.0834  0.0680 -0.2222
17116W        W35970   8.316  13.495  13.249 -0.0364  0.1985  0.2077
17117W        W35971   8.736  13.032  12.603  0.0561 -0.0326 -0.0394
17118W        W35972  16.378   9.721  11.326 -0.1239  0.3564 -0.1072
17119W        W35973   3.372  10.451  12.726 -0.0592  0.2495 -0.0682
17120W        W35974  12.530   3.120  13.169 -0.0696  0.1246 -0.1512
17121W        W35975  15.451  16.232   3.610 -0.1304  0.0732  0.0320
17122W        W35976   0.422  11.976   3.576  0.1584 -0.1462 -0.0579
17123W        W35977   2.789   8.331   3.795  0.2447  0.0214  0.0146
17124W        W35978   0.658  11.760  14.477  0.0162  0.1735 -0.1080
17125W        W35979   6.141  11.504  13.407  0.1096 -0.1064  0.0713
17126W        W35980   9.930   0.852   5.218 -0.3434 -0.1028 -0.2156
17127W        W35981   9.501   9.226   2.962  0.1140 -0.1358  0.0837
17128W        W35982   1.759   2.520   4.255 -0.4329 -0.0896  0.2447
17129W        W35983  16.995  15.348   4.554  0.1404 -0.1462  0.2971
17130W        W35984  19.073  11.883   3.603 -0.1684 -0.0970 -0.2685
17131W        W35985   1.890   4.443   1.073 -0.3342  0.0132  0.1388
17132W        W35986  14.355  10.140   3.484 -0.1541 -0.1029  0.1095
17133W        W35987   1.665   7.291   9.579 -0.2729  0.0886  0.4440
17134W        W35988  13.630   3.959   3.972 -0.0116  0.0535 -0.1743
17135W        W35989   7.913   1.900   2.611 -0.1892  0.0645  0.1575
17136W        W35990   2.555   4.016   1.585 -0.1680  0.2491  0.1833
17137W        W35991   1.033  19.161   3.314 -0.1682  0.0232 -0.2610
17138W        W35992   7.656  13.055   1.485 -0.0661 -0.0002 -0.3346
17139W        W35993  11.708  14.960  12.500 -0.3653  0.1803 -0.1016
17140W        W35994   1.525   4.055   9.486 -0.1199  0.0336  0.3004
17141W        W35995  10.538  17.003  12.851  0.0846 -0.1297  0.1581
17142W        W35996  19.106   7.100   0.484  0.1008 -0.2819 -0.2109
17143W        W35997   6.813   9.162   0.677 -0.0874  0.1626 -0.0617
17144W        W35998   0.140   5.315  13.934  0.1577  0.1872 -0.5248
17145W        W35999   1.247  14.958   1.290 -0.0387  0.0507  0.0774
17146W        W36000   3.404  11.639   3.992 -0.2651  0.1945  0.1306
17147W        W36001   9.346  15.328   5.495 -0.1189  0.2144  0.1298
17148W        W36002   8.560  10.514   2.835 -0.4147 -0.2255  0.2628
17149W        W36003   1.240  12.970  14.164  0.0468 -0.0993 -0.1730
17150W        W36004   0.035   5.472   2.211  0.3831 -0.2143 -0.0830
17151W        W36005   7.262   3.340  12.215  0.0461 -0.1299  0.3046
17152W        W36006   5.027   6.959  11.007  0.3336  0.4353  0.3439
17153W        W36007  16.232   2.222   2.132  0.0464  0.2836 -0.1084
17154W        W36008  15.791  13.969   4.048  0.1572  0.2181 -0.1809
17155W        W36009   0.296   3.550   2.574  0.1832  0.3239  0.1229
17156W        W36010   0.050   4.391  12.628  0.1699  0.2098  0.0721
17157W        W36011   2.744  14.661   0.063  0.0708  0.1580 -0.0323
17158W        W36012   0.591  13.578  11.958 -0.0136 -0.0691 -0.3582
17159W        W36013  17.008  14.132  12.510 -0.0816 -0.1297  0.0869
17160W        W36014   8.432  11.018  14.611  0.1549 -0.4324  0.1525
17161W        W36015  13.766  16.060  11.971 -0.0260  0.0411 -0.2771
17162W        W36016   8.923  18.304   2.611 -0.0471  0.0377  0.1528
17163W        W36017   6.215   7.994  12.967  0.1013 -0.1803 -0.2669
17164W        W36018   3.869   1.607   0.487  0.0342  0.2151  0.0465
17165W        W36019  16.372  17.786   4.301 -0.1939 -0.0118  0.1486
17166W        W36020   5.097   1.314  11.399  0.3769  0.0724  0.0908
17167W        W36021   2.655  15.423  12.246 -0.1262 -0.1077 -0.0617
17168W        W36022   3.550  13.368  12.558  0.1045  0.0619  0.1450
17169W        W36023   9.354   9.022  13.930 -0.0057  0.0422 -0.0244
17170W        W36024  16.411   4.666   2.733 -0.1471 -0.0931 -0.1618
17171W        W36025   5.611   2.622   1.915  0.0368  0.2016  0.0775
17172W        W36026  16.553  12.623  13.946  0.0700  0.0070  0.4289
17173W        W36027   3.393   6.927   0.233  0.1049  0.0301 -0.0908
17174W        W36028   2.042  11.327   3.537  0.3538 -0.2108  0.0556
17175W        W36029  10.046  15.540   0.860 -0.1761  0.2458  0.0239
17176W        W36030   3.726   4.557   1.654 -0.0610  0.0966  0.0113
17177W        W36031   5.173   9.906   0.627  0.1276  0.1057 -0.1985
17178W        W36032   7.646  18.778   0.049 -0.3245 -0.2651 -0.0866
17179W        W36033  18.980   1.548   3.964 -0.2512 -0.2237 -0.0370
17180W        W36034  15.905  15.512  14.384 -0.2108 -0.0316 -0.3519
17181W        W36035   8.692   6.170   1.871 -0.0006  0.3258  0.3206
17182W        W36036   3.629   0.689  12.449  0.2832  0.2708 -0.0986
17183W        W36037   7.188   0.759   0.286 -0.0491  0.1024 -0.0687
17184W        W36038   6.772  14.427  14.696  0.2841  0.0004  0.1149
17185W        W36039   9.061  10.334   1.127  0.1010 -0.0179 -0.0875
17186W        W36040  11.526   5.616  12.039  0.0521  0.1189  0.0722
17187W        W36041  14.153  12.441  12.534  0.3238  0.0215  0.1741
17188W        W36042   3.444  15.275  13.162 -0.5059  0.0078 -0.2975
17189W        W36043  15.415   4.023  12.063 -0.3525  0.1401  0.0102
17190W        W36044   8.876  13.125   4.356 -0.0926 -0.2688  0.0673
17191W        W36045   3.653  17.611   0.582 -0.0602  0.0738 -0.0802
17192W        W36046   1.616  11.942  11.133  0.1772 -0.0223 -0.1082
17193W        W36047  17.746  16.311  13.946  0.0720 -0.0385  0.0213
17194W        W36048  13.646  13.583   4.111  0.2001  0.1393 -0.5936
17195W        W36049  13.235  10.013   0.235  0.0748 -0.3367  0.0260
17196W        W36050   2.452  11.538  10.054  0.0845 -0.1022 -0.0385
17197W        W36051   0.005  17.060  13.767  0.0492 -0.1352  0.1390
17198W        W36052  12.598   4.013   3.765  0.1609  0.3802  0.0682
17199W        W36053   8.972   3.557  13.364 -0.2114  0.1924  0.0234
17200W        W36054   4.138   2.643  14.282 -0.3615  0.1286  0.2548
17201W        W36055  18.022  16.492  12.310  0.1903 -0.0251  0.0655
17202W        W36056   4.775  10.204  11.887  0.1526 -0.2151  0.1573
17203W        W36057   7.335  10.142   2.835  0.0489 -0.0049  0.1305
17204W        W36058   5.097   4.349  12.632 -0.0560  0.0953  0.0307
17205W        W36059  16.877   4.559  10.607 -0.0724  0.0583  0.2157
17206W        W36060   5.702   6.774  12.208 -0.0094 -0.0422 -0.0413
17207W        W36061  17.880  18.610   1.312 -0.1859  0.4932  0.0968
17208W        W36062  10.241  14.846  13.675 -0.0394 -0.2049 -0.1540
17209W        W36063   0.241   0.771   3.781 -0.3066  0.2451  0.1943
17210W        W36064   5.693  14.530  11.613  0.0508  0.4059 -0.2014
17211W        W36065   3.197  12.592  13.658  0.3480  0.3226 -0.3152
17212W        W36066   6.590  10.976  14.203 -0.2141 -0.2015 -0.1101
17213W        W36067  11.377  10.356  10.754 -0.0012 -0.2977  0.0800
17214W        W36068   4.503  17.608  10.674  0.1132 -0.1585  0.1686
17215W        W36069  10.264   7.001  11.614  0.0382  0.0613 -0.0057
17216W        W36070   7.396   6.997  13.693  0.0662 -0.1774  0.0056
17217W        W36071  11.133  12.411  12.589 -0.1717 -0.0761 -0.1598
17218W        W36072  15.021  18.082   1.000  0.2617  0.1874 -0.1052
17219W        W36073   9.225  13.852   3.496 -0.2507 -0.0624 -0.1076
17220W        W36074   6.383   8.435  12.584 -0.0319 -0.4266  0.1925
17221W        W36075   1.264   3.171  12.119 -0.0664  0.1454 -0.2598
17222W        W36076  15.036   0.263  10.176  0.2493 -0.2276  0.1846
17223W        W36077  18.392   6.047   2.157 -0.1292 -0.0272 -0.1861
17224W        W36078   5.979  18.005   3.388  0.1909  0.0240 -0.3262
17225W        W36079   5.184   9.686   2.001  0.0130  0.0657 -0.2312
17226W        W36080  14.737   1.050  13.307  0.1022  0.1336 -0.1116
17227W        W36081  11.577   1.160   4.000  0.1431 -0.2064 -0.3489
17228W        W36082  16.314   2.326  13.667 -0.0085  0.6191  0.0287
17229W        W36083   1.230  14.290  14.015  0.0575 -0.0038 -0.2537
17230W        W36084   6.584   3.742  10.467  0.2217 -0.1091 -0.0750
17231W        W36085  17.929   8.107  14.732  0.2215  0.1253  0.2493
17232W        W36086   9.895  14.657  13.982  0.3796  0.1933  0.2966
17233W        W36087  15.507   4.492  11.070 -0.2925 -0.1850  0.3473
17234W        W36088   7.893   4.379  12.569  0.1087  0.1784  0.2325
17235W        W36089   0.140   4.354   2.951 -0.3168  0.1205 -0.0424
17236W        W36090  17.127   5.655   2.052  0.0667  0.0570 -0.1965
17237W        W36091   4.599   8.371  12.090  0.1148  0.2145 -0.1383
17238W        W36092  14.017   7.432  14.537 -0.2355 -0.1870 -0.0955
17239W        W36093   8.542   9.968   2.005 -0.1776 -0.0724  0.1415
17240W        W36094   2.929  14.154   3.881  0.2719  0.0595  0.0027
17241W        W36095  16.954  13.894  14.434 -0.1116  0.0462 -0.1415
17242W        W36096  17.517   8.873   2.089 -0.0465  0.0698 -0.1369
17243W        W36097   8.433  11.851   2.960 -0.2902 -0.3316  0.0537
17244W        W36098   1.319  10.652   3.187 -0.1510  0.1430 -0.3888
17245W        W36099   2.644   7.957   9.670  0.1032  0.0838  0.0902
17246W        W36100   7.736  15.707  12.490  0.1178 -0.2221  0.2097
17247W        W36101   4.668   1.228  10.475  0.0536 -0.0523 -0.1597
17248W        W36102  16.673  12.996   3.986  0.0345  0.1050 -0.0017
17249W        W36103  18.582  13.723  10.706  0.5213  0.4811  0.1303
17250W        W36104   0.606  18.789  11.304 -0.0111 -0.0256  0.1100
17251W        W36105  12.791   6.015  11.908 -0.1212  0.0024  0.0509
17252W        W36106  10.973   1.606  11.738 -0.2588 -0.0435  0.0096
17253W        W36107  14.696  10.671  11.975 -0.0132  0.0313 -0.0474
17254W        W36108  17.604   8.464  13.360 -0.3748 -0.2859 -0.0309
17255W        W36109  15.025   0.890   3.935  0.2439 -0.0305  0.0283
17256W        W36110  18.666  11.132  14.037  0.0578  0.0390  0.2552
17257W        W36111  16.503   5.962  13.986  0.2948  0.2283  0.1030
17258W        W36112   8.395  17.700  13.189 -0.0417  0.0606 -0.2694
17259W        W36113   2.648   2.981   1.139  0.3397 -0.1028 -0.0902
17260W        W36114   3.324  19.161   1.903  0.2651 -0.0267  0.1545
17261W        W36115  11.006   6.776  11.317 -0.2514  0.3987 -0.6280
17262W        W36116  19.091   3.719  11.858  0.0867  0.1473 -0.2143
17263W        W36117  10.274  19.142   3.777  0.1085  0.1891  0.0669
17264W        W36118  17.886  13.260   3.102 -0.1513  0.0056 -0.1598
17265W        W36119   3.665   3.305   3.514 -0.1063  0.0168 -0.1062
17266W        W36120  12.494   8.304  12.899  0.3788 -0.1072  0.0816
17267W        W36121  13.876  13.121  14.062  0.1412 -0.1625  0.1994
17268W        W36122  11.153  17.916   3.634  0.1939  0.0410 -0.2209
17269W        W36123  12.432   1.247  11.233 -0.2713  0.3747 -0.0284
17270W        W36124   0.483  17.139  12.210  0.0962  0.2280  0.1088
17271W        W36125   6.814  17.138   3.707 -0.4865 -0.1733 -0.1887
17272W        W36126  14.779   0.854   0.040  0.0217  0.2620  0.0382
17273W        W36127   2.919  11.800  13.542 -0.0324 -0.1321 -0.2550
17274W        W36128  15.651  13.272   0.332  0.0304 -0.6545 -0.0397
17275W        W36129   0.198  12.206  10.897 -0.0144 -0.1660 -0.2824
17276W        W36130  13.255  17.183  11.916 -0.2070  0.0060 -0.0177
17277W        W36131   9.094  17.895   1.228 -0.0291  0.1401  0.0442
17278W        W36132   5.518  15.342  14.251 -0.3064  0.0618 -0.0830
17279W        W36133  12.464   5.612   9.744  0.0863  0.1707 -0.2555
17280W        W36134  11.084   3.258   3.585 -0.2546  0.0781 -0.3063
17281W        W36135  15.482  16.722  14.275 -0.0155  0.2185  0.1256
17282W        W36136  14.278   4.486   4.024  0.1501  0.1737  0.0210
17283W        W36137  17.815  19.022  12.910  0.4162  0.0856 -0.1293
17284W        W36138   2.600   5.307   1.926 -0.2531  0.1198 -0.3015
17285W        W36139   1.108   4.221  11.885  0.0351 -0.2770 -0.0053
17286W        W36140   4.349  16.071   4.302  0.0064  0.2010  0.1259
17287W        W36141  10.711  16.309  11.704 -0.2274 -0.2337  0.1595
17288W        W36142  15.078   3.912   2.599 -0.2158  0.2778  0.2778
17289W        W36143   9.874  10.804  12.559 -0.1460  0.0261  0.0291
17290W        W36144   6.398  11.025  11.149 -0.0400  0.0795 -0.0879
17291W        W36145  13.050   3.536   3.210 -0.1786  0.0560  0.0221
17292W        W36146   5.446  16.631   9.872  0.3734  0.1534 -0.1807
17293W        W36147   2.800   1.077  11.055 -0.0529 -0.1098  0.2173
17294W        W36148   8.035  19.127   1.365 -0.1730 -0.1191  0.1568
17295W        W36149  18.168   8.518  12.045 -0.1500 -0.0718 -0.3936
17296W        W36150   4.835  12.753   5.042  0.0287  0.2941 -0.1698
17297W        W36151   5.444  18.663  11.440  0.3491  0.1319  0.0137
17298W        W36152   7.706  16.259   3.707  0.1822  0.1389  0.0909
17299W        W36153  12.766   9.799   1.533 -0.0066  0.3720  0.3387
17300W        W36154  16.449  13.763   0.616  0.4113 -0.0341 -0.0798
17301W        W36155  13.490  14.225   5.124 -0.2514 -0.1294 -0.2932
17302W        W36156  15.766   7.072  11.014 -0.1137 -0.0170  0.1588
17303W        W36157   5.558   5.234  14.324  0.1431 -0.1224 -0.2847
17304W        W36158  16.229   1.167  11.927  0.0481 -0.1655  0.0341
17305W        W36159  15.536   6.472  13.436  0.2037 -0.1955 -0.1861
17306W        W36160  14.829   8.031   3.990  0.1869 -0.2230 -0.0409
17307W        W36161   1.628   0.945  14.385 -0.0037  0.1704  0.0910
17308W        W36162  10.298  19.197   2.181 -0.0034 -0.0877 -0.2003
17309W        W36163   6.509   3.915   2.750  0.0173 -0.2130  0.2164
17310W        W36164   4.573   8.204   3.585  0.0312  0.1249  0.3136
17311W        W36165   8.150   5.464  12.170 -0.0802  0.0893 -0.0099
17312W        W36166   4.926   6.556  12.822 -0.2539 -0.0164 -0.2214
17313W        W36167  15.524  11.111  11.045 -0.1148 -0.0715  0.1203
17314W        W36168  12.269  15.229  11.919  0.0587 -0.0671 -0.1651
17315W        W36169  18.878   8.402  10.547  0.2881  0.2184 -0.3279
17316W        W36170   8.435   3.337  13.520 -0.2794 -0.0348  0.0395
17317W        W36171   4.711   2.284  12.439 -0.2624  0.1652  0.0212
17318W        W36172  13.844  15.742   3.330 -0.2564  0.0816  0.3372
17319W        W36173  12.882   8.009   1.189  0.0492  0.0648 -0.0113
17320W        W36174  17.804   9.063   0.068  0.0966  0.2436  0.4507
17321W        W36175   5.126  11.204  13.813  0.3564  0.0040  0.2105
17322W        W36176   8.791   8.793  10.859  0.0095  0.0463 -0.1704
17323W        W36177  16.501  10.491  12.063 -0.2050 -0.2529 -0.0891
17324W        W36178  15.377  16.455   0.056 -0.4294 -0.0813  0.2685
17325W        W36179  18.261   0.855   2.040  0.0125  0.0660  0.2485
17326W        W36180  10.214  11.274   9.330  0.1400 -0.2113 -0.0641
17327W        W36181   3.001  18.446  13.830  0.0894  0.1604  0.0972
17328W        W36182   9.976  15.431   2.389  0.2628 -0.0478  0.0796
17329W        W36183  18.771   8.913   3.569 -0.0346 -0.3767  0.1905
17330W        W36184  13.595   5.895   0.004 -0.2114  0.2077 -0.2482
17331W        W36185   5.885  12.394  10.806 -0.0741  0.3628  0.1554
17332W        W36186  13.135   3.350   0.820  0.0638 -0.1903  0.0047
17333W        W36187  15.402  12.098   2.798 -0.0727  0.0222 -0.3853
17334W        W36188   9.911   5.673   2.953  0.3825  0.2327 -0.1970
17335W        W36189  12.720  18.628   3.978  0.3501 -0.1293 -0.2341
17336W        W36190  10.980   6.070   1.541  0.3384 -0.0467 -0.0671
17337W        W36191  10.201   9.737   9.203 -0.0572  0.0141 -0.0062
17338W        W36192   5.274  11.813  14.608 -0.0699  0.0426 -0.2451
17339W        W36193  10.223   7.693  14.364  0.2660  0.1501 -0.4179
17340W        W36194  12.483   2.296  13.724 -0.1427 -0.0320 -0.2056
17341W        W36195  10.385   5.744  14.058  0.0284  0.3297 -0.1395
17342W        W36196   6.046   3.863   2.201  0.0078  0.0759 -0.0082
17343W        W36197  12.622   3.418  12.292  0.2967 -0.0630 -0.4302
17344W        W36198  10.511   3.309  10.879 -0.1880  0.1939  0.0762
17345W        W36199  12.865   7.346   2.601 -0.0832  0.3331 -0.0715
17346W        W36200  18.789  18.408   9.904 -0.0008  0.2180  0.0083
17347W        W36201   7.009  15.934  11.295 -0.1687 -0.0842 -0.0999
17348W        W36202  14.763   5.367   3.053 -0.3088 -0.3701  0.1734
17349W        W36203  15.739   6.590  12.878 -0.2687 -0.0822 -0.3908
17350W        W36204   8.764   5.324  12.963 -0.0048  0.1971 -0.2345
17351W        W36205   7.579   3.662   1.568  0.0778  0.2417 -0.1467
17352W        W36206  16.985  11.686   2.368  0.2106  0.0344 -0.1839
17353W        W36207   5.709   8.129   1.985  0.1915 -0.3214 -0.4533
17354W        W36208   6.441  15.936   2.400 -0.1585 -0.1177  0.0119
17355W        W36209  13.784  13.964   1.240  0.2141  0.0006 -0.3121
17356W        W36210   6.607   9.585   1.660 -0.1301  0.0319  0.1158
17357W        W36211   0.796   8.554   0.045  0.2270 -0.0755 -0.0090
17358W        W36212   5.836   0.727   3.587 -0.0153  0.2828 -0.1187
17359W        W36213   0.083   0.450   3.440  0.0243  0.3148  0.1090
17360W        W36214   3.557  14.954   2.565  0.2156  0.2206  0.0334
17361W        W36215  14.331   9.758   1.285 -0.3415 -0.0617  0.1597
17362W        W36216  11.311  13.439   4.212 -0.2617  0.0355  0.0506
17363W        W36217   9.084   9.397  13.921 -0.1265 -0.3055 -0.2412
17364W        W36218   0.233   6.806   0.235 -0.1001 -0.1441 -0.2153
17365W        W36219  14.361  14.382  13.735 -0.2606 -0.0995 -0.0762
17366W        W36220   6.972  18.880   5.340  0.0146 -0.4965  0.0967
17367W        W36221   1.635   7.359   3.579 -0.1102 -0.2210  0.0077
17368W        W36222  18.643   0.718   0.371  0.0198 -0.2505 -0.1635
17369W        W36223   1.104   2.371   0.210 -0.0050 -0.1669 -0.0205
17370W        W36224   8.877   0.953  10.629  0.1442  0.1944 -0.5757
17371W        W36225   8.755   0.186  12.027 -0.2831  0.0139 -0.0865
17372W        W36226   0.300   2.716   3.542 -0.2116 -0.2428  0.0159
17373W        W36227   5.798  10.263   3.256 -0.1352 -0.1175  0.1172
17374W        W36228   6.751   9.296  12.894 -0.2393  0.2851 -0.0968
17375W        W36229  10.368  10.194  12.042  0.3726  0.0931 -0.2169
17376W        W36230  11.457  14.414   2.978 -0.1465 -0.0081 -0.2382
17377W        W36231  14.181  13.660   0.439 -0.0947 -0.0928 -0.2846
17378W        W36232  17.708   0.602   0.971 -0.1059  0.0388  0.3012
17379W        W36233  16.900   6.202   1.802  0.0600  0.1369 -0.3265
17380W        W36234   1.408   7.505  10.787  0.1903 -0.1397  0.1178
17381W        W36235  17.697   3.479   0.517  0.0178  0.1918 -0.1333
17382W        W36236  17.536  15.634   1.262 -0.0758  0.0801  0.2663
17383W        W36237  10.893   9.483  14.633  0.1776  0.4018  0.1570
17384W        W36238  14.822  15.735   2.641  0.0856  0.1340  0.1370
17385W        W36239   5.737  16.000  10.987  0.2212  0.4220 -0.0155
17386W        W36240   9.810  11.264  12.319 -0.0016 -0.1002  0.0874
17387W        W36241   4.899  10.464   1.876 -0.1765  0.0649 -0.0956
17388W        W36242   9.167  18.599   5.441 -0.2327  0.0095 -0.2549
17389W        W36243  10.933  16.068   3.913  0.1785 -0.1616  0.0111
17390W        W36244  10.625   8.423   1.240 -0.2510 -0.1475  0.1802
17391W        W36245  13.411   2.515  14.371  0.0836  0.1716 -0.2084
17392W        W36246   6.793   6.493   3.436 -0.0505  0.1929 -0.1508
17393W        W36247  10.426  10.696  13.668 -0.1675 -0.3492  0.2570
17394W        W36248  15.302  11.380   2.574  0.1502  0.1959  0.1089
17395W        W36249   1.514   4.307   3.072 -0.1605 -0.0113  0.0207
17396W        W36250  17.599  18.635   0.277 -0.2542 -0.0605 -0.1735
17397W        W36251  13.061   0.622  12.090  0.3670 -0.0743 -0.2003
17398W        W36252  16.656   2.129  13.201  0.0393 -0.1688 -0.0318
17399W        W36253   8.608  11.539  13.698 -0.2012  0.2666 -0.1731
17400W        W36254   0.252  12.851  14.169 -0.0659  0.0182  0.1352
17401W        W36255   8.066   4.174  11.903  0.4343  0.0955  0.3192
17402W        W36256  17.064  12.078   4.192 -0.2050  0.0516  0.0372
17403W        W36257  16.234   4.841   0.422  0.3782 -0.2962 -0.1200
17404W        W36258  13.465  18.069  10.985 -0.2459 -0.0040 -0.0400
17405W        W36259   6.323   5.483   2.281  0.0501  0.2245 -0.2287
17406W        W36260  17.362  11.873   1.483 -0.1711  0.1521 -0.1009
17407W        W36261   0.086   1.415   2.517  0.1718 -0.1646 -0.0259
17408W        W36262   0.996   6.579   1.253 -0.2006  0.1765 -0.0694
17409W        W36263  15.539  16.772   1.461 -0.1889  0.0071  0.4055
17410W        W36264  12.737  11.256   1.708  0.1335 -0.1503 -0.2320
17411W        W36265   7.631   9.837   1.385 -0.0577 -0.0829 -0.0857
17412W        W36266  15.276  17.590  14.196 -0.0807 -0.1908  0.0264
17413W        W36267   7.848  16.441  11.444 -0.2492  0.0905  0.1318
17414W        W36268  15.820   4.460   0.288  0.1270  0.1364  0.1640
17415W        W36269   0.120  15.837   0.616 -0.4227 -0.2912  0.0710
17416W        W36270  18.373   4.679  13.095 -0.2960 -0.4607 -0.0485
17417W        W36271   8.404   1.933   0.463  0.0519  0.0572 -0.0946
17418W        W36272  13.907   2.041   1.486  0.0096 -0.1232  0.2133
17419W        W36273  10.007   6.079  14.332 -0.1345 -0.1324  0.2619
17420W        W36274   2.846   1.821  13.242 -0.1033 -0.0349  0.1743
17421W        W36275  10.254   5.580   1.811  0.1241  0.1028  0.0798
17422W        W36276  17.291   9.062   0.111  0.3603 -0.0416  0.1266
17423W        W36277  10.672   6.275  10.218  0.1124 -0.3037  0.0330
17424W        W36278   6.002   1.629   3.823 -0.0125 -0.1284 -0.3406
17425W        W36279   4.342  15.669   0.359  0.2596 -0.0708  0.1207
17426W        W36280  15.379  11.373  12.752 -0.0318 -0.0545 -0.2034
17427W        W36281  14.236  17.352  13.895 -0.2249  0.0035 -0.3123
17428W        W36282  14.379  17.005  11.349 -0.0728 -0.0363 -0.1839
17429W        W36283  10.891  13.897  13.045  0.0685  0.0059 -0.0644
17430W        W36284   8.783   3.469   2.666  0.0988 -0.1004  0.1895
17431W        W36285   4.069   3.990  11.294 -0.1541  0.1508 -0.1511
17432W        W36286   1.371  18.235   1.792 -0.2797 -0.3890 -0.0825
17433W        W36287   4.725  17.284  10.045 -0.2112  0.3116  0.2187
17434W        W36288   3.364   3.800   2.814 -0.0849 -0.1303  0.0027
17435W        W36289   3.625   9.257   4.232 -0.3541 -0.0029 -0.0840
17436W        W36290   5.200  14.166   2.386  0.0612  0.0894 -0.1566
17437W        W36291   8.887   3.052  13.604 -0.2693 -0.1402 -0.0463
17438W        W36292  14.401  13.203  10.798  0.1658 -0.2900  0.0723
17439W        W36293   1.657  17.024  11.855 -0.1770  0.0993  0.1350
17440W        W36294   6.112  13.545  11.510  0.1238  0.0268 -0.1244
17441W        W36295   6.590   1.889   0.223  0.2193 -0.1185 -0.0920
17442W        W36296   5.145   9.238   0.058 -0.0854  0.0668  0.1781
17443W        W36297   6.428   3.791   3.293 -0.0964 -0.0220  0.1884
17444W        W36298   5.027  18.522   0.778  0.0849 -0.2244 -0.2933
17445W        W36299   7.401  11.919   2.938  0.0461  0.0656 -0.1569
17446W        W36300   0.327  15.739  14.424  0.4113  0.0801 -0.0647
17447W        W36301   0.842  11.838   2.813  0.0314  0.1881  0.3973
17448W        W36302   8.441  18.157   1.638  0.0148  0.1760 -0.1948
17449W        W36303  14.028   7.770   2.727  0.0061  0.0472 -0.0980
17450W        W36304  16.911  13.691   0.812  0.1943 -0.0404  0.1890
17451W        W36305  11.658   9.367  10.583 -0.2877 -0.0448 -0.0743
17452W        W36306  17.048   0.218   4.316  0.0830  0.2822 -0.2518
17453W        W36307  11.973   6.719   2.052  0.0150  0.4076 -0.4777
17454W        W36308  10.568  14.801   3.433  0.0293 -0.1416 -0.0641
17455W        W36309  17.300  16.579   1.011  0.0639 -0.0997  0.0252
17456W        W36310   7.751   1.161   9.983  0.1554 -0.1142 -0.3883
17457W        W36311   5.634  11.419   1.218 -0.1632 -0.3113  0.1799
17458W        W36312   5.914   0.995   9.474  0.2866 -0.1905  0.2219
17459W        W36313   1.993  15.620   2.382  0.3160  0.0725 -0.2904
17460W        W36314   6.313  17.693  10.888  0.3705  0.0579  0.2559
17461W        W36315  12.343  15.321  13.994 -0.2191  0.2777  0.3509
17462W        W36316  14.972  16.371  12.569 -0.1922  0.0458 -0.0781
17463W        W36317  14.062   4.093  13.220 -0.1508  0.1427 -0.1769
17464W        W36318  14.059   5.898  13.970 -0.2158  0.0771  0.2360
17465W        W36319  18.850   4.607   3.933 -0.1152 -0.0359 -0.3368
17466W        W36320  12.245   1.888  13.975  0.0669 -0.0938 -0.3202
17467W        W36321   0.707   1.716   4.441  0.2615  0.2362  0.0885
17468W        W36322  15.343   5.368   2.102 -0.0036 -0.1763  0.2053
17469W        W36323  18.507   8.411   0.866 -0.3418  0.0907 -0.0525
17470W        W36324   0.570   4.966   3.681  0.4004  0.2102 -0.0935
17471W        W36325  14.518   9.734   3.167  0.0922  0.0662 -0.0717
17472W        W36326   4.122  14.392  11.783  0.2075  0.2105 -0.0200
17473W        W36327   2.851  12.275  14.456 -0.1621  0.4066 -0.3450
17474W        W36328  11.249   5.831  13.882  0.3472  0.1958  0.2224
17475W        W36329  11.303  15.250   3.090 -0.0476 -0.1085  0.2899
17476W        W36330  16.978   4.799   3.585  0.0417  0.3229 -0.0202
17477W        W36331   3.360  16.021  10.585 -0.3467  0.0599 -0.0595
17478W        W36332   3.796  12.453   2.589  0.0652 -0.0528  0.3306
17479W        W36333   1.990   8.731  13.049 -0.1423  0.1238 -0.1970
17480W        W36334  11.085   8.109   2.862 -0.0672 -0.1346  0.1301
17481W        W36335   4.554  13.042  14.149 -0.0663  0.2678  0.2074
17482W        W36336  11.969   1.752   4.303 -0.0282  0.0207  0.3085
17483W        W36337   7.857  15.663   0.096  0.1633  0.0018 -0.1923
17484W        W36338  11.130   1.361  12.255  0.0901 -0.3373 -0.0747
17485W        W36339   0.357  12.690   2.393  0.4401 -0.1284 -0.3841
17486W        W36340   9.912   4.859   2.961 -0.1015 -0.2732  0.2355
17487W        W36341  15.261   9.776   3.672 -0.2036  0.1253 -0.0297
17488W        W36342   4.351   5.264   5.023 -0.0221  0.0197 -0.0200
17489W        W36343  13.056  17.812  10.965 -0.1011  0.1776 -0.2278
17490W        W36344   8.501   6.747  10.978 -0.2981 -0.5000  0.1679
17491W        W36345   7.688  13.797  11.562 -0.2847 -0.2415 -0.2019
17492W        W36346  10.780  19.174   2.394  0.0418  0.3125  0.0101
17493W        W36347   9.880  14.584   3.809  0.1948  0.0162 -0.2018
17494W        W36348   4.500  16.057   5.598 -0.0819  0.3636 -0.2235
17495W        W36349   2.707   1.905  10.373  0.2384  0.0395 -0.0962
17496W        W36350  12.251  12.398   0.566  0.2179  0.0208  0.0358
17497W        W36351   7.458  11.546  13.953 -0.0013 -0.2744  0.1336
17498W        W36352  10.835   6.766   1.523 -0.1530  0.1123  0.0771
17499W        W36353  19.029  16.598   1.120 -0.0851  0.0811  0.1275
17500W        W36354   2.033  19.053   9.775 -0.0738  0.1472  0.2052
17501W        W36355   3.582   1.220   0.575 -0.0976 -0.1293 -0.2233
17502W        W36356   2.786   5.325   0.766 -0.1472 -0.5374  0.0361
17503W        W36357   9.037  10.966   3.082 -0.0935  0.0743 -0.3042
17504W        W36358   4.792  15.934   9.620  0.1197  0.2839  0.3047
17505W        W36359   0.793   1.440  13.376 -0.1914  0.0764  0.2676
17506W        W36360   7.635   0.127   3.985  0.3567  0.1746 -0.1477
17507W        W36361  10.833   4.491  13.386 -0.0988 -0.4268  0.0620
17508W        W36362  10.208  11.461   3.281  0.2328  0.1183  0.0452
17509W        W36363  12.264   9.241   9.030  0.1812  0.0093  0.1498
17510W        W36364  12.945  14.502   2.680  0.2780 -0.0072 -0.0815
17511W        W36365   5.807   1.458   0.258  0.0292  0.1326 -0.0162
17512W        W36366   0.058   5.342   3.952  0.0162 -0.0636 -0.4490
17513W        W36367  13.728   7.384  14.032  0.0041  0.2319  0.1000
17514W        W36368  15.856  13.314   1.260 -0.1916 -0.2080  0.1065
17515W        W36369   5.004   5.614   2.911 -0.0945  0.0637 -0.3386
17516W        W36370  14.393   5.080  11.541 -0.0296 -0.2812 -0.0924
17517W        W36371   1.037   2.088   4.917 -0.0681  0.1915  0.3609
17518W        W36372  14.519  14.596   0.349 -0.1122  0.0164 -0.2686
17519W        W36373  10.759  13.766  14.685 -0.2825  0.0981  0.0149
17520W        W36374   3.179   6.339   3.773  0.0141  0.0027 -0.1741
17521W        W36375   8.455   2.853  13.967  0.1252 -0.1617  0.0246
17522W        W36376   8.387   3.438  13.027 -0.4448 -0.1389  0.0517
17523W        W36377  15.726   0.587   4.096  0.2358 -0.2055  0.0788
17524W        W36378  18.769  15.941   4.174 -0.0530 -0.2243 -0.1947
17525W        W36379  11.174   9.637  10.751 -0.0230  0.0346 -0.0173
17526W        W36380  16.246   4.794   2.212  0.0826 -0.2858 -0.3177
17527W        W36381  11.415   9.189  12.748 -0.0208 -0.0868 -0.0426
17528W        W36382   2.749   5.600  11.556 -0.2806 -0.0093 -0.1088
17529W        W36383  11.168   6.772   1.871  0.1260 -0.1426 -0.0573
17530W        W36384  14.014  12.046   2.837  0.0549  0.1368  0.1156
17531W        W36385   3.761  17.785   2.842 -0.3058  0.0441 -0.1455
17532W        W36386  15.482   5.155  13.819  0.0714  0.4888  0.1040
17533W        W36387  18.791   6.504   3.494  0.2626  0.0982  0.3251
17534W        W36388  16.447   6.607  13.296 -0.0418  0.2573  0.2475
17535W        W36389   3.265   2.718  13.222 -0.0859  0.3357 -0.0845
17536W        W36390  15.510  14.185  14.713 -0.0921  0.0835  0.4430
17537W        W36391  15.298   0.554   0.556 -0.2660  0.0596  0.1862
17538W        W36392  10.600   1.862  14.652  0.0631  0.0806 -0.2947
17539W        W36393   8.714  14.788   2.095  0.3454  0.2093 -0.4220
17540W        W36394  13.088   1.659   0.121 -0.1322  0.0876  0.0170
17541W        W36395   7.911  15.406   1.319  0.2183  0.1898 -0.1061
17542W        W36396  16.414  11.725   1.276  0.1183 -0.0396 -0.3258
17543W        W36397  11.518  11.417  13.640  0.1868 -0.1088  0.0795
17544W        W36398  12.555  17.970   2.978  0.0146 -0.3064  0.0298
17545W        W36399  16.047   5.064  11.586  0.2786  0.2194  0.0189
17546W        W36400   8.268   1.604  12.484 -0.1235  0.2560 -0.0122
17547W        W36401  10.510  18.631  10.892 -0.2010  0.1809 -0.1324
17548W        W36402   6.173   8.949  14.192 -0.0187 -0.1234  0.2888
17549W        W36403  16.845  14.365   3.246  0.0334  0.0312 -0.2995
17550W        W36404  13.995   4.534   0.325 -0.1493 -0.1842  0.0673
17551W        W36405   6.802   5.088  13.754  0.3443 -0.1877 -0.1685
17552W        W36406  15.338  18.362  11.417 -0.1410 -0.2001 -0.1492
17553W        W36407  18.423   7.286  12.498 -0.2491 -0.2340  0.2658
17554W        W36408   7.056   5.551   0.159 -0.3345  0.2937  0.0198
17555W        W36409  14.853   1.360   4.245  0.2677  0.1784 -0.0304
17556W        W36410  13.588   7.482  13.545 -0.3161  0.1498  0.1611
17557W        W36411  15.850   2.447  11.347 -0.0075  0.1858  0.0104
17558W        W36412  12.704   6.509  10.750 -0.2375  0.0128  0.1593
17559W        W36413   4.929   2.504  10.730  0.0238 -0.1707 -0.3207
17560W        W36414   2.300  10.097   3.983  0.0483 -0.0488  0.1971
17561W        W36415   6.175  12.263   3.808  0.1973  0.3754  0.3404
17562W        W36416  17.497   5.133  11.744  0.3088  0.0257 -0.0089
17563W        W36417   1.842   7.247  11.649 -0.2409 -0.1456 -0.1193
17564W        W36418  14.669  14.582  12.511 -0.0757 -0.0313 -0.2649
17565W        W36419   8.811   0.928   1.943 -0.0468 -0.2132  0.4757
17566W        W36420  17.168   8.348   4.460 -0.1603  0.2214  0.2358
17567W        W36421  12.325  11.543   2.904  0.2901 -0.3098  0.1032
17568W        W36422   5.248   2.684   1.153 -0.0604 -0.2360  0.3351
17569W        W36423  14.662  18.481  11.712 -0.1250  0.1875  0.3236
17570W        W36424  18.269  14.159  10.929 -0.1478 -0.3308 -0.0269
17571W        W36425  16.136   7.073   3.300  0.2204  0.0420 -0.0082
17572W        W36426   4.535   7.144   2.447 -0.0827 -0.3143  0.1376
17573W        W36427  14.217   6.965   3.994  0.5637  0.2249  0.1229
17574W        W36428  15.606   1.271  13.790  0.1195 -0.3933  0.1705
17575W        W36429   7.091   2.132  13.062  0.2104  0.2693  0.0808
17576W        W36430   4.651   0.950  14.322  0.2010  0.0764 -0.1336
17577W        W36431  18.541  14.685  10.291  0.1524  0.2633  0.0560
17578W        W36432   5.010   0.433   4.549 -0.1681  0.3048 -0.1753
17579W        W36433   5.790  11.478  10.570 -0.0990  0.2493 -0.0156
17580W        W36434   8.870  10.962   2.612  0.0734 -0.1472  0.0940
17581W        W36435   5.758  15.829  10.492  0.3200 -0.0981  0.0290
17582W        W36436  13.649  14.856  13.598 -0.0624 -0.0767 -0.1410
17583W        W36437   8.139  15.442   4.831 -0.0658 -0.0111 -0.0987
17584W        W36438   6.247   1.845   3.412  0.1577  0.1863  0.1456
17585W        W36439  15.338   6.139  14.592  0.1651  0.0739  0.0090
17586W        W36440   7.908   9.989  12.593 -0.1232 -0.0272  0.0439
17587W        W36441   3.966   4.809  11.481  0.0539  0.3208 -0.0381
17588W        W36442  10.377   4.407  13.218  0.0833  0.0951 -0.0133
17589W        W36443   9.196  18.695   4.227 -0.0143 -0.0709  0.2310
17590W        W36444   1.551   2.647   3.722 -0.1161  0.4505  0.0041
17591W        W36445   1.740   7.379   1.643 -0.0012 -0.0731 -0.0105
17592W        W36446   7.491  19.005   3.614  0.5258  0.1119 -0.2109
17593W        W36447   9.228  16.773   1.510  0.2086 -0.2312  0.3398
17594W        W36448  12.145   7.641   2.571  0.1465  0.0917 -0.0734
17595W        W36449  12.607  13.971   2.710  0.1748 -0.0987  0.0562
17596W        W36450  12.866   0.159  12.195  0.4258 -0.2416 -0.1655
17597W        W36451   6.736  18.276   3.396 -0.1975 -0.4538 -0.0445
17598W        W36452  16.807  11.356   1.207  0.2363 -0.2417 -0.1406
17599W        W36453  14.343   4.366   2.182  0.2349  0.2071 -0.2039
17600W        W36454   4.061   5.980   3.094  0.2520 -0.4187 -0.0805
17601W        W36455   8.131  11.323   1.605  0.1674 -0.2153  0.2118
17602W        W36456   8.364   9.343  13.254  0.1469  0.4609 -0.0843
17603W        W36457   9.185   8.736  13.110  0.0567 -0.2490 -0.0242
17604W        W36458  16.403  12.601  12.266 -0.0719 -0.0335  0.1611
17605W        W36459   5.860  12.209  12.216 -0.0081 -0.1251 -0.1197
17606W        W36460   4.364   8.094  11.776  0.1581  0.0601  0.0695
17607W        W36461  11.263   3.485  11.161  0.2140  0.0990 -0.2407
17608W        W36462   2.467   3.555  10.673  0.1272  0.1597 -0.4160
17609W        W36463   0.603   1.325   0.974 -0.0490  0.1240 -0.2752
17610W        W36464   0.270   9.493  14.554 -0.1750 -0.0410  0.4794
17611W        W36465  11.970   1.643  14.310 -0.1563 -0.0919  0.1113
17612W        W36466  15.783   3.252  10.439 -0.1547 -0.0695 -0.2221
17613W        W36467  11.240   0.896  10.816 -0.0938 -0.3680 -0.1806
17614W        W36468   8.174  14.880   4.953 -0.0285  0.1585  0.0168
17615W        W36469   8.561   7.866   2.544  0.1702  0.1810  0.1247
17616W        W36470  15.471  13.076   1.426  0.0838 -0.0767  0.1002
17617W        W36471  19.161   2.800   3.108 -0.1019  0.2419  0.0631
17618W        W36472  10.030  10.039   0.079  0.2992  0.1698 -0.0005
17619W        W36473   5.501   2.370   9.352 -0.0969 -0.2293 -0.1273
17620W        W36474   3.955  16.395   0.156  0.0829  0.0406 -0.2583
17621W        W36475  17.623   0.094   2.300 -0.1243  0.1358 -0.2765
17622W        W36476   6.758   2.290  14.711  0.1925  0.1552  0.0566
17623W        W36477   8.723  13.332  10.585  0.2411  0.1728 -0.0402
17624W        W36478   9.768  12.772   5.033  0.3192  0.1482 -0.1133
17625W        W36479  12.698  17.815   1.610 -0.1822  0.1423 -0.1448
17626W        W36480  11.684   0.104   1.708  0.2667 -0.0856 -0.0871
17627W        W36481   1.650   7.024   0.042 -0.0320 -0.0296  0.2751
17628W        W36482  10.530  16.953   4.179 -0.1272  0.0074 -0.2118
17629W        W36483  16.311  16.688  12.360  0.3008  0.2014 -0.2038
17630W        W36484  11.039   2.437  14.489  0.0612 -0.1112  0.5280
17631W        W36485  13.211   7.217  13.992 -0.1163 -0.3043 -0.1168
17632W        W36486  15.065   4.635  12.386 -0.1398 -0.3914 -0.0544
17633W        W36487   0.447   7.827  12.789  0.0265 -0.2795 -0.0986
17634W        W36488   2.344   4.135  10.131 -0.2366  0.3370 -0.0898
17635W        W36489  18.338   5.440   3.539 -0.0499 -0.2129  0.3057
17636W        W36490   2.735  14.363  14.318 -0.2499  0.0739  0.0128
17637W        W36491  19.073   8.826  11.873  0.1291 -0.2918  0.1351
17638W        W36492   7.357  18.226  10.483  0.0799  0.1185 -0.0814
17639W        W36493   4.471   9.072   3.253  0.3903 -0.1559 -0.0274
17640W        W36494  10.915   1.533   1.043  0.1953 -0.3285  0.0182
17641W        W36495  15.963   4.599   0.793  0.1082  0.2032 -0.0169
17642W        W36496   3.156   4.877  11.249  0.0300 -0.1486  0.1197
17643W        W36497  15.808  14.333   2.569  0.0015  0.4408  0.3657
17644W        W36498  11.491  16.870  11.883 -0.1237  0.0097  0.0937
17645W        W36499   2.522   2.291  10.667 -0.0190 -0.4008 -0.2430
17646W        W36500   1.930  15.314   0.113  0.0245 -0.0950 -0.1035
17647W        W36501  11.618  18.089  14.468  0.0568 -0.2175 -0.2754
17648W        W36502  12.070   8.166  10.006  0.0787  0.2611 -0.3105
17649W        W36503   8.017  15.623  12.915  0.1157  0.1155 -0.0947
17650W        W36504  19.034   8.259   3.936 -0.0927  0.1997  0.0841
17651W        W36505   7.523   2.156   3.558  0.1863 -0.2316  0.1284
17652W        W36506   5.287   1.464   0.295 -0.0107  0.2213 -0.0590
17653W        W36507   5.078  13.169   1.378  0.2116 -0.0720 -0.1304
17654W        W36508  13.914   1.989   3.765 -0.1870 -0.1566  0.0478
17655W        W36509  14.070  16.997   4.846  0.1107 -0.0187 -0.2526
17656W        W36510  11.311  12.291  13.599 -0.1272 -0.0469  0.1074
17657W        W36511   9.083  12.083   1.397  0.1787 -0.0770  0.2322
17658W        W36512   1.897  18.261   5.249 -0.1461 -0.5624 -0.1294
17659W        W36513   6.677   9.819  12.966 -0.2318 -0.1122  0.0778
17660W        W36514   6.500   1.406  11.871 -0.0112  0.2437  0.0447
17661W        W36515   3.582  10.517   1.262  0.0238 -0.0558  0.1044
17662W        W36516  17.958   1.828  11.142 -0.0806  0.0054 -0.0642
17663W        W36517  12.494  14.477   0.841 -0.1440  0.1266  0.1682
17664W        W36518  11.228   7.623  12.595  0.0162  0.0990  0.0411
17665W        W36519   3.299  17.574  12.377 -0.1022  0.1456  0.0347
17666W        W36520   6.913  14.504   4.335 -0.4729  0.0244 -0.1921
17667W        W36521  14.513   8.296  11.275  0.0667 -0.2385 -0.3179
17668W        W36522   2.927  18.700  14.350  0.0454  0.0363 -0.1834
17669W        W36523  16.378  18.204  11.413 -0.0382 -0.1685 -0.2798
17670W        W36524   9.727  16.075  14.272  0.0563 -0.1087  0.0415
17671W        W36525   4.716   1.585   1.957 -0.2232  0.0676  0.0871
17672W        W36526   7.644  10.915  10.392  0.2894 -0.1433 -0.3609
17673W        W36527  15.279  14.485   0.444  0.1020 -0.0163 -0.0212
17674W        W36528  12.997   3.131  11.867 -0.1069  0.2017  0.0786
17675W        W36529  18.837   1.233  13.790  0.1556 -0.1092  0.0739
17676W        W36530  13.186  17.250  12.724  0.1714 -0.0557 -0.0440
17677W        W36531   4.308  16.205   2.575  0.0087  0.2970  0.4346
17678W        W36532   8.514  16.376  11.927  0.0323  0.1022  0.3338
17679W        W36533  16.521  17.443  11.882  0.2800  0.1236 -0.0644
17680W        W36534   3.572  14.454   2.693  0.1849  0.1551 -0.3357
17681W        W36535  13.922   2.315   0.079  0.2116  0.0465  0.1075
17682W        W36536  18.674   8.619  12.153 -0.3846 -0.3329 -0.1775
17683W        W36537  16.171   1.184   2.496 -0.0905  0.2330 -0.2759
17684W        W36538   1.651  15.453  14.470  0.3480  0.2567 -0.0304
17685W        W36539   4.426  14.704   2.097 -0.1040  0.0602 -0.0307
17686W        W36540   3.385  13.908   2.035 -0.2611 -0.3489 -0.0789
17687W        W36541   3.434  10.230  11.726  0.3849  0.1547  0.1522
17688W        W36542  18.169  18.125   4.496  0.0193 -0.0700  0.0618
17689W        W36543  17.349   0.879   4.077  0.0483  0.1746 -0.4558
17690W        W36544   3.438  10.052  13.793 -0.0319  0.0378 -0.2115
17691W        W36545  13.431  15.307   1.586  0.1282  0.0516  0.4704
17692W        W36546  14.343  15.580   1.209 -0.1109  0.3757  0.1629
17693W        W36547  16.362   8.959  13.909  0.3244 -0.2580 -0.0524
17694W        W36548  17.542   6.441   2.051  0.1484  0.0741 -0.1202
17695W        W36549   1.796  13.040  11.648  0.1513 -0.2217 -0.1391
17696W        W36550   1.109   3.051  10.859 -0.1946 -0.1237 -0.2211
17697W        W36551   5.149   1.618   1.595  0.2164 -0.1516  0.0917
17698W        W36552  14.361  14.499  10.767 -0.1903 -0.1682  0.1194
17699W        W36553   3.485  18.665   3.664  0.3545 -0.0160  0.1766
17700W        W36554  18.812   8.648  11.338 -0.0500 -0.2776  0.2976
17701W        W36555  12.077   6.435   2.425  0.1500  0.1600  0.2220
17702W        W36556   0.358  13.137   0.804 -0.0465  0.1120 -0.0718
17703W        W36557   7.713   1.795   0.800  0.2895 -0.0493  0.2451
17704W        W36558   7.787   0.520  13.152 -0.1856 -0.0979 -0.0205
17705W        W36559   2.114   2.395   4.624 -0.0628  0.1243  0.2529
17706W        W36560   8.699  11.705   0.485  0.3604  0.0241 -0.1681
17707W        W36561  12.016   0.193   2.103  0.2525 -0.0041 -0.0467
17708W        W36562   2.842  17.886  13.784 -0.1342  0.1542 -0.3139
17709W        W36563  17.095  11.966  11.226 -0.1509  0.2277 -0.0665
17710W        W36564   8.383   2.475   1.190 -0.6323 -0.3893 -0.0459
17711W        W36565   6.899  14.349   2.270  0.2313  0.0726 -0.0611
17712W        W36566   9.485  12.604  10.837 -0.1339 -0.0337  0.0516
17713W        W36567   5.379   2.228   0.616 -0.2848 -0.0981 -0.0006
17714W        W36568  17.197  13.028   1.299 -0.2676 -0.2276  0.0671
17715W        W36569  14.577   4.338   3.021  0.0694 -0.0482  0.2618
17716W        W36570  15.387  17.050   9.723 -0.2659  0.3545 -0.1453
17717W        W36571  17.383  15.672   4.423 -0.1838  0.2046  0.1634
17718W        W36572   0.321  10.956   4.122 -0.1029 -0.0387  0.0695
17719W        W36573   8.379   4.177   3.900  0.0048  0.0477  0.3828
17720W        W36574  12.349   1.880   2.597 -0.0855 -0.0458 -0.0920
17721W        W36575  13.335   5.668   0.346 -0.0663 -0.1167  0.0222
17722W        W36576  16.132   4.120  13.252  0.2145 -0.0046  0.1810
17723W        W36577  10.142   4.612  12.765  0.0389 -0.0796  0.0218
17724W        W36578  17.504   2.951  13.087  0.0448  0.2575  0.2899
17725W        W36579   4.547   8.957  11.657  0.0143  0.2174 -0.0251
17726W        W36580  12.686   7.381   0.000 -0.1630 -0.0146  0.1049
17727W        W36581   9.595  15.565  11.848  0.0367 -0.1256 -0.0312
17728W        W36582  17.982   3.173  10.797 -0.1467  0.1528 -0.0786
17729W        W36583   7.985   9.043   2.112  0.0496  0.1484  0.1916
17730W        W36584  13.130   6.752  13.805 -0.0043  0.1267  0.0378
17731W        W36585   7.768  14.373   1.186 -0.1093  0.0796  0.0487
17732W        W36586   7.003  18.779   2.464  0.3662  0.1543  0.0381
17733W        W36587   2.731  15.936   3.004  0.1058 -0.1702  0.0914
17734W        W36588   1.482   0.255  13.869 -0.1200 -0.3076 -0.1039
17735W        W36589  18.364   4.180  11.910  0.0938  0.3051  0.1904
17736W        W36590  17.128   9.129  10.961 -0.1774  0.1173  0.0081
17737W        W36591  10.060   3.354   5.213 -0.1239  0.0870  0.1612
17738W        W36592  11.084   2.914   2.514 -0.0783 -0.2880 -0.2031
17739W        W36593  16.869   0.332   1.092 -0.1659 -0.0491 -0.2637
17740W        W36594  19.036  16.064   1.214  0.1345  0.0892 -0.4091
17741W        W36595   2.309  16.032  14.246 -0.0246  0.0159  0.1012
17742W        W36596   3.262  18.231  11.581 -0.0759  0.0935 -0.0435
17743W        W36597  10.205   3.249   0.251 -0.1311 -0.2332  0.1759
17744W        W36598  15.293   8.775   9.639 -0.0594  0.0958  0.0256
17745W        W36599  17.285  19.184   1.874 -0.0138  0.3359  0.2987
17746W        W36600   4.075  16.925   1.110  0.1890  0.0946  0.2460
17747W        W36601  12.897  10.313  10.945 -0.0378 -0.2712  0.0869
17748W        W36602   7.296   5.533  14.153  0.0622  0.2060  0.1097
17749W        W36603  15.035   1.350  11.817 -0.0590  0.3425  0.0206
17750W        W36604  16.138   6.407   9.326 -0.2807  0.2019  0.1087
17751W        W36605  14.121   2.423  14.056 -0.0935 -0.6540  0.2056
17752W        W36606   9.363  12.463   1.791  0.0675  0.4892  0.0531
17753W        W36607   2.347   6.737   1.522 -0.0152 -0.2319  0.1611
17754W        W36608   3.121  11.228  11.401 -0.2078 -0.1075  0.4140
17755W        W36609  12.034   0.709   5.582  0.0194 -0.1009  0.1163
17756W        W36610   7.543   8.836  12.324 -0.2170  0.0569 -0.1236
17757W        W36611   5.189  15.577   0.288  0.1324 -0.4247  0.0890
17758W        W36612   3.557  13.119   3.150 -0.3594  0.0827  0.0375
17759W        W36613   9.055  10.874  11.882 -0.0560 -0.1576  0.1249
17760W        W36614  19.112   6.879  10.476 -0.0541 -0.2800 -0.0610
17761W        W36615   1.027   2.640  14.516 -0.4153 -0.2109 -0.0832
17762W        W36616   5.289  10.818  11.384 -0.0224 -0.1655  0.2448
17763W        W36617  10.030   1.216  14.127  0.2033  0.3796 -0.0560
17764W        W36618  16.975  14.678  12.478  0.1711  0.2527 -0.1401
17765W        W36619  13.087   7.728   0.707  0.1603 -0.0553 -0.0497
17766W        W36620   0.318   0.467   0.975  0.0313 -0.0356 -0.0825
17767W        W36621   5.913  12.390  11.417 -0.4008  0.2743 -0.0436
17768W        W36622   4.112   6.547  10.995  0.0696 -0.0819  0.3574
17769W        W36623   3.169   0.886  12.419 -0.2945  0.2425  0.0519
17770W        W36624   8.733  16.849   3.012  0.0264 -0.0772 -0.2542
17771W        W36625  14.321   8.845   3.742 -0.0227  0.1310 -0.1303
17772W        W36626  15.069  18.556  13.021 -0.0373 -0.0480  0.2104
17773W        W36627  14.705   7.150  12.402 -0.0060 -0.4352  0.3760
17774W        W36628   7.634   8.631  14.176  0.0758 -0.2042  0.1350
17775W        W36629   6.204   3.444   0.612  0.3729 -0.1517  0.3073
17776W        W36630   2.522  17.633  11.349  0.0397 -0.1243  0.0425
17777W        W36631  11.390   8.331  13.848  0.1885 -0.1880 -0.1593
17778W        W36632  15.939  16.963   0.772  0.1332  0.0056 -0.0778
17779W        W36633  13.044   4.436  11.951  0.2214  0.0761  0.2034
17780W        W36634  11.548  17.368   3.042 -0.0636  0.3305 -0.1883
17781W        W36635  14.541  12.887   1.671 -0.0037  0.2610 -0.5216
17782W        W36636  14.683  13.073   2.959  0.0350 -0.3539  0.0252
17783W        W36637   2.576  14.797  13.487  0.1466  0.1652 -0.1733
17784W        W36638  14.714   6.554  12.919  0.0130 -0.0111  0.0528
17785W        W36639   9.793  10.640  14.321  0.3060 -0.0309 -0.0645
17786W        W36640  16.659  18.436  14.334  0.0250  0.1256 -0.2941
17787W        W36641   8.595  11.912   1.703 -0.0222 -0.1400 -0.0013
17788W        W36642   9.565  18.584  11.906  0.0704 -0.0172 -0.1221
17789W        W36643  11.775  16.820   2.205 -0.1753 -0.0466 -0.0989
17790W        W36644  12.204  13.302   3.045  0.0804 -0.0083 -0.0499
17791W        W36645   0.731  17.446  11.754  0.1775  0.3268  0.2374
17792W        W36646  14.060   2.009  12.589 -0.1967  0.2555  0.1632
17793W        W36647   7.053  13.121   0.553  0.1197  0.1064 -0.0776
17794W        W36648  11.020  11.725   0.934 -0.2637 -0.1161  0.0729
17795W        W36649   5.954  15.925  11.423 -0.2464 -0.0277  0.0647
17796W        W36650   2.232   5.702   1.917 -0.1786 -0.0745 -0.4561
17797W        W36651   0.266  13.986   3.145 -0.0348  0.0414 -0.1857
17798W        W36652  18.993  15.768  10.845  0.0155 -0.2218  0.3597
17799W        W36653  13.050   8.904   0.221  0.4569  0.3130 -0.2242
17800W        W36654   7.426   6.481  10.442 -0.0867 -0.0199  0.3583
17801W        W36655  10.900   5.332   2.177 -0.2816  0.0104  0.3414
17802W        W36656   6.909   8.137  12.723 -0.1027  0.0774 -0.2075
17803W        W36657   2.117  11.498  10.567 -0.0595  0.2160  0.0612
17804W        W36658  16.204  12.757   2.901  0.1457 -0.0627  0.1028
17805W        W36659   4.056  12.159  13.347 -0.0384 -0.2602 -0.1184
17806W        W36660  12.182  17.965  12.088  0.0546  0.0021 -0.2877
17807W        W36661  12.144  13.616  13.382  0.2804 -0.0109  0.0205
17808W        W36662  14.166  15.938   4.843 -0.0905 -0.1262 -0.1249
17809W        W36663  16.900   2.497   1.725  0.0528  0.0314  0.1452
17810W        W36664   3.111  13.774   4.619 -0.0441  0.0601  0.0157
17811W        W36665  12.364  10.054   1.398 -0.0764  0.1064  0.1765
17812W        W36666   1.188   6.752   2.864 -0.1381  0.2863  0.0132
17813W        W36667   0.139   6.296   2.238  0.1919 -0.0254  0.0041
17814W        W36668  13.190   6.434   3.753  0.1946 -0.0802 -0.0226
17815W        W36669   2.862  17.756  10.959 -0.3171  0.0201 -0.3525
17816W        W36670  14.303  10.843   2.091  0.0324 -0.2660 -0.0906
17817W        W36671   2.612   0.003   4.311  0.1913  0.1994 -0.0830
17818W        W36672  16.371   1.245   3.623  0.1280 -0.2249 -0.0385
17819W        W36673  13.007   0.111   1.660  0.4524 -0.0606  0.0740
17820W        W36674   7.324   3.792  13.920 -0.0781  0.2029 -0.3110
17821W        W36675   3.966   4.152   2.141  0.3019 -0.3266 -0.2165
17822W        W36676   8.044   9.062   4.735  0.0036  0.0460 -0.4085
17823W        W36677  11.231  15.767  10.015 -0.0797 -0.1933 -0.1999
17824W        W36678   5.139  16.215   9.900  0.0355  0.3327 -0.1719
17825W        W36679   6.289   3.474  12.445 -0.0281 -0.0444  0.2518
17826W        W36680   1.583   7.873  13.342 -0.0060 -0.0414 -0.2119
17827W        W36681  11.501  19.164  11.979 -0.0642  0.3768 -0.0355
17828W        W36682  16.735  16.873  12.669 -0.1551 -0.0928 -0.2731
17829W        W36683   4.051  10.215  14.694 -0.0452  0.0931  0.1683
17830W        W36684  10.349   6.573   0.122  0.0846  0.1029 -0.0422
17831W        W36685  19.033   5.060   2.383  0.0435 -0.0543 -0.3429
17832W        W36686   0.853  10.555   0.736 -0.0441 -0.1859  0.2553
17833W        W36687   0.063   8.417  11.644 -0.3196  0.0417 -0.2731
17834W        W36688   4.676  15.106   5.119 -0.0348  0.1304  0.0368
17835W        W36689   1.794  16.586   0.297  0.1012  0.2181  0.1767
17836W        W36690  13.788   8.891  12.741 -0.2532  0.1232  0.0471
17837W        W36691   1.879   3.394   0.630  0.0894 -0.0057 -0.0341
17838W        W36692   3.035   0.934   1.613 -0.1029 -0.2203  0.2217
17839W        W36693  17.852  10.502  12.125  0.1328  0.4642  0.1879
17840W        W36694   8.702  16.003  12.202  0.0005  0.1031  0.0429
17841W        W36695  10.510   3.824   0.975 -0.2212 -0.0773  0.1007
17842W        W36696  10.196  11.910  14.289  0.2426 -0.0428 -0.1269
17843W        W36697  16.772  14.884  13.647  0.0915  0.1557  0.0969
17844W        W36698  14.737  15.941   4.102  0.1654  0.2101 -0.2209
17845W        W36699  10.179   3.996  12.932 -0.1482  0.1115  0.2181
17846W        W36700  14.672  16.569   3.579 -0.1941  0.3022 -0.0783
17847W        W36701  16.897   3.190   1.675 -0.1274 -0.0925 -0.2619
17848W        W36702  14.876  12.058   4.524  0.4667  0.5180 -0.0210
17849W        W36703  14.264  17.516   3.227  0.2567  0.0457 -0.0150
17850W        W36704   4.271   5.264  13.947  0.1934  0.1996 -0.0884
17851W        W36705  18.621   0.925  12.676  0.0515 -0.0143 -0.0823
17852W        W36706  16.521  16.710  11.515 -0.2941  0.0674  0.0296
17853W        W36707  14.864  13.040   4.052  0.2285 -0.0992 -0.0685
17854W        W36708   6.463   1.996   1.488  0.1172 -0.1116 -0.2537
17855W        W36709  16.472   8.097   2.585 -0.0324 -0.1298  0.2230
17856W        W36710  11.232   1.933  13.928  0.0278 -0.1338  0.3719
17857W        W36711  12.244  16.121   1.013 -0.4775 -0.3088  0.2300
17858W        W36712  13.318   8.907   2.736 -0.1212 -0.0139  0.1487
17859W        W36713   2.454  14.277  13.081  0.0845 -0.0532  0.4514
17860W        W36714   1.730  15.005  12.734 -0.0795  0.0859  0.0331
17861W        W36715   0.357   5.213   1.309  0.1682  0.1292 -0.1586
17862W        W36716  16.113  16.552   3.516 -0.0654  0.0167  0.2002
17863W        W36717   4.750  15.414   3.582  0.5141 -0.4298  0.1957
17864W        W36718   6.193  18.363  10.045  0.3019 -0.2260  0.1328
17865W        W36719   6.608  15.630   3.081 -0.0072  0.1999  0.0183
17866W        W36720   2.170   5.118   1.923 -0.0860  0.1347  0.0581
17867W        W36721  16.984   7.902   0.262  0.1246  0.0643 -0.2091
17868W        W36722  18.901   2.951  10.728 -0.0149 -0.0889  0.0601
17869W        W36723  16.721  15.651   1.530 -0.1241 -0.2376 -0.0540
17870W        W36724   5.515   2.654  11.501 -0.3375 -0.1003 -0.0687
17871W        W36725   9.321  18.561   2.978  0.0063 -0.0285  0.0800
17872W        W36726   5.861   1.077   1.452  0.0305 -0.2022 -0.1161
17873W        W36727  15.489   2.839  10.559  0.1771  0.1806  0.0876
17874W        W36728   0.040  13.620   2.177  0.3333  0.0529 -0.1218
17875W        W36729   7.072  15.916  13.613  0.1050  0.0071 -0.1055
17876W        W36730   4.018   9.543   5.402 -0.3214 -0.1596 -0.4006
17877W        W36731  15.611  15.638  11.380  0.2760 -0.1511  0.2818
17878W        W36732   2.351  16.027   3.474 -0.1639  0.0146  0.0863
17879W        W36733   8.674   4.672  12.737  0.1028 -0.0705  0.4266
17880W        W36734   4.593   3.478   2.039 -0.3558  0.2252  0.1501
17881W        W36735   0.895   1.446   3.704 -0.0903 -0.2581  0.1186
17882W        W36736  10.634  12.634  11.841 -0.0589  0.0579 -0.0912
17883W        W36737   4.465  17.186   1.492 -0.0737 -0.1476  0.1517
17884W        W36738  14.122   7.252   4.794 -0.1082  0.0415  0.0176
17885W        W36739  13.562   8.855  13.206 -0.0899 -0.0542  0.0897
17886W        W36740  14.537  11.306  10.785  0.2067 -0.0544  0.2592
17887W        W36741   4.041  18.244   4.513  0.2949  0.1317  0.0346
17888W        W36742   5.109   0.059   4.096  0.1325  0.0585  0.1410
17889W        W36743   2.482   5.232   9.997  0.0553  0.2078  0.0580
17890W        W36744   5.351   7.906   2.688  0.4951 -0.1256 -0.1904
17891W        W36745   0.467  11.097  14.389  0.3650  0.0286 -0.0392
17892W        W36746   2.894  18.989   2.397  0.1992 -0.2578  0.2298
17893W        W36747  15.696  14.830  11.787  0.0756 -0.1964  0.2296
17894W        W36748   5.651   3.202  12.951 -0.2691  0.0322 -0.0856
17895W        W36749   5.696   1.123  10.330  0.2518 -0.2697 -0.0991
17896W        W36750  16.695   7.500   0.099  0.0258 -0.0198 -0.0267
17897W        W36751   8.339   9.775   3.570  0.3334  0.1874 -0.2139
17898W        W36752  11.824  15.830  12.385 -0.1108 -0.1063 -0.2290
17899W        W36753   3.931   5.319  13.485  0.1737 -0.1888  0.0353
17900W        W36754   1.318  12.498  13.896  0.0298  0.2154  0.1174
17901W        W36755   0.117  18.147  11.518 -0.2296  0.3809 -0.0105
17902W        W36756  16.975   9.483   1.011 -0.0175  0.1580 -0.1439
17903W        W36757  18.941  13.433   2.590 -0.0558 -0.3136  0.0925
17904W        W36758  17.069  15.002  11.466  0.1090  0.0569 -0.0437
17905W        W36759  14.732   7.816  11.373  0.1123 -0.1762  0.1856
17906W        W36760  18.605  14.614  11.219 -0.0399  0.2072 -0.0265
17907W        W36761   5.640  15.742  11.736  0.0731  0.0421  0.1910
17908W        W36762   2.985   9.500  11.918 -0.0620 -0.3012 -0.0188
17909W        W36763  17.072   6.686  12.160  0.0591 -0.1394  0.0892
17910W        W36764   5.302   1.353   3.164 -0.0605 -0.2082  0.3182
17911W        W36765   5.834  14.347   0.850  0.0657 -0.3135 -0.1588
17912W        W36766  11.768  16.343   3.733 -0.0220 -0.0909  0.1397
17913W        W36767   5.759   0.077   3.461 -0.0569 -0.2263 -0.1527
17914W        W36768   9.649   8.111   9.702  0.1531 -0.1623  0.2001
17915W        W36769  11.289  19.007   1.977  0.2347  0.0006 -0.1509
17916W        W36770  18.362  13.830   1.829 -0.0798 -0.1382  0.0855
17917W        W36771  13.579   3.747   9.882 -0.1705  0.0629  0.1376
17918W        W36772  11.480   1.339  13.037  0.2927  0.0400  0.0410
17919W        W36773   4.387  13.660  10.678  0.1610 -0.1997  0.0816
17920W        W36774  15.903   7.118  12.167 -0.0540  0.0106 -0.0330
17921W        W36775   2.495  12.268   3.213  0.0116 -0.0897 -0.0292
17922W        W36776   6.654   3.240   4.212 -0.1066 -0.1181 -0.0146
17923W        W36777  15.963   1.748   2.779 -0.0033 -0.1032 -0.3819
17924W        W36778   2.199  18.726  14.401 -0.1055  0.0616  0.1648
17925W        W36779   3.417   3.486  11.739 -0.0566  0.1259 -0.0437
17926W        W36780  18.813  14.783  12.211 -0.1091  0.0394 -0.0408
17927W        W36781  18.190  17.727   0.014 -0.1292  0.1121  0.1543
17928W        W36782   2.628  14.578   1.074 -0.0829 -0.2529 -0.1899
17929W        W36783   9.584  12.111   5.013  0.3340  0.0100  0.0027
17930W        W36784  14.915   5.478   0.299  0.3554  0.1659 -0.1828
17931W        W36785   5.379   0.136  14.397  0.1513 -0.3196  0.0171
17932W        W36786  18.732   4.936  12.220  0.1432  0.0346 -0.3407
17933W        W36787  12.827  11.806   4.577 -0.1546  0.1164 -0.1950
17934W        W36788   6.779  14.925  12.756 -0.3227  0.1193 -0.0407
17935W        W36789  10.011  17.585  12.182  0.1129  0.4004  0.1723
17936W        W36790  18.963  10.957   0.885  0.1878 -0.0780  0.0165
17937W        W36791   5.115   7.606  12.189  0.1578 -0.0731  0.1497
17938W        W36792  18.597  10.664   3.990  0.1481  0.3553  0.0906
17939W        W36793  15.784   2.111  13.712  0.0236 -0.2241 -0.3460
17940W        W36794   5.421  14.249  13.235  0.1884  0.2395  0.1785
17941W        W36795  16.757   4.422  11.761 -0.4573 -0.2221 -0.0667
17942W        W36796   9.532   0.623   1.634 -0.1173  0.1176 -0.0428
17943W        W36797  13.490  19.078  12.504 -0.0607  0.2467 -0.2613
17944W        W36798  13.958   6.613   3.105  0.3997 -0.1994 -0.3074
17945W        W36799  17.698  18.964   1.667 -0.1608 -0.0978  0.1249
17946W        W36800   3.414   8.258   4.423  0.0895  0.0172 -0.1676
17947W        W36801   6.041  15.453  11.549 -0.5270 -0.1197  0.0786
17948W        W36802  12.788   6.470  14.129 -0.0969 -0.0626  0.0349
17949W        W36803   9.731   3.003   3.685  0.0004  0.0279 -0.2367
17950W        W36804   6.514   1.957  13.230  0.1385 -0.0124  0.2221
17951W        W36805   1.580  11.306  12.524  0.0269 -0.1263  0.0752
17952W        W36806   7.358  11.801  10.532 -0.4485 -0.0064  0.1690
17953W        W36807  18.983  17.045   1.473 -0.3124  0.0520 -0.2915
17954W        W36808  17.817   4.689   3.040 -0.0422  0.0990 -0.0757
17955W        W36809  11.852  10.527  11.374  0.3177 -0.0276 -0.1535
17956W        W36810   1.223  18.706   4.263 -0.1385 -0.0591  0.0399
17957W        W36811   8.156   7.627  10.852 -0.1794  0.2094  0.0253
17958W        W36812  18.571   0.773   1.385 -0.1058 -0.2753  0.1339
17959W        W36813   0.239   5.910   0.201 -0.2416  0.0205  0.2853
17960W        W36814   3.171  13.125   2.331  0.2091 -0.1569  0.2373
17961W        W36815   3.873  15.115  12.465  0.0298 -0.0888 -0.2509
17962W        W36816  12.708   4.317   2.488 -0.0976 -0.1510  0.0014
17963W        W36817   3.320  10.789   4.070 -0.0663 -0.1504  0.0908
17964W        W36818  12.215  14.665  12.035  0.1363 -0.0525  0.1486
17965W        W36819   0.639   4.472  12.166 -0.2896 -0.0604  0.0063
17966W        W36820  14.586   1.218   0.784  0.0194  0.1037 -0.2369
17967W        W36821  14.474  18.927   3.008  0.1341  0.2020  0.1382
17968W        W36822  12.128   8.664   2.560  0.4386 -0.0057  0.0867
17969W        W36823   3.716   4.550  10.578 -0.0665 -0.2127  0.0235
17970W        W36824   0.083   8.034   0.542 -0.0311  0.1186 -0.0496
17971W        W36825   6.362   3.271   0.098 -0.0589  0.0068  0.0540
17972W        W36826  18.814  10.477   0.958  0.1730  0.3245  0.2527
17973W        W36827  12.398  19.142   2.268 -0.0762 -0.0881  0.3382
17974W        W36828  11.671  10.143   0.083  0.0226  0.2195  0.3082
17975W        W36829  11.941  17.274   3.876  0.3353 -0.1414  0.1230
17976W        W36830  17.129   6.795   1.065  0.0244  0.1685  0.0462
17977W        W36831   1.366   6.867   1.444 -0.0343 -0.2161  0.2115
17978W        W36832  11.130   4.990   1.916  0.1714  0.1346  0.1045
17979W        W36833  19.032  17.657   1.536  0.1788  0.2014  0.2413
17980W        W36834   4.391   1.034  12.965  0.1150 -0.0577 -0.0624
17981W        W36835   1.846   6.730   2.980  0.2095  0.1436  0.0670
17982W        W36836   4.683  15.490  14.477 -0.1231  0.1133 -0.0027
17983W        W36837   3.805   0.760  14.179 -0.0744  0.0701  0.0646
17984W        W36838  16.364   5.360   2.207 -0.1399 -0.2514 -0.2558
17985W        W36839  12.769   0.757   4.213  0.0189 -0.3072  0.1022
17986W        W36840  11.612   7.327   1.756 -0.0939  0.1308 -0.0813
17987W        W36841  18.380  12.633  10.992  0.0169  0.1073  0.1623
17988W        W36842   0.576  11.394  14.000  0.0526 -0.1330 -0.1318
17989W        W36843   2.750   5.875   0.625  0.3124  0.0356  0.2354
17990W        W36844  14.465   5.927  10.515  0.3540 -0.1124 -0.0797
17991W        W36845  17.843   4.876  13.140  0.0269  0.2095  0.3216
17992W        W36846   7.492  14.381   0.739 -0.0591  0.3112 -0.2842
17993W        W36847  14.847   2.296   0.511 -0.0106  0.0912 -0.0296
17994W        W36848   4.048  12.951   3.773  0.1513 -0.0917 -0.1886
17995W        W36849  11.575   6.361   2.669  0.0750  0.0152  0.0483
17996W        W36850  10.327  11.782   2.124 -0.1850 -0.1904  0.0536
17997W        W36851  15.364   2.756  13.189  0.1434  0.0413 -0.3150
17998W        W36852   4.479   9.063  13.106 -0.0089 -0.0672 -0.0871
17999W        W36853  16.409   3.922  12.415 -0.1315 -0.2976 -0.2193
18000W        W36854  15.038   7.890   3.525  0.1166 -0.4054  0.1637
18001W        W36855  15.232  13.388   3.623 -0.0558 -0.0220 -0.1169
18002W        W36856   2.246  10.449  14.307  0.0377 -0.0979  0.0445
18003W        W36857   2.468   7.225   0.380  0.0033 -0.0492 -0.1166
18004W        W36858   6.546  16.804  10.718  0.3993 -0.1199  0.1139
18005W        W36859   5.252   6.205  14.488  0.0214 -0.0264 -0.2014
18006W        W36860   4.964   4.189  14.236 -0.0213 -0.2398  0.0496
18007W        W36861   1.899   3.536  14.437 -0.2201 -0.3019  0.5298
18008W        W36862   1.339   5.283   1.114  0.0170 -0.0344 -0.1353
18009W        W36863  12.652  16.485   1.070 -0.1379  0.0307 -0.1245
18010W        W36864   2.216   9.604   3.649 -0.2337  0.0389  0.0715
18011W        W36865   8.815  15.517  14.613  0.0414 -0.3443  0.0109
18012W        W36866   8.049  18.432   2.878 -0.1371  0.2973 -0.1471
18013W        W36867  18.016  11.591  13.788 -0.0856 -0.0299  0.1129
18014W        W36868   5.846  12.028   3.498  0.0762 -0.1298  0.0057
18015W        W36869   0.439   0.722   4.661  0.4251  0.4414  0.2271
18016W        W36870  17.752   0.764  10.112  0.0498 -0.3955 -0.1927
18017W        W36871   4.884   5.882   3.666 -0.3001 -0.0626  0.2607
18018W        W36872   6.743  13.873  12.796  0.2284  0.0055  0.3252
18019W        W36873  15.382   0.458  12.837  0.1944  0.1752 -0.0660
18020W        W36874   3.331  15.114   1.369  0.1560 -0.1704 -0.1459
18021W        W36875  11.320  12.541   2.932 -0.1021 -0.5393  0.3585
18022W        W36876   8.583   6.043  10.317  0.1729  0.3230 -0.4588
18023W        W36877   9.583  11.846  10.208  0.2167  0.2543 -0.0563
18024W        W36878   7.673  13.986  12.455  0.5032 -0.0612  0.0004
18025W        W36879   0.492   1.331   4.673  0.0185 -0.2080  0.0640
18026W        W36880   9.643   2.554   0.032 -0.0885  0.3782  0.1437
18027W        W36881   0.230   1.515  12.687  0.1492 -0.4032  0.3155
18028W        W36882   2.134  17.372   5.369  0.1922 -0.0963  0.0446
18029W        W36883  11.941  17.181  11.343  0.2313 -0.2432 -0.1007
18030W        W36884  17.536   5.905   2.810 -0.5345 -0.0932 -0.0885
18031W        W36885   2.527   3.845  11.983  0.4371 -0.4303 -0.1351
18032W        W36886   2.080  17.220  12.122 -0.2175 -0.0807  0.3689
18033W        W36887   9.721  12.074   3.263  0.2899 -0.0406 -0.2419
18034W        W36888  13.772  14.555  12.465  0.3904  0.4140 -0.3838
18035W        W36889   1.877   1.844   3.543  0.0167 -0.1417 -0.1714
18036W        W36890  11.899   4.657   5.332 -0.0630 -0.1216 -0.0228
18037W        W36891   6.834  18.758  12.616  0.0066 -0.0978  0.0962
18038W        W36892   5.524   6.879   3.162  0.1682  0.1794 -0.3675
18039W        W36893   3.850   7.684   2.261  0.0351 -0.0257  0.1180
18040W        W36894  17.314   6.602   1.484 -0.0153  0.1181  0.4114
18041W        W36895   2.336  16.541   0.235  0.1409 -0.1263  0.0994
18042W        W36896  15.027  16.832  14.061 -0.1079  0.3040 -0.4025
18043W        W36897  18.493  16.270   2.664 -0.0052  0.0649 -0.2599
18044W        W36898  16.552   9.941   2.806 -0.5370  0.0395 -0.1607
18045W        W36899  16.673   5.892   2.141  0.1337  0.2263  0.0973
18046W        W36900  14.087   0.739   2.180  0.0448  0.0825 -0.2151
18047W        W36901  17.300   3.247  13.520 -0.0305  0.1669  0.1380
18048W        W36902   5.938  10.823  12.686  0.1145 -0.1229  0.1223
18049W        W36903   3.623  10.390   3.958  0.0059 -0.1464 -0.1368
18050W        W36904   3.746  15.186  10.552  0.0887  0.0497 -0.3051
18051W        W36905   4.592   3.799   0.257  0.3303 -0.1358  0.0228
18052W        W36906  15.982  10.869   1.376 -0.1159  0.2083  0.0815
18053W        W36907   0.829  17.963   5.654  0.5090 -0.2044  0.0029
18054W        W36908   8.656   2.445  13.434  0.0845 -0.2281  0.3524
18055W        W36909   5.934  13.348   3.266  0.1460  0.1353 -0.1016
18056W        W36910   6.565  18.661  10.767  0.0922 -0.0969  0.0839
18057W        W36911  11.210  16.491   1.533  0.1464  0.0321 -0.1286
18058W        W36912  17.470   7.423  11.060  0.3484  0.1026  0.1268
18059W        W36913  15.495   2.516  10.942 -0.0292 -0.2731 -0.0542
18060W        W36914  12.807   6.855   2.750  0.0543 -0.1975 -0.2096
18061W        W36915  18.496  17.132  14.554 -0.0456 -0.2231 -0.0285
18062W        W36916  14.750  14.737   4.956 -0.0323  0.2477 -0.1793
18063W        W36917  17.326  16.027  14.103  0.1802 -0.1092  0.1256
18064W        W36918  12.663  18.629  13.687 -0.1123 -0.0847  0.3461
18065W        W36919  10.263   7.577   1.216  0.0551  0.1153 -0.4107
18066W        W36920  16.877  14.843  14.140 -0.0417  0.2994 -0.3651
18067W        W36921  17.024   6.724   4.051 -0.0772  0.2214  0.3971
18068W        W36922  18.740  12.411   1.780  0.3649  0.1032  0.0860
18069W        W36923   6.939  14.029   3.903 -0.2273 -0.0188  0.0096
18070W        W36924   9.846  10.137  14.337 -0.1063  0.4154 -0.2190
18071W        W36925   2.373   2.396  12.702 -0.3758  0.1582 -0.1902
18072W        W36926  14.890  12.874   9.936  0.2467 -0.2675 -0.0301
18073W        W36927   1.319  12.170  11.502 -0.0796 -0.1117  0.3122
18074W        W36928   0.727  10.720  14.168  0.2173  0.3437  0.3207
18075W        W36929  16.693   0.617   0.670  0.1139 -0.1989  0.0826
18076W        W36930  15.885   3.686  10.997  0.3849 -0.0799 -0.1331
18077W        W36931  10.426   5.924   2.857 -0.1015  0.0352  0.0512
18078W        W36932   8.652  15.810  13.343  0.1728 -0.0464 -0.0349
18079W        W36933   4.332   6.589  10.510 -0.0238 -0.0851  0.0531
18080W        W36934  15.868  18.958  12.827  0.1462  0.0525 -0.1088
18081W        W36935  11.630   3.026   2.310 -0.1707  0.0033 -0.1355
18082W        W36936  15.131  17.628  13.730 -0.2271  0.1645 -0.2139
18083W        W36937   5.968   1.547  12.819 -0.1116  0.0688 -0.0121
18084W        W36938  15.328  17.989   0.246 -0.0572 -0.2615  0.0389
18085W        W36939   3.002  16.666   1.308 -0.3364  0.0946 -0.2210
18086W        W36940   2.527  18.570  14.094  0.1585 -0.0484  0.2238
18087W        W36941   2.582   3.001   3.771 -0.3202  0.1304 -0.1195
18088W        W36942  18.785  17.488   4.206 -0.0812  0.1377  0.0229
18089W        W36943   8.688   1.466   0.818 -0.1288 -0.2583 -0.0413
18090W        W36944   2.297   6.060   0.827 -0.0444  0.0169 -0.1269
18091W        W36945  11.370  14.727   1.822  0.0724 -0.0249 -0.2296
18092W        W36946   6.477  14.640  11.286 -0.1414 -0.0234 -0.1838
18093W        W36947  12.351  11.599   4.374 -0.1431  0.0050 -0.0597
18094W        W36948  12.755   7.929   0.208 -0.1136  0.0199  0.0041
18095W        W36949  11.379  13.037   3.524  0.0709  0.2474  0.2899
18096W        W36950  16.698  15.391  13.498 -0.0258 -0.1556 -0.3153
18097W        W36951   9.324   9.848   0.890 -0.2431  0.2619 -0.1622
18098W        W36952   6.129  15.985  13.377  0.3733  0.1343 -0.0284
18099W        W36953   4.684  17.728   4.677 -0.2162 -0.3051  0.2293
18100W        W36954   9.294   5.600  12.203  0.0491  0.1174  0.1259
18101W        W36955   1.945  17.012   2.651 -0.2633 -0.1932 -0.2760
18102W        W36956   6.593   5.622   0.132  0.4975  0.1779  0.0874
18103W        W36957  11.795  10.468   1.513 -0.0157 -0.1594 -0.1584
18104W        W36958  19.126   1.714  13.059  0.0786  0.0105 -0.0824
18105W        W36959   3.677  16.722   0.398 -0.0312  0.0246 -0.1843
18106W        W36960  12.052   4.330   4.950 -0.1161  0.1373 -0.0261
18107W        W36961   7.979  11.858  11.345  0.0707  0.1962 -0.1455
18108W        W36962   5.244   9.665   0.205 -0.0420 -0.2021  0.2038
18109W        W36963  15.035   3.768  14.284 -0.0505  0.0964 -0.1016
18110W        W36964  13.074  15.974  13.424 -0.2739 -0.1376  0.0337
18111W        W36965  10.996  13.920   4.232 -0.1639 -0.0830 -0.2635
18112W        W36966   8.749   7.037  11.263 -0.1436  0.0320  0.3206
18113W        W36967  13.084   2.610  12.103  0.1007  0.3044  0.0140
18114W        W36968  18.828   1.634  10.701 -0.1493 -0.2330  0.0948
18115W        W36969   5.052   8.836   0.429  0.0392  0.3028 -0.3936
18116W        W36970   5.052   1.195   9.428  0.0138  0.1215 -0.4163
18117W        W36971  10.850   7.690   5.145 -0.0395  0.1985 -0.0969
18118W        W36972   2.879  10.291   2.060 -0.1427  0.1599  0.2039
18119W        W36973   8.980   6.730  11.700 -0.2411  0.3136 -0.2130
18120W        W36974  17.913   8.055  11.969 -0.0184 -0.4271  0.1573
18121W        W36975   8.176   0.648  11.747  0.0555  0.1035 -0.0621
18122W        W36976   3.892   2.217   3.805 -0.2767 -0.0667  0.2020
18123W        W36977   5.726  18.994  13.385  0.0341 -0.0952  0.1217
18124W        W36978  15.202  10.267   3.612 -0.1510 -0.2670  0.5615
18125W        W36979  11.469   9.523   1.698  0.0038  0.3428  0.1168
18126W        W36980   1.221  18.932   1.136  0.2602 -0.2463 -0.0919
18127W        W36981  12.726  10.771  11.305  0.0349 -0.0589  0.0697
18128W        W36982  17.357   5.065  13.590 -0.0960  0.0448  0.2895
18129W        W36983  15.184   4.992   0.552 -0.0308 -0.0866  0.0643
18130W        W36984  17.390   9.952  11.152  0.3331  0.1891  0.0299
18131W        W36985   3.811  13.454   3.366 -0.0933 -0.1268  0.0935
18132W        W36986  14.355  13.677  10.729  0.3294 -0.1071 -0.4156
18133W        W36987  10.738  14.444   2.214  0.2063  0.0508 -0.0898
18134W        W36988  19.193   4.939  13.203 -0.1307 -0.0698 -0.0060
18135W        W36989  18.026   7.031   3.294  0.2365 -0.2386  0.1906
18136W        W36990   3.892  19.134   0.175 -0.2537 -0.1258 -0.1731
18137W        W36991  19.095   6.809   9.726  0.1258  0.0246 -0.2067
18138W        W36992   8.333  12.676  10.598  0.4087  0.2041 -0.2457
18139W        W36993   8.868  12.525  10.697 -0.0170 -0.0663 -0.1365
18140W        W36994   3.495   9.394   3.578 -0.2997 -0.0521  0.1608
18141W        W36995  16.472   1.713  14.392  0.1330  0.0774  0.3668
18142W        W36996  16.808   8.065   1.396  0.1975  0.3508  0.0222
18143W        W36997  10.816  10.007  11.795 -0.3718  0.2250 -0.2672
18144W        W36998   0.783   1.100  12.987  0.0287  0.2111 -0.0164
18145W        W36999   3.145   2.735   1.006 -0.1454  0.0027  0.2211
18146W        W37000  12.441  13.987  14.716 -0.0349  0.2200 -0.0402
18147W        W37001  16.153  19.021   2.994  0.2764  0.2847  0.0865
18148W        W37002   2.362  10.489  12.601 -0.2724  0.1831  0.0068
18149W        W37003  14.132  11.418  11.203 -0.3870 -0.2349  0.1775
18150W        W37004   3.533   6.447   0.203 -0.0387  0.0792 -0.3393
18151W        W37005  16.681   6.696   9.305 -0.0178 -0.1834  0.1015
18152W        W37006  11.766  10.883   1.908 -0.2743 -0.1117  0.1232
18153W        W37007   6.342   2.274  12.371 -0.1086  0.0532 -0.3022
18154W        W37008   7.465  13.344   2.197 -0.0643 -0.0969  0.2178
18155W        W37009   4.656   1.314  13.950 -0.0822  0.1053 -0.1239
18156W        W37010  13.994   3.370   2.981 -0.2217  0.1487  0.0352
18157W        W37011   0.005  10.053  12.127 -0.1368  0.0303 -0.2362
18158W        W37012   6.049  13.683  13.612 -0.2392 -0.3191 -0.3451
18159W        W37013  17.433   3.980  10.034  0.0002  0.1251  0.2086
18160W        W37014  14.516  10.814  10.686 -0.1133  0.1393 -0.1589
18161W        W37015  10.597  12.137  11.667  0.1639 -0.0800 -0.0654
18162W        W37016  11.495   0.349   0.044 -0.2016  0.1319  0.0390
18163W        W37017   9.017   3.113   3.032  0.0617  0.0771 -0.0322
18164W        W37018  13.949   6.210   0.947 -0.1450 -0.0731  0.0404
18165W        W37019   2.440  17.831   3.159  0.0889 -0.4217 -0.3945
18166W        W37020   0.742  17.160   1.334  0.1358  0.1195 -0.1585
18167W        W37021   9.971  15.717   5.534  0.0274  0.0021 -0.1522
18168W        W37022  17.075  13.536  10.926  0.0601  0.2389 -0.2910
18169W        W37023  17.457   6.507  11.855 -0.1065 -0.0111 -0.1341
18170W        W37024   7.597   2.646   1.788  0.0832  0.0749  0.1667
18171W        W37025   5.542   7.716   2.220 -0.2699  0.0109 -0.2048
18172W        W37026   6.279  12.622   0.493 -0.1595 -0.1564 -0.1589
18173W        W37027  16.509   1.509   1.923  0.2088 -0.1998  0.0516
18174W        W37028   8.948   4.821   1.067  0.1882  0.0130  0.0810
18175W        W37029  11.605  16.108   4.195 -0.1988 -0.1654  0.1148
18176W        W37030  17.762   2.829   0.023  0.2698 -0.1541 -0.1061
18177W        W37031   7.917  12.887   9.625 -0.0948 -0.1033 -0.2388
18178W        W37032   4.153   4.575  10.331 -0.0443 -0.0613 -0.0187
18179W        W37033  18.511   6.604  13.494  0.2371  0.2060  0.1752
18180W        W37034  18.578  18.862  12.858  0.0047 -0.1023 -0.0169
18181W        W37035   3.341  17.413  14.724 -0.1000 -0.1979  0.2192
18182W        W37036   6.706   6.523  11.850  0.1586  0.1445 -0.0299
18183W        W37037  14.324   6.282  12.711  0.0468  0.3294 -0.2279
18184W        W37038   6.851   3.255   0.267 -0.3734  0.0674  0.3287
18185W        W37039   8.890   5.439   1.516  0.0604 -0.4137  0.1189
18186W        W37040  16.230  11.802   3.997 -0.1750  0.1643  0.1304
18187W        W37041  18.933   6.835   3.130  0.3533 -0.1158 -0.1902
18188W        W37042   8.086  16.493  13.413  0.2165 -0.0677 -0.1190
18189W        W37043   4.690   8.381  13.973 -0.0518 -0.0834  0.0445
18190W        W37044   6.320  13.892  12.372 -0.2909  0.1195 -0.2718
18191W        W37045  18.975  10.865   1.380 -0.2677  0.0506 -0.5663
18192W        W37046   9.431  17.549   4.055  0.0029 -0.1978  0.1576
18193W        W37047   6.467   0.298  14.456  0.0068  0.1524 -0.1824
18194W        W37048   4.833   3.528   3.455 -0.1863 -0.0437 -0.2018
18195W        W37049   4.012  17.558  14.380 -0.0939 -0.1279  0.1947
18196W        W37050  11.315   0.501  13.096 -0.1073 -0.0159 -0.1066
18197W        W37051   5.106  18.234   2.918  0.3158  0.1445  0.0782
18198W        W37052   3.678  12.115  12.004  0.2540 -0.1388 -0.0715
18199W        W37053  17.370  10.445   4.425  0.2180 -0.0549  0.1049
18200W        W37054  13.601   6.573   2.201 -0.0483  0.0596 -0.2868
18201W        W37055  11.809   8.682  11.123 -0.1758 -0.1618  0.1083
18202W        W37056   1.385   1.663  11.820 -0.0675  0.1890 -0.3320
18203W        W37057   5.941   0.307   2.349  0.1781 -0.2126  0.0173
18204W        W37058   0.994  11.670   5.008  0.1475  0.0299  0.2378
18205W        W37059  16.781   4.802   0.471  0.2005 -0.4963 -0.1022
18206W        W37060  13.027  13.245   0.072  0.1232  0.1938 -0.1139
18207W        W37061  15.974  12.217  11.125 -0.3954 -0.1857  0.3571
18208W        W37062   3.883   6.349   4.406 -0.1169  0.1343  0.1165
18209W        W37063  11.159   0.709  12.566 -0.4668 -0.1590  0.2742
18210W        W37064   9.717  12.977   3.505 -0.0950 -0.1572 -0.1730
18211W        W37065   0.856   8.386   3.701 -0.0471 -0.1468 -0.1894
18212W        W37066   3.489  12.659  11.976 -0.3735  0.2064 -0.1410
18213W        W37067   0.212  13.873  12.292 -0.0270 -0.1540  0.1334
18214W        W37068   7.721   1.492   1.681 -0.0026 -0.0109  0.0248
18215W        W37069   5.370  16.933  13.220  0.1232 -0.2530 -0.2497
18216W        W37070  10.568   6.221  11.008  0.2367  0.1265  0.2015
18217W        W37071   7.989  18.018  14.465 -0.3132  0.2415  0.0123
18218W        W37072  11.289  17.583  11.660  0.0133  0.1373  0.2348
18219W        W37073  11.285   3.630   0.638  0.0554 -0.0888  0.0357
18220W        W37074   2.365  17.446   3.429 -0.0871  0.0682  0.0593
18221W        W37075   1.215  17.243  11.550 -0.0891  0.1463  0.0823
18222W        W37076   6.404   9.267  13.310 -0.0703 -0.1173 -0.2571
18223W        W37077  11.368   6.681  13.068 -0.0820 -0.1358 -0.1645
18224W        W37078   3.419   3.004   9.937  0.4118  0.0965  0.1862
18225W        W37079   0.931  10.136   4.346  0.2238  0.2029 -0.1333
18226W        W37080  16.163   4.628  13.647  0.2231  0.0874 -0.0950
18227W        W37081   1.320   9.069  10.856 -0.0529 -0.0497  0.1424
18228W        W37082   9.412  13.359   0.453 -0.1375  0.0124  0.0840
18229W        W37083   3.127  17.825  12.777  0.2225 -0.2285 -0.0814
18230W        W37084   7.831   4.670  11.594  0.3843 -0.1878 -0.5093
18231W        W37085   5.715  18.284  13.261  0.0609  0.0903 -0.0380
18232W        W37086  11.568  12.481   3.883  0.1810  0.1577  0.0221
18233W        W37087   2.467   5.647  11.109 -0.1656  0.0310 -0.0003
18234W        W37088   7.607  18.347  14.455  0.0937 -0.0130 -0.2208
18235W        W37089  17.358  12.900  12.084  0.0813 -0.0464  0.2103
18236W        W37090  19.119   6.035   0.585  0.0290 -0.0156 -0.1947
18237W        W37091   8.241  11.700   1.998  0.0736 -0.0523 -0.0553
18238W        W37092   2.531  16.823  14.529 -0.0859 -0.3930 -0.4967
18239W        W37093   4.917   3.569   2.458 -0.0570  0.1699  0.1397
18240W        W37094   7.854  18.111  11.936  0.1550 -0.1518  0.1514
18241W        W37095  14.806  18.102   2.005 -0.0933 -0.1848  0.0107
18242W        W37096  17.521   1.441  11.768  0.2795  0.0100  0.0437
18243W        W37097  14.385   0.678   1.770 -0.2432 -0.1297  0.2454
18244W        W37098   8.142  10.155  14.618 -0.3608 -0.0948 -0.3699
18245W        W37099  13.669  16.131  13.414 -0.0900  0.3186  0.0541
18246W        W37100  14.257   9.915   1.726 -0.2353 -0.1165 -0.4720
18247W        W37101  13.509   5.453  13.444 -0.1396 -0.2591 -0.1157
18248W        W37102  19.100   5.024  11.834 -0.0217  0.0545 -0.0196
18249W        W37103   8.496  12.323  11.704  0.2379  0.0813 -0.1765
18250W        W37104  17.047   2.200  11.276 -0.0441  0.2702 -0.4071
18251W        W37105   8.045  13.014   3.910  0.3434 -0.0428  0.1286
18252W        W37106  10.000   5.741   1.238  0.2922 -0.1690 -0.0550
18253W        W37107  13.870  17.295   3.496 -0.0070 -0.0322  0.0273
18254W        W37108  16.700   0.230   1.541 -0.0213  0.1176 -0.0301
18255W        W37109   7.459  13.708   4.228 -0.1921 -0.2492 -0.1504
18256W        W37110   0.741   7.275  11.691  0.2520 -0.1167 -0.1488
18257W        W37111   3.189  11.349   3.197 -0.1827  0.1131 -0.0782
18258W        W37112  11.528  10.477  13.642  0.0631 -0.1965 -0.0896
18259W        W37113   9.842  16.764  12.469  0.1000 -0.0836  0.0665
18260W        W37114   6.993  11.849  13.790 -0.0444  0.0429  0.1681
18261W        W37115   2.065  16.404  13.621 -0.0564 -0.0148  0.1994
18262W        W37116  12.757   8.250   2.404 -0.0160  0.0411  0.1990
18263W        W37117   0.752   7.030   2.053  0.1815  0.1673 -0.3503
18264W        W37118   9.211  10.373  13.293 -0.1303  0.0739 -0.1598
18265W        W37119   7.560  10.082  11.066 -0.0361  0.3792  0.2076
18266W        W37120   6.711  10.854   4.030  0.3983 -0.3761  0.2546
18267W        W37121   0.258   8.659  13.506 -0.0015 -0.1372 -0.2533
18268W        W37122  15.062   0.855   2.860 -0.1172  0.1150 -0.2162
18269W        W37123  14.880  16.225   0.927 -0.2832  0.1007  0.1103
18270W        W37124   8.745  15.952  11.674  0.1192  0.1287  0.3851
18271W        W37125   5.442  11.950   2.655  0.0906 -0.0169 -0.1137
18272W        W37126   5.853   7.149  10.468  0.0939 -0.1891  0.1419
18273W        W37127  12.123  10.935   0.259  0.2457 -0.1705 -0.0301
18274W        W37128   9.275  18.762  10.935  0.0188 -0.2659 -0.0145
18275W        W37129  18.033  10.847  10.100  0.3665  0.1715 -0.1004
18276W        W37130   5.076  12.230   2.960  0.2674  0.1143  0.1489
18277W        W37131   5.282   8.161   4.080 -0.1225 -0.0240  0.1930
18278W        W37132   4.680  12.848  13.501 -0.1836 -0.2321 -0.3193
18279W        W37133   8.854   6.137  11.720  0.1951  0.0700 -0.0600
18280W        W37134   7.217  12.385  13.870  0.0419 -0.0573 -0.1058
18281W        W37135  13.940  13.148   2.309 -0.3051  0.2899  0.1882
18282W        W37136   9.446  10.606   9.560 -0.1218  0.0996  0.1031
18283W        W37137  13.795  16.171  10.627  0.1969  0.1108  0.0324
18284W        W37138  13.633  15.137   4.178 -0.0613 -0.1748  0.0399
18285W        W37139  16.829  15.447  11.567  0.1911  0.0911  0.1093
18286W        W37140  12.677   5.697  13.534  0.0908 -0.0216 -0.0583
18287W        W37141   6.124  10.308   4.643  0.0038  0.0390  0.1079
18288W        W37142  14.416  10.601   3.830 -0.1702 -0.1458 -0.2593
18289W        W37143  11.556  11.470  12.410 -0.0912  0.2320  0.0498
18290W        W37144   0.709  12.549  14.028 -0.1509 -0.0188 -0.1428
18291W        W37145  15.711   1.175  10.466 -0.0683 -0.0496 -0.4472
18292W        W37146   2.529  11.054   1.554  0.4225  0.2576  0.0628
18293W        W37147  17.358  13.588   0.423  0.4160 -0.1271  0.0395
18294W        W37148  18.266   4.794  13.597  0.0559 -0.2326  0.2502
18295W        W37149   0.051   3.241  11.611  0.2052  0.0491  0.0159
18296W        W37150   5.300   5.131   2.003  0.3094 -0.0819  0.0292
18297W        W37151   1.391  15.329   3.648  0.0319  0.0287 -0.1768
18298W        W37152   5.088  11.314  11.589 -0.1038  0.2155  0.0221
18299W        W37153   3.412  12.509  11.514  0.0233  0.1146  0.0681
18300W        W37154   3.649   5.672   0.831  0.1207 -0.2298 -0.0775
18301W        W37155  17.448   0.388  13.633  0.1472 -0.1262 -0.3774
18302W        W37156  15.269  12.520  10.647  0.2034 -0.2984  0.0149
18303W        W37157   9.711   2.108  12.124 -0.0240  0.0046  0.2454
18304W        W37158   8.940   0.711  14.075  0.0303 -0.2057 -0.0360
18305W        W37159  14.270   9.825   2.674  0.1044 -0.0849 -0.0944
18306W        W37160  19.169   5.979  13.590  0.1391 -0.2584 -0.0258
18307W        W37161   8.425   9.216   2.295 -0.0218 -0.1320 -0.1046
18308W        W37162   1.971   4.791  10.968 -0.2028 -0.1982 -0.1933
18309W        W37163   2.280  14.035   0.394 -0.2281  0.3936  0.0986
18310W        W37164  15.464  17.615  12.121  0.1497  0.0584  0.1310
18311W        W37165   9.222   2.236   1.564  0.0258 -0.3905  0.1296
18312W        W37166  10.780  15.068   3.062  0.1753 -0.2554  0.3748
18313W        W37167   2.435   6.103  12.190  0.0059 -0.0695  0.1982
18314W        W37168   2.103  15.964  13.799 -0.1398 -0.0339 -0.3310
18315W        W37169   0.809  18.708   3.076 -0.3329  0.2839 -0.1750
18316W        W37170   6.905  14.321  10.048 -0.0580 -0.4063 -0.0103
18317W        W37171  15.088  15.482  11.535 -0.0479 -0.0011  0.1313
18318W        W37172  13.921   0.392  14.637 -0.1871  0.2446 -0.1125
18319W        W37173   3.746  10.735  12.654 -0.1204 -0.2864 -0.1307
18320W        W37174  10.795   0.248   1.187  0.0973 -0.1463  0.2982
18321W        W37175   5.279   2.495  11.084 -0.2628 -0.0906 -0.1952
18322W        W37176  12.437   9.140   0.810 -0.1048 -0.2053 -0.1724
18323W        W37177  17.366  16.392  11.496 -0.6077 -0.1544 -0.0342
18324W        W37178   2.118  15.462  11.651 -0.1199  0.0774  0.0055
18325W        W37179   0.836   3.428  10.722 -0.1490 -0.1318 -0.1656
18326W        W37180   1.108   7.651  11.908 -0.2388 -0.1764 -0.2096
18327W        W37181   6.327  17.682   2.489 -0.0338  0.1365  0.2743
18328W        W37182  15.321   6.619  14.708 -0.2712 -0.2764 -0.0425
18329W        W37183   7.198   2.726  10.963 -0.1896 -0.2984 -0.0424
18330W        W37184   0.073  15.312  14.243  0.0702 -0.2531 -0.0265
18331W        W37185   9.420  13.620   2.861 -0.3187 -0.1519 -0.2941
18332W        W37186   4.348  13.097  13.233  0.0503 -0.0298  0.0968
18333W        W37187  17.853  10.146  12.505 -0.0150  0.1176 -0.2193
18334W        W37188   4.894   2.141   3.819  0.2661  0.0350  0.1900
18335W        W37189   2.795   3.516   1.793  0.2540  0.1168 -0.1394
18336W        W37190   0.631   9.585  13.835  0.0578  0.0640 -0.1319
18337W        W37191   0.253   7.357  11.821  0.0898 -0.0733  0.1024
18338W        W37192   2.633   5.042  14.599 -0.0612  0.0438 -0.1654
18339W        W37193  12.722   3.382   0.234 -0.3579 -0.3990 -0.1486
18340W        W37194   9.905   7.712  11.111 -0.1018  0.3617  0.0727
18341W        W37195   8.782   7.881   1.537 -0.0553  0.1728 -0.0874
18342W        W37196   9.339  15.954   4.094  0.0313 -0.2295  0.1900
18343W        W37197   0.179   5.294   4.462  0.1499  0.1230  0.0495
18344W        W37198   3.238   0.795  11.086  0.1820 -0.1598 -0.1754
18345W        W37199  11.529  16.060  13.899 -0.1118 -0.2388  0.1962
18346W        W37200  13.219   8.272  11.709  0.1468 -0.2465 -0.0129
18347W        W37201  17.328   3.456   1.837  0.2058 -0.0938 -0.0448
18348W        W37202   7.632  14.326  12.869 -0.0853  0.2433  0.1612
18349W        W37203   5.748  10.602   0.282 -0.0959  0.0859  0.2061
18350W        W37204  16.798   7.036   3.739 -0.2457 -0.0772  0.3109
18351W        W37205  13.040   3.602  12.516  0.1234 -0.2227 -0.1288
18352W        W37206  12.163  12.064  10.588  0.0680 -0.0393 -0.2083
18353W        W37207  12.093   3.435  11.903 -0.2809 -0.2938  0.1051
18354W        W37208   9.062   7.117   2.118 -0.1826  0.2564  0.0823
18355W        W37209  10.001  19.033   1.808 -0.0132 -0.1380 -0.2584
18356W        W37210  17.329   6.376   2.766  0.0395 -0.0372  0.1326
18357W        W37211  10.267  15.819  10.537  0.1147  0.1138 -0.0827
18358W        W37212  14.370  13.100  14.487 -0.1154 -0.2343 -0.3024
18359W        W37213   2.606   4.320   4.056  0.2110  0.1753 -0.0568
18360W        W37214  13.216  12.742  11.127  0.0626  0.3060 -0.1124
18361W        W37215   2.930  16.584   2.393 -0.0054 -0.1506 -0.1261
18362W        W37216   7.925  10.536  11.227 -0.0292 -0.1528 -0.2350
18363W        W37217  16.223  18.648  12.435  0.0909 -0.1152 -0.0133
18364W        W37218   2.398  11.494  13.476 -0.1004  0.1261  0.1571
18365W        W37219  10.155  13.506  11.584  0.0910 -0.0426  0.4255
18366W        W37220  13.207  14.762  13.991  0.0742  0.2627 -0.0148
18367W        W37221  19.093   7.268  14.172 -0.1339 -0.0812  0.0887
18368W        W37222   4.284  11.876   1.020 -0.2804 -0.1392 -0.2658
18369W        W37223   6.350  16.396   0.110  0.1850  0.0630  0.0992
18370W        W37224  12.561   0.034   3.608  0.1931 -0.2138 -0.0486
18371W        W37225  15.689   3.121  10.946 -0.0107  0.0467  0.3466
18372W        W37226   3.577   6.005   3.489  0.1564  0.0418  0.0830
18373W        W37227  10.559   2.951   2.458 -0.1272  0.1256  0.1156
18374W        W37228   3.206   7.113   4.319 -0.1710 -0.0566 -0.2692
18375W        W37229  11.516   4.554   0.150  0.1213  0.1347 -0.1853
18376W        W37230   8.218   8.234   3.151 -0.0992  0.4193 -0.2529
18377W        W37231   7.545  18.271  12.741  0.2946 -0.0184 -0.0279
18378W        W37232   8.003   5.617   3.106  0.1989  0.2052  0.0439
18379W        W37233   3.711  14.099   4.515 -0.4276  0.3034 -0.1285
18380W        W37234  11.036   0.889   0.735  0.4042  0.1446  0.3403
18381W        W37235  11.334  11.979  10.851 -0.2231 -0.0238 -0.0479
18382W        W37236   1.240  12.877  12.604  0.1184  0.0546 -0.0148
18383W        W37237  10.544   2.450  12.186  0.2076  0.2844 -0.2235
18384W        W37238   2.376   2.472  11.194  0.3729 -0.0019 -0.1510
18385W        W37239   2.681   3.340  11.117  0.2956  0.0324 -0.1054
18386W        W37240   5.140  17.383   1.185 -0.2004  0.1901  0.0237
18387W        W37241  18.332   0.241  13.087  0.4667 -0.0775 -0.2305
18388W        W37242  11.931   3.486  10.525 -0.1319 -0.0225 -0.1444
18389W        W37243  14.034  19.028   2.629 -0.1082  0.1872  0.3681
18390W        W37244  13.720   9.617  13.453 -0.0623 -0.3059 -0.1640
18391W        W37245  10.483  15.019  13.182  0.1675  0.1215  0.0569
18392W        W37246   7.694   8.254  12.513  0.2983  0.3541 -0.0568
18393W        W37247   3.348  10.906   0.095  0.3257  0.1524  0.0278
18394W        W37248   9.976   6.602   4.164  0.1749 -0.0551 -0.1730
18395W        W37249   6.534   9.841   2.728  0.0928 -0.1440  0.1088
18396W        W37250  14.198  11.440   3.931  0.3598  0.0763 -0.1324
18397W        W37251  10.881  13.308  14.351 -0.0324  0.2572  0.1025
18398W        W37252   6.413   3.804  13.262  0.3366  0.1354 -0.1033
18399W        W37253   0.968  15.371   0.481  0.0519  0.1248  0.2300
18400W        W37254  10.747   6.223   0.302  0.1009 -0.2280 -0.0336
18401W        W37255   3.676   5.285   0.439 -0.2802  0.2206  0.3073
18402W        W37256   4.044  16.985  11.363 -0.1896 -0.2235  0.2671
18403W        W37257   7.678  15.175   3.646  0.0655  0.0207 -0.0548
18404W        W37258  10.364   7.549  11.662 -0.0394  0.0527 -0.1573
18405W        W37259   9.709  15.113   0.915 -0.2764 -0.1399  0.5665
18406W        W37260  10.175   1.484  11.311  0.2017 -0.0823 -0.0421
18407W        W37261   4.597  14.011  10.978 -0.2664  0.0163 -0.3000
18408W        W37262   2.080  14.716  13.038  0.2131  0.3514  0.0288
18409W        W37263   3.274   7.690  10.407 -0.0419  0.2543  0.0468
18410W        W37264  19.055  12.904  11.500  0.1357  0.3089 -0.0932
18411W        W37265  14.253   0.620   3.123 -0.0497  0.0253  0.0524
18412W        W37266   8.705   4.214   1.826  0.2152 -0.4837 -0.0574
18413W        W37267  10.370   7.963   2.034 -0.1194 -0.3087 -0.0777
18414W        W37268  11.772  11.095  12.673  0.1724  0.2365 -0.0915
18415W        W37269  16.659   1.681   0.571  0.2059  0.1046 -0.2132
18416W        W37270   2.959  17.578   3.949 -0.2194  0.3782  0.4598
18417W        W37271   7.640  15.881   2.990 -0.0231  0.3982  0.0410
18418W        W37272   8.534   6.093   1.045 -0.1769  0.0293 -0.0812
18419W        W37273   7.586   5.537  12.061 -0.1194  0.2470  0.2470
18420W        W37274   5.471  10.338   4.279 -0.1347  0.1590  0.0300
18421W        W37275  15.039   1.088  12.650 -0.1452  0.0772  0.0989
18422W        W37276  16.309   6.520   0.117 -0.0894  0.0471 -0.0786
18423W        W37277   8.757  14.633   3.608 -0.3692  0.0633  0.0340
18424W        W37278  10.581   1.393   1.484  0.2281 -0.4490  0.1394
18425W        W37279  15.398  11.333  11.542  0.0847 -0.0353 -0.0932
18426W        W37280  13.772   6.760   1.083 -0.1453 -0.0347  0.0140
18427W        W37281  16.015  18.830   1.987 -0.1545  0.4229  0.2426
18428W        W37282  16.103  13.242   4.082  0.1660  0.1352  0.1538
18429W        W37283   0.895   4.649  11.702 -0.0982  0.0083  0.0291
18430W        W37284  13.411   2.401   3.045  0.2028 -0.0293  0.1074
18431W        W37285   2.199   3.200   4.011  0.3057  0.3067  0.0818
18432W        W37286   2.882   8.908  14.110 -0.0044  0.0799 -0.1032
18433W        W37287   2.432  12.311   4.667  0.1035  0.0649  0.1349
18434W        W37288   1.203  12.595  13.228  0.1118  0.0124 -0.1284
18435W        W37289   3.348   4.411  11.026  0.0329 -0.3098 -0.0535
18436W        W37290  17.558  12.925  11.362  0.1177  0.0846  0.4066
18437W        W37291  16.795  13.717  11.517  0.5891 -0.0699  0.2223
18438W        W37292  10.982   5.591  11.988  0.0733 -0.5891  0.1045
18439W        W37293  12.850  19.202  14.045 -0.1953  0.0286  0.2482
18440W        W37294   9.784  17.692  13.889  0.2372 -0.0521  0.0137
18441W        W37295   3.947  11.443   0.371 -0.0254 -0.1657 -0.0569
18442W        W37296  18.022   9.362   1.025 -0.0763 -0.1930 -0.0078
18443W        W37297  13.123  10.835  10.783  0.0423 -0.0158 -0.0244
18444W        W37298   8.273   8.863  11.839 -0.1612 -0.2891 -0.1060
18445W        W37299  10.202   0.252  10.012 -0.0486  0.1566  0.0424
18446W        W37300   0.192  18.164  12.137  0.0902 -0.3401  0.0314
18447W        W37301   4.780  14.476  10.676  0.3866  0.1024 -0.0969
18448W        W37302  11.919  10.415  13.315 -0.0448 -0.1321 -0.1272
18449W        W37303  10.856  17.553  14.694 -0.1161  0.2116 -0.0759
18450W        W37304   3.509  12.148  14.592 -0.2210  0.2058  0.1330
18451W        W37305  12.061   5.902   0.702 -0.1961 -0.2140 -0.2091
18452W        W37306  17.427   7.913   0.071  0.0309  0.1323  0.1519
18453W        W37307   1.420  14.693  14.225  0.0398  0.1337 -0.3294
18454W        W37308   0.081   1.318  11.427 -0.2010  0.1053 -0.0601
18455W        W37309   9.299   6.607   1.461 -0.0555  0.1975  0.1270
18456W        W37310   6.176  10.942   0.181  0.0469 -0.2163  0.0018
18457W        W37311   0.622  14.233  10.445  0.1590 -0.0338 -0.2626
18458W        W37312  19.178   6.281  13.090  0.2344 -0.1106 -0.1397
18459W        W37313  15.227   3.685   1.484  0.0106  0.4066  0.1889
18460W        W37314   1.870   7.517  13.016  0.2014  0.1389 -0.0596
18461W        W37315   8.449  12.583  10.086  0.1406  0.1650  0.2681
18462W        W37316   8.232  17.213   2.692 -0.1316  0.0274  0.3737
18463W        W37317   1.290  11.123   1.270 -0.0116  0.0140  0.0908
18464W        W37318   1.342  15.895  12.004 -0.0469 -0.3212 -0.0799
18465W        W37319  10.016   1.237  10.895  0.1046  0.1216 -0.1702
18466W        W37320   6.370   7.134   1.445 -0.0520  0.0121 -0.2422
18467W        W37321  18.657   6.844   1.155  0.0683 -0.3035  0.0510
18468W        W37322   8.983  10.185  10.230  0.2778  0.1261 -0.3695
18469W        W37323   7.693   1.826  14.660  0.2006 -0.1596 -0.0480
18470W        W37324   8.188  16.322   1.501  0.0165  0.0676 -0.2090
18471W        W37325  12.625   8.632   2.679 -0.3033  0.2952  0.2055
18472W        W37326  10.057  15.242  12.817 -0.2173 -0.0500  0.1421
18473W        W37327  15.972  11.487   0.808 -0.0445  0.2014  0.2708
18474W        W37328   9.603  18.428   5.239 -0.0043 -0.2433 -0.0542
18475W        W37329  12.903   5.788   3.073 -0.2138  0.0527 -0.1218
18476W        W37330   5.826   4.423  10.721 -0.0316  0.1896  0.0191
18477W        W37331  15.149   5.505  12.009 -0.3368 -0.3218  0.2894
18478W        W37332  18.599  14.183  14.004  0.0435 -0.0119  0.0801
18479W        W37333  18.789   8.634   1.245  0.0505  0.1513  0.1082
18480W        W37334   1.537  14.576   4.361 -0.3602  0.1668 -0.0740
18481W        W37335  14.338  13.720  14.661 -0.2577 -0.3892  0.3624
18482W        W37336   9.063  16.899  14.598  0.0292 -0.1649 -0.1636
18483W        W37337   4.641  12.997   2.502  0.0847 -0.0297 -0.1386
18484W        W37338   6.622  18.293  12.673  0.2100  0.0956  0.1398
18485W        W37339   4.238  16.936   0.491  0.1177 -0.0128 -0.2032
18486W        W37340  16.009  10.534  13.021  0.2579 -0.3113  0.1891
18487W        W37341  17.577   3.766   3.408  0.1616  0.0633  0.1137
18488W        W37342   8.823   7.368   2.490 -0.1440  0.0025 -0.1482
18489W        W37343  14.330  15.181  10.739  0.0911  0.1899 -0.2361
18490W        W37344  10.047  11.505   1.688  0.1636 -0.1405  0.1703
18491W        W37345   0.915   8.815  11.330  0.1746  0.2848  0.0342
18492W        W37346   7.292   3.808   0.973  0.0636  0.3266 -0.2220
18493W        W37347   1.905   9.252  12.448  0.0600 -0.2194  0.1448
18494W        W37348   4.584  13.032   3.000  0.0813  0.2496  0.0187
18495W        W37349   1.972   3.077  14.265 -0.1391  0.1984 -0.0996
18496W        W37350  11.843  15.784   1.056 -0.1431 -0.1899  0.0516
18497W        W37351  19.182  12.011  12.794 -0.0204 -0.1683 -0.0345
18498W        W37352   7.098  11.044  11.412 -0.1549  0.4115  0.2785
18499W        W37353   3.304   0.861  11.871  0.0007 -0.1754  0.1044
18500W        W37354   6.303   6.840   2.226 -0.0938 -0.1895  0.1483
18501W        W37355  10.575  11.815  11.129  0.1558 -0.0201  0.2012
18502W        W37356  16.746   9.112   0.129 -0.1951 -0.0060 -0.1685
18503W        W37357  10.347   6.202  11.511  0.3164  0.2076  0.0517
18504W        W37358  14.858  12.008  11.172 -0.0031  0.1240  0.0581
18505W        W37359   1.591  14.202  11.707 -0.1706 -0.0061 -0.0043
18506W        W37360   7.341  17.598  11.231 -0.2025  0.2147 -0.0932
18507W        W37361   8.963  12.572   4.416 -0.0916  0.4276  0.1222
18508W        W37362  16.828  15.924   1.890  0.0507 -0.1321  0.0046
18509W        W37363  18.898   8.976   2.647 -0.1701 -0.2309 -0.1707
18510W        W37364   5.299  15.894   0.799  0.0558 -0.1641 -0.2951
18511W        W37365   2.895  11.133  10.912 -0.0375  0.0985 -0.1717
18512W        W37366   1.604   1.765  12.678  0.0686  0.0238 -0.0660
18513W        W37367  16.712  10.727   2.772  0.1392  0.0923 -0.2450
18514W        W37368   2.485   9.689  13.818 -0.1302  0.0799 -0.3945
18515W        W37369  16.713   5.178   3.753 -0.0047  0.2747 -0.3000
18516W        W37370   2.088  16.708  12.096 -0.0344  0.0269  0.0990
18517W        W37371  18.304   6.406  11.576  0.2039 -0.3689 -0.1786
18518W        W37372   3.945   1.197  10.850  0.2636 -0.0582 -0.2571
18519W        W37373   2.645   9.315  11.052  0.4233  0.0350  0.0916
18520W        W37374  19.129   7.902   2.147  0.2864  0.1079  0.1428
18521W        W37375  14.841   2.192  11.578  0.2080 -0.1884  0.3076
18522W        W37376   0.202  17.782   1.875  0.2438  0.3236  0.1820
18523W        W37377  14.152   8.667  11.453  0.0757  0.2402 -0.2937
18524W        W37378  18.707  11.855  12.924 -0.0332  0.0734  0.0653
18525W        W37379  15.278   5.838   4.175 -0.2047 -0.1605  0.0410
18526W        W37380   5.785   3.690   3.691  0.0872  0.1625  0.0370
18527W        W37381   7.839  18.925   2.654  0.0412 -0.1810  0.2552
18528W        W37382  16.993  15.356   1.985 -0.1369 -0.3002 -0.0807
18529W        W37383   5.435  11.067   9.480  0.2428  0.1683 -0.1291
18530W        W37384  14.652  13.555  12.995  0.1794 -0.0525 -0.2534
18531W        W37385   4.892   3.347   0.716  0.4768 -0.0347  0.3756
18532W        W37386  16.382  14.034  13.299  0.2592  0.3142 -0.3508
18533W        W37387   6.981   6.872   3.836  0.1816  0.0823 -0.0422
18534W        W37388   9.081   8.039   1.949  0.3610 -0.0960 -0.0243
18535W        W37389  15.589  16.378   2.543 -0.0745 -0.2974  0.2059
18536W        W37390  19.047   3.999  12.895 -0.0756 -0.1855  0.2520
18537W        W37391   2.313   9.004   1.079  0.1438 -0.0725 -0.1937
18538W        W37392   3.998   8.125   2.455  0.0242  0.1915  0.1133
18539W        W37393   6.404   8.784  10.691  0.3268 -0.0256  0.0564
18540W        W37394   1.670  18.971  10.975  0.0052  0.2393 -0.1714
18541W        W37395   1.603  15.037   0.854  0.1141 -0.2941 -0.3035
18542W        W37396   0.279   3.357   1.318  0.0353  0.1811  0.0884
18543W        W37397   9.380  15.675   4.516 -0.1576  0.0472 -0.2080
18544W        W37398  10.678   8.793  13.367 -0.0279 -0.1860 -0.0319
18545W        W37399   4.782   7.626  12.763 -0.1024 -0.0615 -0.1236
18546W        W37400  12.194  18.599  11.734 -0.0555  0.1517  0.1853
18547W        W37401   7.791  15.787   0.974  0.2738 -0.0259 -0.0850
18548W        W37402  10.055  18.414  11.055  0.1455  0.1741 -0.0426
18549W        W37403   8.140  11.219  12.855  0.0178 -0.0913 -0.3484
18550W        W37404   1.430   7.565  11.324 -0.0305 -0.2548  0.0121
18551W        W37405   3.278  19.139  11.884  0.0557  0.0947  0.0985
18552W        W37406   3.391  11.354  10.825  0.0084 -0.1879  0.3098
18553W        W37407  17.482   8.387  10.322 -0.0646  0.2629  0.1756
18554W        W37408   4.847   4.237   4.531  0.2814  0.3978  0.0616
18555W        W37409   2.740  18.326   2.009  0.1272 -0.2776 -0.3233
18556W        W37410  12.095   2.718  13.660 -0.3932  0.2989  0.0594
18557W        W37411  14.082   8.192  11.617 -0.0901  0.2209  0.4310
18558W        W37412  17.689  12.485   3.393  0.2247 -0.0337 -0.2930
18559W        W37413   1.484   5.183  14.095  0.5812  0.0788 -0.1612
18560W        W37414  10.112   9.616   0.861  0.1125 -0.4804 -0.1364
18561W        W37415  14.735   6.720  11.474 -0.0442  0.2339 -0.0343
18562W        W37416   1.442   3.061  13.647 -0.1733 -0.0067 -0.2567
18563W        W37417   9.883  14.611  11.747  0.1570 -0.1239  0.1976
18564W        W37418  17.737   2.310  11.003 -0.0238  0.1790  0.1936
18565W        W37419  10.681   3.999  12.764  0.1405  0.2903  0.3701
18566W        W37420  17.301   7.745  13.147  0.0457 -0.2080  0.2070
18567W        W37421   9.454   2.503  12.288  0.0959 -0.0051 -0.0319
18568W        W37422  16.464   0.202   0.818  0.2672  0.1471 -0.2360
18569W        W37423  10.885  14.427   1.643 -0.1394 -0.0770  0.2109
18570W        W37424   9.131  14.056   2.588  0.0420 -0.1695  0.1859
18571W        W37425  18.771   1.292   0.761  0.2510  0.2725  0.0759
18572W        W37426   3.420   5.539   2.688 -0.0209 -0.2968  0.1080
18573W        W37427   9.455   8.889  14.450 -0.0217 -0.4314 -0.1625
18574W        W37428   9.372   0.421   1.077  0.3721 -0.0615 -0.2572
18575W        W37429   9.994   3.678   4.298  0.3475  0.3072 -0.0450
18576W        W37430  14.954   1.072  14.318 -0.0806 -0.1109 -0.0400
18577W        W37431   5.759   9.741  12.800  0.0388 -0.1709 -0.4347
18578W        W37432  15.010   3.898   3.980  0.2229 -0.0215 -0.0420
18579W        W37433  16.842  11.061   3.586 -0.3486  0.0502 -0.0283
18580W        W37434  16.061   4.332   2.518  0.0712 -0.1416 -0.1228
18581W        W37435   8.845  17.805  11.021  0.1319  0.1417 -0.0451
18582W        W37436  13.966  11.856   3.403  0.0361  0.0127  0.1979
18583W        W37437  11.922   9.891   3.516 -0.1467 -0.2493  0.0135
18584W        W37438   1.307   2.601   1.774  0.1322 -0.3098  0.0337
18585W        W37439   9.249  12.032  12.529 -0.3957 -0.3310 -0.0344
18586W        W37440   9.428  14.360  14.223  0.1093 -0.1898 -0.3720
18587W        W37441  13.101   6.568   1.459  0.3140 -0.0544  0.1087
18588W        W37442   4.124   4.201  14.660 -0.0322 -0.1251  0.1924
18589W        W37443   9.401   5.841  12.652  0.5165 -0.1024 -0.1505
18590W        W37444   4.265   9.986   3.648 -0.0938  0.0333  0.2887
18591W        W37445  12.611   3.388   1.017 -0.1884  0.0985 -0.2233
18592W        W37446   8.882  16.490  12.373  0.0458  0.0177 -0.0858
18593W        W37447  16.158  11.282  11.944  0.2430 -0.0125  0.2819
18594W        W37448   9.522  11.673   5.270  0.0329  0.1867  0.3115
18595W        W37449   0.405  12.115   3.007  0.0864  0.1116 -0.0005
18596W        W37450  12.756  11.276   3.024 -0.1795 -0.0252  0.0744
18597W        W37451  10.402   0.970   1.404 -0.3051 -0.1588 -0.2190
18598W        W37452  18.801  10.836  12.153  0.2439  0.3015  0.0024
18599W        W37453  17.974  10.009   3.016  0.1730 -0.0375 -0.2780
18600W        W37454  17.513   8.660  12.597  0.0866  0.0766  0.2285
18601W        W37455  19.123   3.642  13.785  0.1111 -0.0930 -0.0354
18602W        W37456  10.669   3.975   2.351 -0.3430  0.1138 -0.0734
18603W        W37457   2.013   8.953   0.458 -0.1303 -0.1826  0.1899
18604W        W37458  19.087   4.945  10.397 -0.0223  0.2089  0.0539
18605W        W37459   2.118  14.727  10.269  0.0199 -0.1154 -0.0472
18606W        W37460  15.126   4.393  12.800  0.1309  0.1501  0.1432
18607W        W37461   5.459  10.411   1.950 -0.0609  0.0360 -0.0045
18608W        W37462   4.199   3.054   0.611  0.0733 -0.3565  0.0491
18609W        W37463   9.984   5.063  12.663  0.3193  0.2126 -0.2151
18610W        W37464   7.489   2.956  13.755  0.2113 -0.0313 -0.0811
18611W        W37465  14.431  16.576   0.138  0.0365 -0.1692  0.2892
18612W        W37466  11.775   2.689  12.678  0.4887  0.1080  0.0795
18613W        W37467   0.423   5.726  11.044  0.0508  0.1615  0.0981
18614W        W37468   5.757  13.734   0.216 -0.2077 -0.0862  0.2062
18615W        W37469   3.122  18.271  11.076 -0.1000 -0.3426  0.1421
18616W        W37470   5.558   1.387   1.706  0.0389  0.2940  0.0675
18617W        W37471   3.383  12.012  12.414  0.0742 -0.1052 -0.0235
18618W        W37472   4.530   9.487   4.457 -0.0367  0.1832  0.1057
18619W        W37473   3.892  10.313  13.812  0.2327  0.1121  0.3510
18620W        W37474  12.543  16.505   1.644 -0.1635 -0.1497  0.0711
18621W        W37475   8.653  11.610  10.960 -0.1164 -0.0365 -0.2873
18622W        W37476  13.510   9.694  12.127 -0.1041  0.0457  0.0973
18623W        W37477  16.674   5.972  12.456 -0.0823 -0.1864  0.1072
18624W        W37478  16.181  17.691   2.485  0.1005  0.1121  0.2094
18625W        W37479   0.344   7.183   1.691  0.0191  0.2932 -0.0155
18626W        W37480  18.199   1.951   3.487 -0.1017 -0.0199 -0.3559
18627W        W37481   5.490   6.964   0.098  0.1421  0.1023  0.0462
18628W        W37482  16.889   4.240  13.569  0.2128  0.2937 -0.1393
18629W        W37483  18.576   5.931  14.275 -0.2537  0.0184 -0.0405
18630W        W37484   6.657  12.511  10.535  0.1254 -0.1509 -0.0115
18631W        W37485   4.802   9.908   3.505  0.1126  0.1129  0.0101
18632W        W37486   7.928  17.348  12.850  0.1477 -0.2001 -0.0120
18633W        W37487  15.968  16.660   2.342  0.2530 -0.2379 -0.0740
18634W        W37488  14.728   3.818  11.975  0.3143  0.0795 -0.0528
18635W        W37489  14.981   7.204   9.276  0.1699 -0.1726 -0.2320
18636W        W37490  12.576  16.170  11.289 -0.1799  0.3067 -0.3147
18637W        W37491   2.234  14.547   0.093 -0.3018  0.1583 -0.2203
18638W        W37492   8.975  18.269   1.537 -0.3355 -0.3382  0.0958
18639W        W37493   0.365   4.153   4.441 -0.1620  0.3586  0.1038
18640W        W37494   2.969  16.424  11.503  0.0911 -0.2331  0.3942
18641W        W37495  15.439   9.057   3.081  0.2314 -0.2241  0.0786
18642W        W37496   4.747  11.873   0.924 -0.2852 -0.0975 -0.1535
18643W        W37497  11.520   0.353   2.681  0.2698 -0.3571  0.0278
18644W        W37498  14.227  16.917   1.330 -0.3975 -0.1820 -0.0045
18645W        W37499  10.338  18.958   2.722  0.3148 -0.0712 -0.0942
18646W        W37500  10.980   6.465   0.630  0.0615 -0.3177 -0.0226
18647W        W37501  14.978  10.136  13.789 -0.3259  0.0978 -0.2228
18648W        W37502   1.376   4.707   1.812 -0.1786  0.0547 -0.0526
18649W        W37503  16.287   8.891  13.453 -0.1879  0.5015 -0.3538
18650W        W37504  16.450  19.133  13.514 -0.0766 -0.0470 -0.1016
18651W        W37505   7.331   5.322   3.477  0.2029  0.3636 -0.2174
18652W        W37506   2.782   7.139  12.784 -0.0357 -0.0479  0.2644
18653W        W37507   2.115  16.457  14.545 -0.0423 -0.0472  0.0357
18654W        W37508  15.712   8.198   9.854 -0.1057 -0.0321 -0.0250
18655W        W37509   0.787  12.143  11.513 -0.1354 -0.1602 -0.1263
18656W        W37510   8.161   3.155  10.699 -0.4456 -0.1686  0.0049
18657W        W37511   3.378  18.692   3.169  0.2633 -0.0471 -0.2614
18658W        W37512   2.694  11.250   4.438  0.2474  0.1982  0.0556
18659W        W37513  17.984   8.368   2.952  0.1393  0.0731  0.0646
18660W        W37514   2.906  12.870  13.932 -0.1555 -0.0539 -0.0842
18661W        W37515   5.605  18.913  14.659  0.0636 -0.3929 -0.1964
18662W        W37516  17.452  10.152  13.215 -0.0466  0.3736 -0.2779
18663W        W37517  10.324   6.842   1.023  0.0831 -0.0410  0.3931
18664W        W37518   2.293  10.610   1.349  0.0622  0.2521  0.1824
18665W        W37519  11.738   2.331  10.963  0.5151 -0.1050  0.0543
18666W        W37520  16.974   3.959  10.240  0.0235  0.0527  0.3868
18667W        W37521  17.003  18.304  13.477 -0.0362  0.0908 -0.1627
18668W        W37522   8.346  18.461   0.831 -0.4206  0.2790  0.1207
18669W        W37523   5.987  16.981   3.015  0.1247  0.0370  0.0827
18670W        W37524   1.952  15.649   3.347  0.0348 -0.0171 -0.1213
18671W        W37525   1.463   3.881   2.165  0.1972  0.2681 -0.2229
18672W        W37526   8.743   4.896   2.525 -0.0800  0.0166 -0.0657
18673W        W37527   8.962   8.197   2.922 -0.0318  0.3790 -0.1735
18674W        W37528  14.972   0.488   1.987 -0.3562 -0.0316 -0.3688
18675W        W37529   8.907  15.625  12.521 -0.1833 -0.0107 -0.0181
18676W        W37530   4.184  10.045   0.796  0.2331  0.1196 -0.0732
18677W        W37531   5.975  10.479  10.818 -0.0581 -0.3426  0.0385
18678W        W37532  12.589  15.524   3.126  0.0559 -0.1285  0.1364
18679W        W37533   6.646   9.124   3.815 -0.0738  0.1287 -0.1292
18680W        W37534  17.530   7.032  11.867  0.0505 -0.1097 -0.2226
18681W        W37535   5.218  13.171  12.781  0.2222 -0.1013  0.0998
18682W        W37536  13.324   1.111  13.428 -0.2264  0.3016 -0.4510
18683W        W37537   2.940   0.105   1.672 -0.1509 -0.1711  0.0183
18684W        W37538   6.229   1.057   0.462 -0.0082  0.1274  0.0454
18685W        W37539   8.430   6.533  10.518 -0.0952 -0.3157  0.1769
18686W        W37540   6.555  12.734  10.961 -0.0860  0.1378 -0.1103
18687W        W37541  15.131  15.458   1.766  0.2018 -0.0390  0.1863
18688W        W37542  13.105   3.175   1.683 -0.1403 -0.0172  0.0155
18689W        W37543   3.662  15.916   1.771 -0.0972  0.0042  0.2119
18690W        W37544   2.722   0.708  12.465  0.1796  0.4499 -0.3509
18691W        W37545   4.468   6.733  14.058 -0.1549 -0.3403 -0.1979
18692W        W37546   6.108  10.871  13.977  0.0928  0.1334  0.0772
18693W        W37547   9.971  14.679   0.987 -0.0483  0.0433  0.3813
18694W        W37548   9.073   8.763   0.515 -0.1527  0.1580 -0.2404
18695W        W37549  12.310   4.606   3.081 -0.0789 -0.0900  0.1168
18696W        W37550  16.176   7.140   1.482 -0.0412 -0.2042 -0.0814
18697W        W37551  11.744   1.972   3.247  0.0856 -0.0298 -0.1121
18698W        W37552  15.046   1.697   1.265 -0.1656  0.1902  0.4896
18699W        W37553  14.444  18.153   1.170  0.1967 -0.0515 -0.0161
18700W        W37554  12.342  18.722  14.067  0.1270  0.1162  0.1348
18701W        W37555   4.783   5.096  12.590  0.1201 -0.0148 -0.1067
18702W        W37556   0.123  14.234  12.586  0.1385 -0.1168 -0.1088
18703W        W37557   5.560   1.214  12.557 -0.3928 -0.0634 -0.0696
18704W        W37558  11.165  12.413   2.380  0.1217 -0.1952 -0.1785
18705W        W37559   3.711  13.076   1.754 -0.4113  0.1086  0.0221
18706W        W37560   1.713   0.907   3.933  0.0256 -0.0168  0.0416
18707W        W37561  15.355  16.618  12.254  0.1308  0.0029  0.1443
18708W        W37562  10.122  18.757   3.179  0.0440  0.2164  0.0582
18709W        W37563   8.782   9.525  11.183  0.2511 -0.2526  0.2559
18710W        W37564  15.799   7.472   2.946  0.0426  0.0101 -0.0507
18711W        W37565   8.881  15.055  14.229  0.1383  0.3539  0.0890
18712W        W37566   7.392  15.595   3.399  0.0520 -0.1508  0.0118
18713W        W37567  10.861  11.423   1.338  0.2879 -0.1363 -0.0764
18714W        W37568  10.267   5.550   0.827  0.0128  0.2254 -0.0038
18715W        W37569  16.314  13.585   1.093 -0.0174 -0.2550  0.0071
18716W        W37570   9.074  15.498  11.275 -0.0424 -0.1617  0.3717
18717W        W37571   3.251  12.558  14.167  0.0994 -0.1051 -0.1063
18718W        W37572   7.056   0.141  11.194 -0.3272  0.1036  0.2117
18719W        W37573  15.559  11.605   1.123 -0.0441 -0.1907  0.3699
18720W        W37574  10.775  11.956   1.999 -0.0882 -0.0486 -0.0592
18721W        W37575  11.976   7.877  10.714 -0.0008 -0.2918  0.1561
18722W        W37576   6.047   8.497  13.141 -0.0572 -0.1462  0.3476
18723W        W37577   1.550  18.904  13.826 -0.1449 -0.1601 -0.1158
18724W        W37578  18.502   3.687   2.238 -0.0698  0.0305 -0.1978
18725W        W37579   8.670  18.633   1.711  0.1968 -0.0040 -0.1666
18726W        W37580  13.333  14.296   1.637 -0.0032  0.0060 -0.5446
18727W        W37581  18.344   8.693  11.328  0.1327 -0.1487 -0.1383
18728W        W37582  15.699  10.564   1.682  0.0544 -0.2657  0.1652
18729W        W37583   4.555  11.485   3.282 -0.0695 -0.1852 -0.1253
18730W        W37584   9.776   3.297  12.824 -0.0168  0.0167 -0.1626
18731W        W37585   7.199   9.815   2.445 -0.0752  0.1146  0.2159
18732W        W37586  13.540  10.174   3.402 -0.0886 -0.0950  0.5468
18733W        W37587   4.973   6.080   0.352 -0.1657  0.1561  0.1845
18734W        W37588   7.211  13.219   1.358  0.0295 -0.1133  0.1052
18735W        W37589  11.194   3.044  11.441  0.2512  0.0622  0.1120
18736W        W37590  13.168  16.148   0.036 -0.1742  0.0537  0.2419
18737W        W37591  14.381   9.372   2.530  0.2273 -0.0075  0.0237
18738W        W37592   8.435  13.208   2.700 -0.1991  0.2251 -0.1781
18739W        W37593  18.334   2.968  11.990  0.1033 -0.1022  0.0635
18740W        W37594  14.832  14.681  10.715  0.3811  0.0438 -0.3499
18741W        W37595  17.414  11.725   4.103 -0.0414 -0.0845  0.0219
18742W        W37596   7.376  17.500  12.960 -0.0366  0.2748  0.0980
18743W        W37597   2.587   8.190  10.667 -0.1389 -0.1434 -0.1147
18744W        W37598  15.224  11.726   2.092  0.0863 -0.1462 -0.1095
18745W        W37599   3.139   1.597   3.631  0.0591 -0.0601 -0.0048
18746W        W37600  17.755   0.937   2.009 -0.1527  0.1559 -0.1421
18747W        W37601   9.653  15.703   3.082 -0.0362  0.0527 -0.2086
18748W        W37602  18.506  18.062   4.119 -0.1429 -0.0597 -0.0271
18749W        W37603  10.142   0.737  14.256 -0.1563 -0.0469 -0.1650
18750W        W37604  17.592  10.224   1.525  0.0501 -0.0539  0.0696
18751W        W37605  10.278  14.984   3.064  0.0036 -0.0007 -0.1953
18752W        W37606   5.334  16.177  13.831  0.2946  0.2147 -0.1703
18753W        W37607  15.042  11.665  11.640 -0.0390 -0.1029  0.0410
18754W        W37608   2.140  16.668  12.610  0.2795  0.1161  0.1003
18755W        W37609  13.250  13.906  12.241 -0.0436  0.0751  0.1076
18756W        W37610   7.165   0.311   3.482 -0.0945  0.0942  0.0917
18757W        W37611   7.635   7.939  10.802  0.0378  0.1341 -0.2946
18758W        W37612   9.370  11.696   1.250  0.0691  0.2441  0.2463
18759W        W37613   8.807  16.608  14.120 -0.1039 -0.0503 -0.1519
18760W        W37614   6.100  18.557   0.537 -0.2679  0.3270 -0.0830
18761W        W37615  11.096   4.531   1.173 -0.0251  0.2620  0.1995
18762W        W37616   6.771   7.357  13.884  0.1235  0.1771 -0.0268
18763W        W37617   9.485  12.997  14.412 -0.3325  0.1320  0.0222
18764W        W37618  10.497  16.034   0.537  0.1312 -0.0846 -0.0859
18765W        W37619  17.528  12.777   3.828 -0.4669 -0.0870 -0.0479
18766W        W37620  12.507   7.709  13.573 -0.1072  0.0945 -0.0958
18767W        W37621  17.263  11.935  13.667  0.0592 -0.1068 -0.2688
18768W        W37622   1.111   4.489   3.273  0.1484 -0.5370  0.4296
18769W        W37623  12.585  11.924  13.561  0.0514 -0.0678  0.6082
18770W        W37624   0.783   4.925   0.487 -0.0394  0.2413 -0.1824
18771W        W37625   4.473   7.591   1.468  0.2160  0.0086 -0.0203
18772W        W37626   7.594  13.824  11.036  0.0557 -0.4375  0.1056
18773W        W37627  15.180  10.324  11.356  0.4016  0.1127  0.0977
18774W        W37628  12.415  10.571  13.157 -0.0835 -0.0587 -0.0289
18775W        W37629  17.664  12.536  11.694  0.3211  0.0346  0.0881
18776W        W37630   3.370  17.616  13.671  0.1450 -0.1170  0.1221
18777W        W37631   8.797   2.690  12.906  0.2274 -0.4231  0.2404
18778W        W37632  13.165   8.756   1.884 -0.1855 -0.3846  0.5690
18779W        W37633  19.168  13.008  13.827  0.5391  0.1718 -0.0502
18780W        W37634   9.399   6.923  12.017  0.1692 -0.3643 -0.2428
18781W        W37635   9.301  14.554   4.140 -0.0283 -0.2862  0.2603
18782W        W37636   3.615  12.334  10.717 -0.2231  0.0893 -0.1064
18783W        W37637  11.279   1.431   1.455 -0.0634  0.0157  0.1005
18784W        W37638   9.736  17.260  12.666 -0.0507  0.1255  0.4035
18785W        W37639  10.336   6.472   2.928 -0.1498 -0.0509  0.0098
18786W        W37640   1.890   9.780   3.311  0.1486  0.2766  0.1627
18787W        W37641  13.599  16.474  11.155  0.0913  0.0528  0.2255
18788W        W37642   8.754  11.195  11.617  0.2354 -0.0978 -0.1631
18789W        W37643  11.153  10.375  11.810 -0.0775  0.2731  0.2898
18790W        W37644   9.577  11.296  11.431  0.1585  0.0486 -0.3643
18791W        W37645   9.755   7.449   0.392 -0.0143  0.2136  0.0991
18792W        W37646  11.241   7.372  10.850  0.1381 -0.0187 -0.2691
18793W        W37647  17.142   0.024  13.563  0.1447 -0.0604 -0.0386
18794W        W37648   8.508   1.543  13.444  0.1836  0.1655  0.1533
18795W        W37649   4.581  14.879  10.927  0.0676  0.4228 -0.0789
18796W        W37650   3.188   2.380  14.141 -0.0957 -0.3023 -0.0125
18797W        W37651   0.731   0.693  12.001  0.1486 -0.3174  0.0148
18798W        W37652   6.920  17.395  13.922 -0.0619  0.1382  0.1147
18799W        W37653   1.180  17.314   1.497 -0.3038 -0.0682 -0.0587
18800W        W37654   1.265  17.670  11.792  0.1196  0.1641  0.0475
18801W        W37655  10.420   5.045   0.869  0.2952 -0.4570 -0.0190
18802W        W37656  17.728   6.473   9.381  0.0728 -0.1254  0.2656
18803W        W37657  14.991   8.617  14.710 -0.0086 -0.1726 -0.0047
18804W        W37658   9.590  12.442  12.601 -0.0491 -0.2115  0.1651
18805W        W37659   5.157   7.574   1.841 -0.3412  0.1815  0.3021
18806W        W37660   8.981  14.584  14.251 -0.1633  0.1774  0.0900
18807W        W37661  19.096   4.695   1.877 -0.1074  0.1985 -0.1794
18808W        W37662  12.287  19.113  10.914  0.3009 -0.3848  0.1821
18809W        W37663   6.665   0.139   3.942  0.2764  0.3114  0.0126
18810W        W37664  12.031  13.841  11.454 -0.1534 -0.0930 -0.0763
18811W        W37665   7.462  15.119  13.388 -0.1137  0.0845 -0.1917
18812W        W37666   5.330   7.416   2.886 -0.3316 -0.2305 -0.2469
18813W        W37667   9.133  17.046   0.611 -0.0990 -0.0494  0.0586
18814W        W37668  14.326   7.419  13.427  0.3951 -0.0956  0.1538
18815W        W37669   4.256  18.736   2.035  0.0706  0.0024  0.0329
18816W        W37670  12.138   1.775   2.144  0.0937  0.1136  0.0191
18817W        W37671  12.794   9.598   2.890 -0.2028 -0.0585 -0.2072
18818W        W37672   7.966  15.078   0.443  0.0663  0.0615 -0.4803
18819W        W37673   4.238  16.926  13.168 -0.0843  0.0626  0.1552
18820W        W37674   0.838  10.028   1.781 -0.0625  0.0793  0.0688
18821W        W37675  15.262  16.045  11.370 -0.1559  0.2029 -0.0220
18822W        W37676   2.782   8.280  12.898  0.0307 -0.0324 -0.2127
18823W        W37677   9.169   6.778   3.544  0.2794  0.0277  0.0141
18824W        W37678   0.333   6.050  13.288  0.3094  0.0622 -0.1409
18825W        W37679  12.556   8.757   0.266 -0.0751 -0.0351 -0.1134
18826W        W37680   2.453  15.651   4.976 -0.0848 -0.3123 -0.0242
18827W        W37681   6.595  18.068  11.442  0.0695 -0.1974 -0.0561
18828W        W37682   9.591  17.788   0.752  0.2411 -0.0366  0.1203
18829W        W37683  13.437   2.180   0.759 -0.0465  0.1785 -0.0414
18830W        W37684   3.159   3.162  10.772  0.2114 -0.0318 -0.0905
18831W        W37685  16.387  10.991  14.597  0.1602 -0.0281 -0.1144
18832W        W37686   2.472   1.684  12.410  0.2498 -0.0793 -0.0965
18833W        W37687   6.994   0.404   5.283 -0.2246 -0.2035 -0.0487
18834W        W37688   0.480   1.244   3.787 -0.0366 -0.1104  0.1638
18835W        W37689  12.504   6.788   0.750 -0.1027 -0.0815 -0.1580
18836W        W37690   5.530   5.406   3.677  0.1683  0.0439  0.2514
18837W        W37691  15.259  12.698   1.200 -0.3745 -0.1711 -0.2117
18838W        W37692   8.345  11.498  11.442  0.0522 -0.0831  0.3107
18839W        W37693   2.567  16.912  12.020  0.0842 -0.1342  0.1147
18840W        W37694   1.097   0.944   2.584 -0.1058  0.1295 -0.3042
18841W        W37695   6.328   1.464   0.165 -0.0445  0.3987 -0.0676
18842W        W37696  11.519  17.373  10.961 -0.2962 -0.2546  0.0737
18843W        W37697   0.982  18.345  13.726  0.1583 -0.0096  0.0856
18844W        W37698  10.790  17.713   4.521  0.2328 -0.1236 -0.2163
18845W        W37699   8.901   0.202   1.200 -0.1976  0.0869 -0.1375
18846W        W37700  16.963   1.015  11.300 -0.2139  0.2556  0.2339
18847W        W37701  15.988   1.306  12.496 -0.0627 -0.4585  0.3139
18848W        W37702  11.214   0.545   0.455  0.0084 -0.0341 -0.0160
18849W        W37703   1.875   0.045  14.032  0.0453 -0.1221  0.2476
18850W        W37704  16.953  12.745   2.115 -0.0785 -0.0031 -0.1544
18851W        W37705   8.641   3.864  11.283  0.1390 -0.1348 -0.1128
18852W        W37706   1.282   6.985   5.305 -0.1798 -0.3753  0.0541
18853W        W37707   1.339  15.678   0.654  0.2140  0.2149 -0.0973
18854W        W37708   2.835   8.291   3.047 -0.0756 -0.2667  0.1215
18855W        W37709   3.473  11.185   2.708 -0.0624 -0.0366  0.0374
18856W        W37710  19.153  14.430  11.045  0.1701 -0.1304  0.3229
18857W        W37711   6.669  13.157   3.821 -0.3888  0.0338 -0.0700
18858W        W37712   1.915   0.582  14.092  0.1801 -0.0083  0.0583
18859W        W37713   4.267  13.305  10.345  0.0182 -0.2747  0.1021
18860W        W37714   5.245  17.732  11.074  0.2210 -0.2088 -0.3055
18861W        W37715  16.924  17.967   2.841  0.1355 -0.1372  0.1789
18862W        W37716  14.930   4.022   1.692  0.2355  0.0184  0.2528
18863W        W37717   0.287   6.519  12.770 -0.1102  0.0056 -0.1443
18864W        W37718  11.080  16.714  13.152  0.3352  0.2673  0.0609
18865W        W37719  11.227   6.011  11.882  0.2142 -0.1911  0.0199
18866W        W37720  15.464   6.626  10.863 -0.0062  0.1528 -0.0996
18867W        W37721   8.204   4.888   1.720 -0.0265 -0.0124 -0.2413
18868W        W37722   4.524  17.488   2.041  0.3653 -0.1677 -0.3315
18869W        W37723   7.991   6.397   0.992  0.0855 -0.1449  0.4401
18870W        W37724   1.956   2.609   1.903  0.2155  0.2350 -0.0490
18871W        W37725   1.598  16.724   1.319  0.3892  0.1049 -0.1276
18872W        W37726  13.023   4.271   1.163  0.0620  0.1059  0.1333
18873W        W37727  19.120  10.676   3.299 -0.1419 -0.0102 -0.1215
18874W        W37728  17.331   2.615  11.233  0.3228  0.2907 -0.0488
18875W        W37729   2.883  16.223  10.075  0.1891 -0.0768 -0.1054
18876W        W37730  16.126  17.457  13.004  0.1087 -0.1836  0.0096
18877W        W37731   4.804  16.723   1.608  0.0485 -0.0333  0.0095
18878W        W37732  13.966   0.031  12.871 -0.0229 -0.1706  0.0039
18879W        W37733  10.744   7.077  10.408 -0.2044 -0.0526  0.1774
18880W        W37734   7.562  18.099   1.798 -0.0700  0.3227  0.1684
18881W        W37735  12.919   1.312  11.526  0.1798 -0.0305 -0.0798
18882W        W37736  18.805   3.827   3.597  0.0018 -0.0165 -0.0846
18883W        W37737   1.540   6.591   2.342 -0.1445 -0.0159 -0.0022
18884W        W37738   0.391  12.876   3.322 -0.0258  0.2372  0.2101
18885W        W37739  19.179   6.527   0.641  0.2303  0.0478  0.1106
18886W        W37740   4.767  11.559  14.695 -0.0228  0.2573 -0.0264
18887W        W37741  18.491  19.077   2.071  0.0387 -0.1929 -0.1790
18888W        W37742  11.571   3.286   3.368  0.0482 -0.1832 -0.1928
18889W        W37743   5.096  10.056   1.119 -0.2608  0.3658 -0.1273
18890W        W37744   9.000   8.620   9.996 -0.4019  0.0495 -0.2304
18891W        W37745   2.058   6.612   3.445  0.0794 -0.1743 -0.1005
18892W        W37746   2.713   7.471   3.636  0.1880 -0.0090  0.3820
18893W        W37747  16.668  14.427   0.202  0.0388  0.2189  0.1882
18894W        W37748  14.933   0.476   2.548 -0.1154  0.0101  0.3401
18895W        W37749   0.727   9.485   1.655  0.0303 -0.2163  0.4308
18896W        W37750   3.002   2.273  10.641 -0.1122 -0.1048 -0.1567
18897W        W37751  14.178  16.976   0.372 -0.0032  0.3295 -0.4732
18898W        W37752   5.961   8.524   2.113 -0.0717 -0.1982 -0.1408
18899W        W37753   1.246  11.450  12.881 -0.0126 -0.0299  0.0099
18900W        W37754  18.738  18.994   3.234 -0.1932  0.3514  0.4122
18901W        W37755   1.352  13.147   0.337 -0.0119  0.0880  0.0873
18902W        W37756  14.401  12.915  10.180  0.2335  0.1889 -0.1908
18903W        W37757  14.738   9.096   3.728  0.1749 -0.2666 -0.2106
18904W        W37758  15.838   7.677  14.196 -0.0278  0.2175  0.0643
18905W        W37759  11.189  12.185  10.189 -0.0755 -0.1067 -0.1811
18906W        W37760   3.968  15.370   0.575  0.2240 -0.0729 -0.1031
18907W        W37761   5.655  15.533   5.286  0.1948 -0.2953 -0.5129
18908W        W37762  10.445  13.178  13.159 -0.1571 -0.0194 -0.1203
18909W        W37763   0.159   9.772   4.043  0.0077 -0.0212 -0.0789
18910W        W37764  11.738   1.414   1.703  0.1033  0.0747 -0.1429
18911W        W37765   1.748  16.052   2.371 -0.1121 -0.1284 -0.4502
18912W        W37766   2.658  13.309   0.522 -0.2644  0.0847 -0.2641
18913W        W37767  16.984   6.130   4.165 -0.0584  0.0782 -0.1055
18914W        W37768  15.059   7.715  14.192  0.1051  0.0321 -0.0536
18915W        W37769   6.880  16.154   2.036 -0.0732  0.2756 -0.1914
18916W        W37770  10.187  10.678   1.357  0.1325  0.0910  0.3156
18917W        W37771   7.721   2.543   3.865  0.4527 -0.0777  0.0938
18918W        W37772   5.189   1.400  14.013 -0.3032 -0.3453  0.1607
18919W        W37773   3.577   3.151   1.136 -0.2559 -0.1477  0.0812
18920W        W37774  15.846  10.821  10.658  0.3542 -0.0171  0.3107
18921W        W37775   9.398  17.999   2.650 -0.0495 -0.0775  0.4661
18922W        W37776  18.234   2.922   2.094  0.1721 -0.1253 -0.1450
18923W        W37777  12.411  18.887   3.188  0.1044 -0.0712  0.0087
18924W        W37778  16.531  15.179   3.720  0.2237  0.1419 -0.0476
18925W        W37779   2.665   7.609   2.439  0.2259 -0.0718 -0.1096
18926W        W37780   0.279   2.621  14.175 -0.0652 -0.2334 -0.0200
18927W        W37781   7.533  17.276  11.559  0.0400  0.4775  0.3196
18928W        W37782   4.320   2.220  10.989  0.0991 -0.3156  0.3150
18929W        W37783   3.340   8.784  14.293 -0.1207  0.0032 -0.0973
18930W        W37784  12.148   3.889  11.635  0.1274 -0.2783  0.0347
18931W        W37785   3.815  17.133   0.249  0.1799 -0.2612 -0.0126
18932W        W37786  16.571  18.415  13.205  0.1084 -0.1325 -0.0364
18933W        W37787  12.195   6.541   3.330  0.1998  0.2515 -0.2293
18934W        W37788  14.309  11.675  13.441  0.0616 -0.0343 -0.0764
18935W        W37789  13.496   2.362  11.889  0.2568  0.1595  0.0745
18936W        W37790  15.165  15.522   9.658 -0.0845 -0.0676  0.0066
18937W        W37791  16.163   0.637  10.990  0.2298  0.2240  0.5064
18938W        W37792   7.537   0.138  12.490  0.1930 -0.0106 -0.0194
18939W        W37793  12.856  13.694   1.819  0.1141 -0.0638  0.0504
18940W        W37794  15.790   1.033  12.135  0.1124  0.1287  0.1942
18941W        W37795   0.497   7.959   1.476 -0.1648 -0.2063  0.0624
18942W        W37796   1.687  12.380   5.328 -0.0454  0.1692  0.3039
18943W        W37797   0.132  12.150  14.082  0.1668 -0.0510  0.0034
18944W        W37798  10.789   5.008  14.566 -0.0405 -0.1710  0.1968
18945W        W37799  10.036   3.840   0.811  0.0445  0.1509  0.1207
18946W        W37800  11.887  17.477   4.380  0.2391 -0.0127  0.1280
18947W        W37801  16.634  14.953   2.360 -0.0355  0.2970 -0.0853
18948W        W37802   6.382  18.958  11.532  0.1334 -0.1283 -0.1575
18949W        W37803   9.803   1.244   0.335 -0.2163 -0.1438 -0.2142
18950W        W37804   9.059   0.002  12.757 -0.1332 -0.0243  0.0417
18951W        W37805   1.430  17.946  13.090  0.2051  0.1951  0.1122
18952W        W37806  11.199   6.209  13.252 -0.0376  0.2645  0.1613
18953W        W37807   9.872   6.641  14.052  0.1350  0.2537  0.1254
18954W        W37808  13.079   4.756   4.181 -0.3459 -0.1544 -0.2272
18955W        W37809  13.872   1.566  12.406  0.0064  0.2896  0.3226
18956W        W37810  11.290   1.887  12.990  0.1139 -0.1224 -0.0456
18957W        W37811   7.104  18.435  12.236  0.6980  0.0277 -0.0362
18958W        W37812   4.837   4.443  13.869 -0.0069 -0.1932  0.2514
18959W        W37813  18.446   5.842  11.504 -0.2126  0.2908 -0.0935
18960W        W37814  18.978   9.114  13.696  0.1292 -0.1675  0.0338
18961W        W37815   1.540   4.221  12.641 -0.3545  0.4096  0.1400
18962W        W37816   3.661   3.012   0.685 -0.1003 -0.0389  0.0995
18963W        W37817   3.794   2.811   2.034  0.1190 -0.0485 -0.2380
18964W        W37818  18.406   6.806   0.302 -0.0618  0.1576  0.1810
18965W        W37819  14.924   5.936  11.915  0.2542  0.4047  0.0669
18966W        W37820   4.252   2.501   4.887  0.0060  0.0317  0.0107
18967W        W37821   3.042   3.440   0.125  0.0598  0.0389  0.0779
18968W        W37822   5.617   2.714   0.346 -0.0793  0.1039 -0.0546
18969W        W37823   3.550  12.634   1.533  0.1804 -0.1346  0.0159
18970W        W37824   2.079   5.915  10.264 -0.0173  0.3727  0.1104
18971W        W37825  12.476  16.424  10.906 -0.0660  0.0871 -0.0057
18972W        W37826   7.422  10.651   0.749 -0.1112  0.1001 -0.0688
18973W        W37827  10.117   0.438   3.466  0.0950  0.1218  0.0452
18974W        W37828   2.347  18.220   4.125 -0.3030  0.2961  0.2727
18975W        W37829   2.447  12.942  11.820 -0.2318  0.2576  0.0080
18976W        W37830   6.487  16.271  10.648 -0.1258 -0.0787  0.0215
18977W        W37831  12.176  10.786   2.158 -0.3056 -0.0289  0.0035
18978W        W37832   9.800  13.835  13.007 -0.0114  0.2956 -0.1252
18979W        W37833   2.542   4.117  10.623 -0.0437 -0.0248 -0.0236
18980W        W37834   9.832  14.060   1.742 -0.0500  0.0308  0.1150
18981W        W37835  17.836  17.341  11.937 -0.2868  0.0077  0.1369
18982W        W37836   0.257   3.907  12.614 -0.0674  0.0147  0.2896
18983W        W37837  15.293   0.426   3.917  0.1798  0.3682  0.2561
18984W        W37838   8.496   6.537  13.119  0.1433  0.0891 -0.2903
18985W        W37839   2.423   1.186   3.014  0.1449 -0.1548 -0.2228
18986W        W37840  11.297  18.622   0.690  0.1244  0.1618  0.0996
18987W        W37841   5.572   0.374   0.682  0.0268  0.0648 -0.0379
18988W        W37842  11.985  16.450   4.130 -0.1504 -0.0920  0.0214
18989W        W37843  16.652  18.773  12.218 -0.1699  0.2983  0.1464
18990W        W37844  10.334   8.410  12.980 -0.0568 -0.2612  0.0501
18991W        W37845  17.746   7.965  13.389  0.0436 -0.3668 -0.0534
18992W        W37846   5.114   9.995  10.486 -0.3047  0.1799 -0.0630
18993W        W37847  14.560  10.195   1.327 -0.0853 -0.1234  0.1200
18994W        W37848   2.877   3.174  14.392  0.0497 -0.0426 -0.3542
18995W        W37849  11.970  14.193  13.946 -0.1262  0.0184 -0.0807
18996W        W37850  11.773   6.369   1.779 -0.2209  0.3803  0.0301
18997W        W37851   8.036   5.482   4.379 -0.0565  0.0450 -0.0066
18998W        W37852  12.287  11.756  12.519  0.2658  0.0779  0.2270
18999W        W37853   3.342  16.290   1.597  0.0412 -0.1779  0.2655
19000W        W37854  16.473   4.443  10.877  0.1440 -0.0510 -0.0324
19001W        W37855   1.663  18.897   2.503  0.2418  0.3088  0.3891
19002W        W37856   5.760  18.958   1.401 -0.1595  0.0014 -0.3777
19003W        W37857   9.835  13.812   2.205 -0.3221 -0.0145 -0.1779
19004W        W37858   3.916   0.800   2.958  0.0526 -0.2542 -0.1067
19005W        W37859   3.583  12.918   3.626  0.4275  0.1819  0.1348
19006W        W37860   5.642  16.252  13.422 -0.2698 -0.1207 -0.0622
19007W        W37861   1.348  11.076   4.271  0.0103  0.1656  0.2205
19008W        W37862  18.232  17.112  11.589  0.2535  0.3613  0.3110
19009W        W37863  18.939   6.427  13.604 -0.1208  0.0897 -0.1384
19010W        W37864  13.035   2.306  11.583  0.1489 -0.2338 -0.1845
19011W        W37865   1.538   5.419   3.021  0.0012 -0.1723 -0.0853
19012W        W37866  18.324   6.664  10.988 -0.0837 -0.0265 -0.0278
19013W        W37867   5.656  18.784  12.715  0.1615  0.3169  0.0929
19014W        W37868  10.728   5.357   3.736 -0.1410 -0.2854  0.1280
19015W        W37869   2.838  11.768  14.265 -0.1867  0.0874 -0.2661
19016W        W37870  12.640  13.625   4.324  0.0798  0.0644  0.1341
19017W        W37871   6.791   8.169   3.622 -0.2625 -0.1128 -0.1073
19018W        W37872  11.788  11.188   0.531 -0.0470 -0.2303 -0.1471
19019W        W37873   1.736   2.819   1.442 -0.3976 -0.0277  0.3320
19020W        W37874  11.256  13.199  11.045 -0.1449 -0.0402 -0.1937
19021W        W37875   1.021   1.910  10.253  0.0132  0.2177  0.1923
19022W        W37876   7.406   7.102   3.662 -0.2003  0.1967  0.2827
19023W        W37877  11.483   1.583   3.007  0.0844 -0.0620 -0.1243
19024W        W37878  13.488  14.574  12.973  0.1048 -0.0189  0.3546
19025W        W37879  13.562  17.141  11.439 -0.4006 -0.0806 -0.2583
19026W        W37880  13.250  11.519   2.430 -0.0479 -0.0294 -0.0378
19027W        W37881   7.937  13.594   3.138 -0.0570  0.1729  0.0024
19028W        W37882  16.628   4.930  14.039 -0.3240  0.2342  0.1533
19029W        W37883   5.257   6.538  10.786 -0.0839 -0.2652 -0.0399
19030W        W37884  10.582   0.443   2.247 -0.1097  0.0687  0.2551
19031W        W37885   8.061  10.093   0.414  0.0286  0.1718  0.1366
19032W        W37886  15.341   0.328  10.579 -0.0240 -0.0619  0.0487
19033W        W37887  18.892   8.572  12.687 -0.5975 -0.1145  0.2274
19034W        W37888  11.901   3.947   1.792 -0.1126 -0.0134  0.1449
19035W        W37889   9.710   1.213   1.943 -0.5235  0.2582  0.2923
19036W        W37890   8.376  11.040   4.105  0.0661 -0.0507 -0.0859
19037W        W37891   5.540   9.429  12.449 -0.2140 -0.1305  0.0356
19038W        W37892   6.430   2.378   0.277  0.0931  0.0053  0.3012
19039W        W37893  16.336  18.875  14.140  0.0985 -0.0296  0.1956
19040W        W37894  13.364  17.325   3.393  0.0976 -0.4435 -0.2816
19041W        W37895   6.941   1.857  14.484  0.1219 -0.1942  0.2552
19042W        W37896   5.752  17.772   1.758  0.2495 -0.0570 -0.2027
19043W        W37897  14.070  17.786   3.674 -0.1339 -0.0466  0.1400
19044W        W37898   0.494   3.166  11.942  0.2299 -0.0406  0.2658
19045W        W37899   3.983  18.210  10.842  0.0825  0.1348 -0.0048
19046W        W37900   0.319   9.789   2.432  0.2177 -0.2772 -0.0437
19047W        W37901   0.087   2.349   4.531  0.0959 -0.1474 -0.3161
19048W        W37902   8.817  11.601   3.375  0.0377 -0.0868 -0.0813
19049W        W37903   7.997  10.987  11.048  0.1567 -0.0703 -0.0690
19050W        W37904   8.051  13.625  11.204 -0.1067 -0.1780 -0.1083
19051W        W37905  10.854  14.504  11.391  0.1472 -0.0192 -0.1202
19052W        W37906  10.792  12.031  10.648  0.1096  0.1085 -0.0934
19053W        W37907   5.093   5.578  13.578 -0.3984 -0.0574 -0.0162
19054W        W37908  11.683  19.140   2.323  0.2432  0.3462 -0.0418
19055W        W37909   6.743  11.339  10.106 -0.2695  0.1006 -0.2447
19056W        W37910   2.060  13.111   4.073  0.0582 -0.0592 -0.2960
19057W        W37911   6.369   7.820  13.912 -0.1242 -0.0310  0.2667
19058W        W37912  15.127  16.140   2.369 -0.1668 -0.4075  0.0758
19059W        W37913  11.714   9.825  12.113 -0.0832 -0.1494 -0.1884
19060W        W37914   4.539   0.552  14.626 -0.0381 -0.1437 -0.0902
19061W        W37915  17.926   0.281  12.565 -0.0742  0.1519 -0.0748
19062W        W37916   7.967   8.712   0.736  0.0490 -0.1589  0.3059
19063W        W37917  15.842   8.389   0.984 -0.1076  0.0845  0.2735
19064W        W37918  13.889   7.387  11.722  0.1692  0.4116 -0.1131
19065W        W37919  15.725  10.431  11.199  0.1545  0.3733 -0.1799
19066W        W37920   7.550  16.557  10.867  0.0660  0.3213  0.2121
19067W        W37921  18.291   8.616   0.477  0.2297  0.0336 -0.0201
19068W        W37922   9.618  12.124  11.617 -0.0912 -0.0223  0.1091
19069W        W37923  18.417   3.206   2.516  0.0484  0.1250 -0.2204
19070W        W37924   0.240   9.989  11.293  0.1452  0.1175 -0.2779
19071W        W37925  19.066   6.322   9.585  0.0350 -0.0197 -0.2119
19072W        W37926  15.129   7.987  10.470  0.0034 -0.2528  0.1441
19073W        W37927   7.398  12.261   3.331 -0.0377  0.0371 -0.3562
19074W        W37928  14.244   6.543  13.786  0.2224  0.1141  0.0129
19075W        W37929  15.150  17.201  13.006 -0.0664 -0.2200  0.0408
19076W        W37930   2.393   9.327   1.960  0.0036 -0.1776 -0.0152
19077W        W37931  15.217   7.341  12.324 -0.2106 -0.1293  0.1489
19078W        W37932   5.000  15.134  14.225  0.0432 -0.0072 -0.2174
19079W        W37933  17.682   9.061  13.823 -0.0619 -0.1501 -0.1123
19080W        W37934   9.842   0.604   1.151 -0.0900 -0.1022 -0.1497
19081W        W37935  13.326   7.315  10.912  0.0410  0.1631  0.1867
19082W        W37936  16.647  18.537  12.721 -0.0828  0.1599 -0.2619
19083W        W37937   7.823  12.306   3.031  0.1130  0.0269  0.2446
19084W        W37938   1.949   4.825   2.268  0.0628  0.0095 -0.3606
19085W        W37939   0.766  17.060  11.335  0.2661  0.1016 -0.0190
19086W        W37940  15.200   9.503   3.159 -0.2411 -0.1235 -0.3193
19087W        W37941   6.586  12.905   0.732 -0.0136 -0.1193  0.2995
19088W        W37942  17.304  17.260  11.132  0.1768 -0.0280 -0.0381
19089W        W37943   2.248   2.190   1.702 -0.0782  0.2928  0.3506
19090W        W37944  14.662  18.549   2.253 -0.1975  0.2732  0.1090
19091W        W37945   0.221  13.510  13.525  0.2000 -0.0347 -0.2144
19092W        W37946  18.733   8.061  10.938 -0.0356  0.0332 -0.2138
19093W        W37947  18.288  13.804  12.161  0.1689 -0.1571  0.3752
19094W        W37948  17.608  14.836   0.744  0.2569  0.1506 -0.1539
19095W        W37949   6.601  18.927   2.783 -0.0320  0.2437 -0.0162
19096W        W37950   2.040  17.859   4.298 -0.0932  0.1201  0.0259
19097W        W37951  17.347   0.813  13.852  0.1154 -0.1685 -0.2417
19098W        W37952  12.115  13.270  12.127 -0.0425  0.2380  0.5481
19099W        W37953  13.410   9.494   1.933  0.0855  0.0454  0.0571
19100W        W37954  15.460   8.991  12.793 -0.4251  0.2482  0.0367
19101W        W37955   5.805  17.360  12.574  0.1461  0.0855 -0.1312
19102W        W37956   6.573  17.996  11.944 -0.0340  0.2910  0.1507
19103W        W37957  10.200   7.022   3.377  0.0803 -0.2657 -0.0421
19104W        W37958   5.838   4.844   1.909 -0.0157  0.0294  0.2376
19105W        W37959  15.253   9.406   2.639  0.2724 -0.0406 -0.0936
19106W        W37960   3.550   9.927  12.352  0.0125  0.1924 -0.1241
19107W        W37961   8.858   1.933  13.130 -0.2755 -0.1888 -0.2900
19108W        W37962   4.108  12.130  13.915  0.0176  0.2672  0.1701
19109W        W37963  14.114  17.515   1.648  0.0362  0.0324 -0.1884
19110W        W37964   1.035   3.825  11.516  0.0768  0.0400  0.2227
19111W        W37965  18.188   4.806  12.001  0.2910  0.1472 -0.1090
19112W        W37966   2.946   6.961  14.172  0.0020 -0.2520  0.1767
19113W        W37967  16.486   6.231  10.771  0.3684 -0.0246 -0.4417
19114W        W37968   9.598  19.194   1.289  0.0032  0.1700  0.1892
19115W        W37969  17.508   9.491   1.091 -0.0184 -0.1522  0.0620
19116W        W37970   7.846   0.946  14.390  0.3108  0.0774  0.0919
19117W        W37971   2.567   5.069   1.121  0.2049 -0.1419  0.1104
19118W        W37972  11.015   9.476   0.795  0.2453  0.1412  0.1571
19119W        W37973   9.749   8.133  14.618 -0.0880 -0.0639  0.1785
19120W        W37974   2.297   6.445   3.005 -0.2180  0.3640 -0.2259
19121W        W37975  12.676  15.363  12.495 -0.1733 -0.1796 -0.3312
19122W        W37976   0.732   4.106   3.650  0.2342  0.2028 -0.2586
19123W        W37977   8.976  12.970   0.491 -0.2386 -0.1526  0.1965
19124W        W37978   9.823   4.943   2.293 -0.0701  0.0603  0.3885
19125W        W37979   1.345  16.564   4.432 -0.0652  0.1102  0.0611
19126W        W37980  13.307   6.698  11.506  0.1539 -0.0888  0.0019
19127W        W37981  18.352   5.603   3.067 -0.1285  0.3310 -0.3836
19128W        W37982   5.800  12.921  11.436 -0.2391 -0.0370 -0.2950
19129W        W37983   2.777  12.770   2.625 -0.0230  0.3217 -0.1113
19130W        W37984  17.677   6.174   3.734  0.1012  0.1064  0.0291
19131W        W37985   6.933   4.225   1.238  0.0138 -0.0224 -0.1095
19132W        W37986  13.830  19.082   2.030 -0.1997 -0.2313  0.1016
19133W        W37987  14.527  16.623  13.606  0.4885 -0.0224  0.3982
19134W        W37988   6.502   4.998  10.836  0.0413 -0.0532  0.0600
19135W        W37989   0.480   8.657  14.238 -0.1413 -0.4337 -0.1144
19136W        W37990   1.279   4.184   1.586 -0.1382  0.0599  0.3025
19137W        W37991  12.482  12.204   2.846  0.1395  0.1664  0.2255
19138W        W37992   8.062   9.552   2.066  0.4189  0.3058  0.3408
19139W        W37993  12.346   1.483   4.061 -0.0102 -0.1227  0.1989
19140W        W37994  14.227   1.486  11.725 -0.0593 -0.0079 -0.1909
19141W        W37995   0.940   1.037  14.285  0.1045  0.1748 -0.1151
19142W        W37996  17.262   3.583  11.467  0.0738  0.1854 -0.1448
19143W        W37997   9.149  14.887   1.761  0.3603 -0.3035  0.0341
19144W        W37998   9.586  15.815   1.176 -0.1142 -0.0414  0.4304
19145W        W37999  18.308   6.187   1.606 -0.2471 -0.0089  0.0316
19146W        W38000  10.891  16.579   3.674 -0.6500  0.2325  0.1263
19147W        W38001  13.273   6.492   9.309  0.0644 -0.2760 -0.0807
19148W        W38002   5.499   1.831   1.323  0.0154 -0.1621 -0.3625
19149W        W38003  16.923  13.320  12.718 -0.4305 -0.0722 -0.0020
19150W        W38004   6.357  13.125  11.357  0.0067 -0.3788  0.1741
19151W        W38005  17.221   8.440   1.259  0.0121  0.1133 -0.0005
19152W        W38006  18.862  14.506   5.535 -0.1774 -0.2625 -0.4028
19153W        W38007   5.784   8.287  12.810 -0.0674 -0.1873 -0.2970
19154W        W38008  15.138  12.759   2.245  0.1407 -0.0456  0.2751
19155W        W38009  18.196   6.892   2.856  0.4924  0.2541 -0.0321
19156W        W38010   1.218  16.837  12.037 -0.1508 -0.1516  0.0400
19157W        W38011   9.663   6.068  10.717  0.2745  0.0508 -0.2620
19158W        W38012   3.917  10.885   2.543 -0.0113 -0.0884  0.1240
19159W        W38013  18.557  14.461   2.805  0.0094  0.0786  0.1465
19160W        W38014   5.581  14.794  14.017  0.1459  0.1340  0.4547
19161W        W38015   5.931  18.051  10.850 -0.2592  0.0348  0.0910
19162W        W38016   0.359  12.668   4.383  0.1903  0.2769 -0.3016
19163W        W38017  18.501  12.693   4.041 -0.1104  0.1671 -0.1300
19164W        W38018   6.967  16.007   1.577  0.2880  0.0369 -0.4236
19165W        W38019  11.878   0.644  11.389 -0.0340 -0.1642 -0.0152
19166W        W38020   0.835   5.636  14.652  0.0598 -0.1783  0.0025
19167W        W38021   3.256   3.390   3.062 -0.1766 -0.1333  0.1407
19168W        W38022  17.622   1.188  13.909 -0.0986 -0.3057 -0.2065
19169W        W38023   0.777  13.533  12.872 -0.0313  0.1133  0.1795
19170W        W38024   1.622  13.117  12.464 -0.1487 -0.1553  0.0451
19171W        W38025  10.702  14.194   2.934 -0.0225  0.3854  0.0045
19172W        W38026   5.500   1.625  11.464  0.0833 -0.2597  0.1762
19173W        W38027   1.075   9.088  12.922 -0.0922  0.0159 -0.1811
19174W        W38028  10.540  12.870   4.026 -0.0103  0.0782 -0.0150
19175W        W38029  17.510   5.779  11.252 -0.0523 -0.2786  0.0843
19176W        W38030   0.687  13.081  11.930 -0.0711  0.2834  0.3308
19177W        W38031   4.841   2.134   1.812 -0.1531 -0.2113  0.2457
19178W        W38032  11.480   8.890  12.288 -0.1489 -0.2338 -0.3910
19179W        W38033   4.716  14.332   1.840  0.2648 -0.2435  0.2313
19180W        W38034   0.555  10.427  14.590 -0.2676  0.1312  0.2208
19181W        W38035  18.512  19.018   4.130 -0.1601  0.2251  0.0450
19182W        W38036  13.047  10.851   3.041 -0.4472 -0.1003  0.1380
19183W        W38037   3.356   3.413  10.338 -0.0141  0.0731  0.0434
19184W        W38038   0.288   5.721   2.659  0.1623 -0.1181  0.1417
19185W        W38039  10.489  15.449   2.687  0.1136  0.1259 -0.3085
19186W        W38040  15.386  17.166  13.957  0.1569 -0.0541  0.1348
19187W        W38041  18.117  14.197   0.161 -0.0804 -0.1641  0.0330
19188W        W38042   4.111   2.823  11.976  0.2200  0.0396  0.3118
19189W        W38043   6.009  11.806   0.529  0.3640  0.0792 -0.0044
19190W        W38044  16.967   4.910   0.974  0.0402 -0.1766  0.0351
19191W        W38045  13.768  10.128   1.228  0.0384 -0.3334  0.0610
19192W        W38046   4.014   5.333   3.063 -0.1051  0.0249 -0.1631
19193W        W38047   3.663   7.854   0.620 -0.1976  0.4712 -0.0098
19194W        W38048  11.585  18.722   2.597 -0.1335  0.1449  0.1317
19195W        W38049   4.385   9.751  10.713 -0.0713  0.0731  0.0992
19196W        W38050  11.170   4.013  10.958 -0.1828 -0.3154 -0.0183
19197W        W38051  12.319   6.675  13.169  0.3158  0.1003  0.2591
19198W        W38052   1.328  10.259  11.143 -0.1045  0.0200  0.1746
19199W        W38053  12.743   3.942  10.297  0.0057 -0.1565 -0.0404
19200W        W38054  16.592  14.074   4.251  0.1722 -0.1117  0.0928
19201W        W38055  16.832  16.921   0.632 -0.1552 -0.0065  0.4434
19202W        W38056   2.049   7.093  10.398  0.2718  0.2440 -0.0843
19203W        W38057   6.107  10.684   0.688  0.1757 -0.1761 -0.0296
19204W        W38058   9.135  13.283   0.881 -0.0935  0.1957  0.1133
19205W        W38059  12.533   5.384   1.741 -0.0733 -0.1784  0.0950
19206W        W38060  14.641  18.501  13.934  0.0899  0.0330  0.2667
19207W        W38061  18.350  15.014  12.044  0.2092  0.0280  0.0468
19208W        W38062  12.764  13.967   3.525  0.0427 -0.1358  0.1244
19209W        W38063   2.247  14.959   4.437 -0.2758 -0.2770  0.0126
19210W        W38064  15.964   0.773   2.734 -0.3711  0.0299 -0.0715
19211W        W38065  18.870  16.770   2.464  0.1826  0.1413  0.0650
19212W        W38066  10.196   1.147   2.196  0.1456  0.0840 -0.0784
19213W        W38067   1.913  14.721  14.382 -0.3780  0.2858 -0.1127
19214W        W38068  11.796   4.434   0.575  0.0649  0.0342 -0.1722
19215W        W38069   3.068   6.692  11.139 -0.0303 -0.0933 -0.1247
19216W        W38070   0.523  12.602   0.697  0.0207 -0.0757 -0.2444
19217W        W38071  13.946  13.063   1.189  0.0762 -0.0639  0.1921
19218W        W38072  12.735  13.966   0.437  0.4367  0.2187 -0.1850
19219W        W38073   5.627  10.775  11.736  0.0905 -0.1806 -0.0789
19220W        W38074   9.279   4.216   0.083  0.0720  0.2064 -0.2645
19221W        W38075  14.590  14.140   1.128 -0.0363 -0.1281 -0.4100
19222W        W38076  19.137  15.658  12.454 -0.3168 -0.2011 -0.3449
19223W        W38077   0.581  13.774  13.253  0.0674 -0.0646  0.1418
19224W        W38078  19.069  18.025  10.875 -0.2748 -0.1810 -0.2250
19225W        W38079   2.541  12.319  12.015 -0.0045 -0.0482  0.1343
19226W        W38080  17.086   2.174  12.193  0.1898 -0.1867 -0.2553
19227W        W38081  16.412   4.284   0.999 -0.2123 -0.0121 -0.1726
19228W        W38082  11.471  10.081   1.146  0.0802  0.3070  0.3153
19229W        W38083  14.129  13.804  11.577 -0.4254 -0.1059 -0.1357
19230W        W38084   6.081   9.553   0.707  0.0315 -0.0278  0.2337
19231W        W38085   9.565  11.290  10.155  0.0332 -0.4583  0.1548
19232W        W38086  10.626   8.195  13.373  0.2943  0.1829  0.2664
19233W        W38087  18.981   8.071  11.436 -0.1681 -0.2455 -0.0905
19234W        W38088  13.577  16.016   3.674 -0.0643  0.2377  0.0671
19235W        W38089   4.443   5.496  12.656 -0.0100  0.1388  0.3136
19236W        W38090  14.018  15.939  12.424  0.1078  0.1632 -0.0130
19237W        W38091  16.206   4.431  11.752  0.2229  0.0959  0.2378
19238W        W38092  12.129  15.554   1.464  0.3653  0.2267 -0.0389
19239W        W38093   1.701  12.458  13.008 -0.0850  0.2756 -0.1015
19240W        W38094  14.338  12.110  13.782 -0.0503 -0.0851 -0.0653
19241W        W38095   7.201  16.918  14.456 -0.1586 -0.0515  0.0573
19242W        W38096  16.563   7.553  10.915 -0.0306 -0.3085  0.0725
19243W        W38097  15.202  16.346  11.750  0.0789 -0.1398  0.0741
19244W        W38098   1.005  16.095   0.695 -0.0143  0.1326 -0.0829
19245W        W38099   6.012   0.066  14.705  0.0512  0.0055 -0.1850
19246W        W38100   1.665   2.444   0.371  0.0159 -0.0786 -0.4057
19247W        W38101  17.661  13.788   2.170 -0.2581  0.1117 -0.0521
19248W        W38102  18.658   9.815   1.785 -0.1557  0.1693  0.1657
19249W        W38103  14.486  12.736   0.228  0.0682  0.1129  0.5339
19250W        W38104  16.293   3.320  10.368  0.1676  0.0814 -0.4908
19251W        W38105  10.162  12.122   2.471 -0.3760  0.0925 -0.1840
19252W        W38106   4.751   2.669   3.001  0.0435  0.1793  0.2274
19253W        W38107  12.849  14.555  13.698  0.1956  0.1296  0.1270
19254W        W38108   3.657  10.929  14.377 -0.1166  0.2275 -0.1035
19255W        W38109  13.343   1.561  14.354  0.0241 -0.2229  0.0425
19256W        W38110   8.471  15.616   3.779 -0.1778  0.0223  0.1783
19257W        W38111  10.453   8.393   2.273  0.2676  0.2136  0.1193
19258W        W38112  12.945   5.079  14.642 -0.0286 -0.1271  0.3406
19259W        W38113   4.100   8.593   1.560 -0.0740  0.2670  0.2388
19260W        W38114   1.710   7.289  12.486 -0.1717  0.3326  0.3276
19261W        W38115   5.198  10.331  11.574  0.4406 -0.0473 -0.3417
19262W        W38116   9.578   4.524   4.025  0.1245  0.0101  0.0790
19263W        W38117   3.531   5.107   3.041  0.0608 -0.4871  0.1209
19264W        W38118   4.010  14.889   2.435  0.4163  0.1787  0.0667
19265W        W38119   5.389  13.654  12.555 -0.2839  0.0663  0.0138
19266W        W38120  16.714  19.179   0.173 -0.3341 -0.0781 -0.0134
19267W        W38121   6.438   7.737   3.494 -0.2044 -0.1423  0.0145
19268W        W38122  14.131  11.166  13.931  0.0008  0.0707  0.2089
19269W        W38123  17.367  16.998   3.605  0.1797  0.0316 -0.2786
19270W        W38124   4.061  17.992   3.268 -0.1733  0.0104  0.1269
19271W        W38125  10.061   6.112   1.637  0.1127  0.3367  0.2788
19272W        W38126  14.713  17.898  10.935 -0.1363 -0.0879 -0.1300
19273W        W38127   6.905  11.118  11.893  0.0768  0.0875 -0.1436
19274W        W38128  10.085  16.453   3.460 -0.0676  0.1136  0.1731
19275W        W38129   0.706  15.831  12.919 -0.1022 -0.2049 -0.2904
19276W        W38130   5.835   2.252   1.628 -0.0215  0.4411 -0.1563
19277W        W38131   6.423  10.105   9.433  0.0524  0.3410  0.2309
19278W        W38132   4.610   6.197  14.117 -0.0592 -0.0813  0.1093
19279W        W38133   9.258  12.215  10.572 -0.2452 -0.4451 -0.1236
19280W        W38134  18.213  16.046  12.045  0.0731  0.0187  0.4631
19281W        W38135   5.438   9.147  13.018 -0.2581 -0.3762 -0.1854
19282W        W38136  18.927  11.582   2.106 -0.1047  0.1015  0.0554
19283W        W38137   9.145  12.434   3.874 -0.3459 -0.2866 -0.1476
19284W        W38138   5.048  12.340  11.871 -0.1479 -0.1260 -0.1924
19285W        W38139  18.773   6.788  10.773  0.1069 -0.3088 -0.0868
19286W        W38140  14.494  11.703  12.703  0.3204  0.2068  0.1083
19287W        W38141  11.358   9.539   2.995 -0.2619  0.1829 -0.1675
19288W        W38142   5.510   3.406   4.007 -0.2914 -0.0638 -0.0730
19289W        W38143   0.233   2.055  10.885 -0.0178  0.1873  0.1693
19290W        W38144  13.031   0.653  12.573 -0.1918 -0.0280  0.1582
19291W        W38145   9.247   7.594   2.090 -0.1826 -0.0402 -0.1984
19292W        W38146  14.344  10.883  13.513 -0.0645 -0.1588 -0.0527
19293W        W38147  13.714   1.117   1.381  0.0311 -0.1183  0.2796
19294W        W38148  16.917  16.025   3.710  0.2128  0.0526  0.0940
19295W        W38149   7.603   1.255   3.774  0.1137  0.0339  0.2554
19296W        W38150   7.828  10.863   0.976 -0.2083  0.0145 -0.3245
19297W        W38151   3.230  16.654   0.562 -0.2128  0.2961  0.1794
19298W        W38152  16.039  14.109  14.718  0.1775  0.6295 -0.1274
19299W        W38153  11.191   7.672  13.344  0.1290 -0.0468 -0.1778
19300W        W38154  12.104  15.598   1.997 -0.0230  0.0381 -0.1675
19301W        W38155   6.633  15.579  14.596 -0.0141  0.0256  0.1588
19302W        W38156  11.746   9.010   0.300  0.1468  0.3434 -0.0957
19303W        W38157  14.176  12.492  10.504 -0.1550  0.0411  0.0823
19304W        W38158  10.371  17.841   0.942  0.2208 -0.1689 -0.1970
19305W        W38159  13.365  16.744  11.689  0.0506  0.0212  0.0849
19306W        W38160   2.731   9.583   3.812  0.1481  0.2478 -0.3293
19307W        W38161  18.322   3.845  13.558 -0.1131  0.1574 -0.0267
19308W        W38162   1.550  13.847  13.281  0.1354 -0.1329  0.0156
19309W        W38163   4.207   6.027  12.825 -0.1731 -0.2564  0.0502
19310W        W38164   4.303  19.142  12.248 -0.0492 -0.2009  0.0027
19311W        W38165  13.908  14.915   4.546 -0.1180  0.0820  0.0754
19312W        W38166  14.392   9.729  12.677  0.0413  0.0044  0.0423
19313W        W38167  10.375   0.037  10.489  0.1853  0.1571 -0.2447
19314W        W38168  17.709   8.220   3.311  0.1054 -0.3162  0.1928
19315W        W38169   1.357   7.738  12.427  0.0652 -0.0653  0.1692
19316W        W38170  10.587   1.735  11.134  0.2092  0.0417 -0.3982
19317W        W38171  18.228   7.965   2.126 -0.2069  0.0283  0.1740
19318W        W38172   7.710  18.151   0.177 -0.1680  0.1210  0.1303
19319W        W38173   1.428   4.118  11.563  0.1094  0.1094 -0.2511
19320W        W38174   6.171  15.699   3.388 -0.0043 -0.3090 -0.2731
19321W        W38175   6.193   2.803   4.221 -0.0580 -0.0042  0.0307
19322W        W38176  14.849  10.165   3.206 -0.0324  0.1222  0.0482
19323W        W38177   7.381  12.571   2.841 -0.2526  0.0377  0.0452
19324W        W38178  13.250  17.489  13.484 -0.1206  0.2148  0.0468
19325W        W38179   1.883   9.723   2.622 -0.2306  0.1625 -0.2638
19326W        W38180   5.272  10.190  13.500 -0.0982  0.1616  0.2298
19327W        W38181  11.289   2.811   3.476 -0.1820 -0.0682 -0.0881
19328W        W38182   2.454  13.004   3.633 -0.0494 -0.0709  0.0295
19329W        W38183  13.183   1.055   4.170  0.0287  0.0944  0.2815
19330W        W38184   2.281  14.677  12.152  0.1252  0.3443  0.2331
19331W        W38185   3.347  17.284   3.564  0.1824  0.1221  0.0320
19332W        W38186   3.714  17.392  12.538 -0.0805  0.1947 -0.1699
19333W        W38187  10.732  11.081  12.771  0.0185  0.2776 -0.4585
19334W        W38188  14.033  15.996  11.579  0.0130  0.3048 -0.1150
19335W        W38189   9.575  11.024   3.157 -0.2174 -0.0507 -0.0177
19336W        W38190  13.906   3.553   2.513  0.0607  0.0138 -0.0217
19337W        W38191   5.123   6.146  12.615  0.2078  0.0666  0.2631
19338W        W38192   0.183   8.709   1.107 -0.0280 -0.0923 -0.2628
19339W        W38193  14.246   5.158  14.387  0.0919 -0.1534 -0.2054
19340W        W38194  12.235  14.337   1.974  0.2048 -0.2615 -0.1358
19341W        W38195  11.403   2.016   1.502  0.1723 -0.0992  0.0394
19342W        W38196   2.698   8.309  11.673  0.0625 -0.0489 -0.2041
19343W        W38197  18.606   7.638  13.016  0.2364  0.0723  0.2305
19344W        W38198   1.008   7.551   2.345  0.0819 -0.2189 -0.2882
19345W        W38199  10.549  12.472   0.572 -0.1090  0.2414 -0.3510
19346W        W38200   7.469   0.358  11.330  0.0606  0.1268 -0.1268
19347W        W38201  13.535   0.932  11.986 -0.2273 -0.3343  0.3160
19348W        W38202  13.542   6.142   2.419 -0.1161 -0.1300  0.0405
19349W        W38203   2.878   8.000  13.732 -0.0328 -0.0265  0.1179
19350W        W38204  14.172   4.013   0.484 -0.1607 -0.2205  0.0285
19351W        W38205  17.909  17.501  10.809 -0.0548 -0.2011  0.0142
19352W        W38206  13.885   7.393   2.332  0.1084 -0.1074  0.0779
19353W        W38207  17.012   9.737  14.040 -0.2118  0.0182 -0.1503
19354W        W38208   6.373  16.602   0.588  0.4224 -0.0494 -0.3590
19355W        W38209  15.958  13.719  10.436 -0.0692 -0.0564 -0.4023
19356W        W38210   9.702  13.184  13.849  0.0237 -0.0826  0.0525
19357W        W38211  13.639  18.137   3.589  0.0179  0.4077  0.0743
19358W        W38212   7.790   2.679  13.329 -0.0634 -0.4667  0.3183
19359W        W38213  17.272  15.930   3.309 -0.1115 -0.1008 -0.2121
19360W        W38214  12.948   5.287  11.416  0.1227 -0.3182 -0.0755
19361W        W38215   8.374  16.840  11.626  0.3607  0.1859 -0.0483
19362W        W38216  11.248  13.559  13.391  0.1606 -0.0816  0.0100
19363W        W38217   5.256  14.784   0.242 -0.2415  0.2533  0.0345
19364W        W38218   4.766  15.450  12.520  0.0330  0.0653 -0.1954
19365W        W38219   9.230   3.233   3.519  0.2364  0.0802 -0.0220
19366W        W38220  14.320  18.577  12.558  0.1660  0.1240 -0.3105
19367W        W38221  10.966  16.666  12.612  0.0257 -0.2408 -0.0952
19368W        W38222  12.499  12.562  10.552 -0.2152  0.1642 -0.2616
19369W        W38223   6.816   7.378   0.619  0.2504 -0.2803  0.1388
19370W        W38224   9.789   8.287   4.475  0.2652  0.2399 -0.1568
19371W        W38225  18.538  11.842  10.790  0.0718  0.0869 -0.1073
19372W        W38226  12.676  11.960   0.508  0.0610 -0.0295 -0.1064
19373W        W38227   2.561   5.641  12.420  0.0310  0.2027  0.1290
19374W        W38228   2.810   5.647   0.051  0.0533 -0.2639  0.2245
19375W        W38229  13.636  18.099   4.210 -0.1253 -0.1920  0.3318
19376W        W38230   7.687  10.467  13.280 -0.0975  0.1077  0.1163
19377W        W38231   9.539   6.871   0.564 -0.2729 -0.2011 -0.0726
19378W        W38232   4.627  10.706  10.301  0.0175  0.1040 -0.0858
19379W        W38233  14.331   6.097  12.265 -0.0833  0.1184 -0.0023
19380W        W38234   5.229   7.205   1.407 -0.0233  0.0998  0.2027
19381W        W38235  11.246   0.117   4.068  0.0589  0.0920  0.1959
19382W        W38236   0.059   5.828   3.265 -0.4528 -0.1070  0.2919
19383W        W38237   0.536  16.883   0.436 -0.0620  0.0263 -0.1250
19384W        W38238  14.493   2.105   3.104  0.2625  0.1549  0.0295
19385W        W38239  13.940  15.654  10.744 -0.1754 -0.1045  0.2484
19386W        W38240   7.511  10.230  11.632  0.1552  0.0901  0.3164
19387W        W38241  12.955  18.811   2.233 -0.1459  0.4745  0.1379
19388W        W38242   4.170   0.764   4.039  0.0721  0.0641 -0.1669
19389W        W38243  15.262   3.044   4.158 -0.0284  0.2527  0.1181
19390W        W38244  18.359  13.458   3.192 -0.1903  0.1278  0.1126
19391W        W38245  10.936   8.987  12.559 -0.2111 -0.1176 -0.3614
19392W        W38246   4.039  10.609  13.356  0.3177  0.2147  0.0578
19393W        W38247   6.036   7.690  11.128 -0.0103  0.1787  0.0964
19394W        W38248   1.441  11.540  13.372 -0.3041  0.1452 -0.0991
19395W        W38249  10.560   1.369   2.564  0.2724  0.1711 -0.0201
19396W        W38250  15.625   1.995  11.148 -0.3151  0.2083  0.1249
19397W        W38251  18.089   7.033  12.167 -0.0173 -0.1719  0.3932
19398W        W38252  12.724   4.693  12.241 -0.0462 -0.0149  0.1654
19399W        W38253  12.354   1.333   3.610  0.4645 -0.3252  0.0593
19400W        W38254   0.673  18.743  13.753 -0.0811 -0.1303 -0.1520
19401W        W38255  11.660   0.485   1.362  0.0791 -0.2393 -0.2922
19402W        W38256   0.784   7.079  14.591  0.1558  0.2346  0.0495
19403W        W38257  18.901  13.305  12.384  0.0224  0.1176 -0.0324
19404W        W38258   9.565  18.318  10.957 -0.0924 -0.1374 -0.0213
19405W        W38259   8.027   4.469  14.449 -0.0862  0.1484 -0.0363
19406W        W38260  16.945   9.110   1.979 -0.0121 -0.3144 -0.1275
19407W        W38261  16.064  10.755  11.642  0.2000 -0.0375  0.1731
19408W        W38262   4.633  17.935   0.651  0.0435 -0.0856  0.3063
19409W        W38263   6.691   4.208  10.558  0.1634 -0.2067 -0.2524
19410W        W38264   7.640   9.630   2.930  0.1180  0.0089  0.2920
19411W        W38265   9.003  18.033  13.982 -0.0076 -0.4446  0.1414
19412W        W38266  16.837   2.540  13.541  0.0539 -0.0917 -0.2097
19413W        W38267   5.432   2.344  14.067 -0.0342  0.0550  0.2381
19414W        W38268   2.663  15.889   0.638  0.0706 -0.0429  0.0749
19415W        W38269  11.206   8.823   0.383  0.0963 -0.0052 -0.0396
19416W        W38270  17.234  12.301   2.988  0.2409  0.0695 -0.2092
19417W        W38271   0.561  12.567  11.677  0.0482 -0.0009 -0.1026
19418W        W38272  18.173  10.155  14.569  0.0334 -0.2866  0.0862
19419W        W38273  12.774  13.585   0.805  0.1059 -0.1729  0.0032
19420W        W38274  18.606   9.314  14.542 -0.0686 -0.0743  0.0890
19421W        W38275   9.221  13.207   3.004 -0.1655  0.0845  0.1654
19422W        W38276  15.613  17.557  11.107 -0.0817  0.0300 -0.0210
19423W        W38277  14.625  12.989  11.872 -0.4035 -0.3765 -0.1071
19424W        W38278  16.006   4.561   3.722  0.1019  0.1208 -0.1856
19425W        W38279  15.841  14.519  14.591  0.0378  0.3340 -0.2062
19426W        W38280  10.044  16.936   4.158  0.2052 -0.0075 -0.0149
19427W        W38281  13.140   4.851  13.332  0.0327  0.1081  0.2374
19428W        W38282  18.832  12.797  10.950  0.2117  0.2273  0.1436
19429W        W38283  18.747   7.519   1.513  0.0803 -0.0061 -0.1866
19430W        W38284  17.720   2.744   2.078  0.2795 -0.0768  0.1586
19431W        W38285  13.851  14.771  11.470 -0.1256  0.1085  0.0870
19432W        W38286   3.128   6.970  11.560 -0.1636 -0.1450 -0.0149
19433W        W38287   8.443   4.121   1.196 -0.0682  0.0622  0.0847
19434W        W38288   3.650   6.548  14.429  0.1845  0.0656  0.5246
19435W        W38289  11.531  16.837  12.671  0.0767  0.0174  0.0911
19436W        W38290   0.969   6.810  11.637  0.1467 -0.0376  0.0451
19437W        W38291   0.240   1.348  13.182  0.3069 -0.2352 -0.0740
19438W        W38292   7.733  12.358  13.625 -0.0434 -0.0978 -0.0280
19439W        W38293  14.602  13.588  11.590  0.0994 -0.4201  0.0068
19440W        W38294   9.597   5.286  11.566 -0.0703 -0.1626  0.1825
19441W        W38295   7.239   0.106   2.180  0.0493  0.0789  0.0651
19442W        W38296   1.556  12.334   1.341  0.1260 -0.1424  0.1413
19443W        W38297  18.367  18.123   2.705 -0.0182  0.0238  0.3204
19444W        W38298  10.646   4.315   3.860 -0.0181  0.0842  0.1467
19445W        W38299   1.584  11.752  14.364 -0.2525  0.2332 -0.0717
19446W        W38300   3.437  17.479  14.183 -0.2662 -0.1221  0.1803
19447W        W38301   7.184  16.651   4.553 -0.2284 -0.0709  0.2138
19448W        W38302  15.693  11.127   1.774  0.0193 -0.1004 -0.1947
19449W        W38303  17.285  18.472   3.524  0.3190  0.2290 -0.0429
19450W        W38304  10.617  13.703  11.962 -0.1135  0.0015  0.1453
19451W        W38305   0.543   0.697  10.938  0.4933  0.1021 -0.5896
19452W        W38306   9.379  11.767  13.322 -0.2263 -0.4051 -0.4861
19453W        W38307  14.086   6.810  12.912 -0.5077  0.1398 -0.2057
19454W        W38308  13.746  11.904  13.413  0.1388 -0.0661  0.0515
19455W        W38309   6.230   2.544  11.919 -0.1573 -0.0271  0.1646
19456W        W38310  11.436   2.950   3.924  0.1997 -0.4820 -0.0324
19457W        W38311   7.341   5.841   2.379  0.3446  0.0802 -0.0747
19458W        W38312   4.130   6.172   3.620  0.0844 -0.1581 -0.2574
19459W        W38313  14.582   0.233   1.802 -0.2154 -0.1040  0.0696
19460W        W38314  11.635   4.788  10.907 -0.2445  0.2747  0.2157
19461W        W38315   5.679   6.665  10.546  0.0150  0.2375  0.0631
19462W        W38316  16.525   1.057   2.851  0.1505  0.0707 -0.0482
19463W        W38317   4.373   8.844   3.717 -0.0554  0.2467  0.1860
19464W        W38318   7.413  16.160  12.784  0.0335  0.0362  0.0837
19465W        W38319  12.963  18.084  14.561 -0.0094  0.2203 -0.0674
19466W        W38320   4.639  16.783  14.264 -0.1242  0.0884 -0.2332
19467W        W38321   8.150   0.424  10.807  0.1526  0.0218 -0.2460
19468W        W38322  14.179   2.985   1.860  0.1038  0.0277  0.0451
19469W        W38323   5.103   3.573   1.976 -0.1200 -0.0106 -0.0209
19470W        W38324   8.539   3.191   1.289 -0.2837 -0.0883  0.0735
19471W        W38325  13.542  11.924  12.964 -0.2641 -0.2639 -0.2679
19472W        W38326   0.986   9.123  13.877  0.0877  0.0174 -0.0385
19473W        W38327   1.625  16.699  12.419 -0.1873  0.0074  0.2288
19474W        W38328   4.413  15.244  14.150 -0.0592 -0.0307 -0.2896
19475W        W38329  11.574   1.975   3.782 -0.0133  0.1181 -0.1800
19476W        W38330   5.885  11.886   0.024  0.0204 -0.3416 -0.0456
19477W        W38331   7.191   3.572   3.595  0.2176  0.0428 -0.1809
19478W        W38332   4.234  16.247  13.008  0.3971 -0.0958 -0.1187
19479W        W38333   7.103  15.268  13.802  0.3652 -0.2437  0.0520
19480W        W38334  11.801   0.640  12.172 -0.0419 -0.1628 -0.0848
19481W        W38335   6.981  18.181  10.170  0.2557 -0.3103 -0.3544
19482W        W38336  12.661  11.667  13.085  0.1580 -0.1366  0.0058
19483W        W38337   6.384   4.348   3.008 -0.3093 -0.0134 -0.0701
19484W        W38338  15.028  17.163  14.442  0.0813 -0.3138  0.1860
19485W        W38339  13.023  15.218   1.074  0.3050  0.1135  0.3114
19486W        W38340  13.510   5.759  10.839  0.2102 -0.0127  0.0445
19487W        W38341  15.720   2.428  13.337 -0.3644  0.2012 -0.1615
19488W        W38342  12.427   1.026   0.885 -0.2329  0.0824 -0.0684
19489W        W38343   8.084  11.424   3.894  0.1090 -0.1178  0.0066
19490W        W38344  10.031  14.359  12.199 -0.1456  0.0072 -0.3059
19491W        W38345   1.905  10.698   0.278  0.1827 -0.4459 -0.0553
19492W        W38346   5.272  10.932   2.818  0.0720  0.1210 -0.1601
19493W        W38347  15.723  16.116  11.108 -0.0458 -0.2625  0.4457
19494W        W38348   4.106   7.525   3.122 -0.0961 -0.0863  0.1412
19495W        W38349   6.411   7.087  10.541  0.3282 -0.0458  0.0537
19496W        W38350   6.596   2.732  14.311 -0.2273  0.2362  0.1356
19497W        W38351   6.797  15.047  11.331 -0.0134 -0.1280  0.3096
19498W        W38352   5.466  12.719   2.302  0.2310  0.2952 -0.1146
19499W        W38353   1.349   8.945   3.096  0.0793 -0.0227  0.1646
19500W        W38354   5.052   9.930   3.959 -0.4692 -0.0959  0.1487
19501W        W38355  18.169  16.935  12.063  0.2135  0.1161 -0.0894
19502W        W38356   4.184  15.534  12.463  0.3352  0.2169  0.1340
19503W        W38357   2.051   7.593  13.559 -0.1277  0.0191  0.2182
19504W        W38358  10.687  17.061   3.692 -0.0397  0.2382 -0.0797
19505W        W38359  17.512   3.692   2.314  0.2652 -0.0110 -0.3166
19506W        W38360  10.691  15.489  12.925  0.0754 -0.0192  0.0714
19507W        W38361   2.533   4.709   1.915  0.0427  0.0041 -0.0281
19508W        W38362  12.122  10.902  11.268  0.0734  0.0956  0.1290
19509W        W38363  13.886   5.785   2.418  0.1310 -0.2795  0.3407
19510W        W38364  11.501   7.843   1.827 -0.3908  0.3021  0.1816
19511W        W38365   6.295   7.823   0.760 -0.0463  0.1576  0.0453
19512W        W38366  15.921   4.183   1.066 -0.0216 -0.1350  0.0452
19513W        W38367  10.206   6.228  10.593 -0.4004 -0.1446 -0.2321
19514W        W38368   8.035  16.443  11.891  0.1974 -0.1369  0.4160
19515W        W38369  11.640   3.396  11.695  0.1760  0.1248  0.0927
19516W        W38370   3.361  16.757   5.134  0.2861 -0.0255 -0.2098
19517W        W38371   3.331  11.358  13.086  0.2952  0.2242 -0.4432
19518W        W38372  18.810  15.136  14.197  0.2800 -0.0263  0.0129
19519W        W38373   7.929  12.751  12.295 -0.1794  0.0993  0.0457
19520W        W38374   7.692  12.645   0.470 -0.1398  0.1351 -0.2412
19521W        W38375   1.357  17.191   2.501 -0.0576 -0.0080  0.0261
19522W        W38376   0.018  17.908   0.113 -0.0149 -0.1185 -0.1392
19523W        W38377  17.452   6.863  14.375  0.2200 -0.3100  0.2852
19524W        W38378  13.689  11.250  14.272  0.2993 -0.0135 -0.1208
19525W        W38379   9.529   9.399  13.602 -0.0310  0.3453 -0.0589
19526W        W38380  12.315  13.730   0.619 -0.1561  0.2187  0.0346
19527W        W38381  12.870   9.491  13.837  0.1454  0.0895  0.1133
19528W        W38382   1.424  10.155   4.433  0.0072  0.0294  0.0065
19529W        W38383  12.745   0.238   1.267  0.1064  0.0481  0.0569
19530W        W38384  17.948  12.356  13.904  0.4020  0.1035  0.3117
19531W        W38385   4.865  11.449  12.056  0.0376  0.1090 -0.0838
19532W        W38386   5.908   8.131   9.273  0.1436 -0.0448  0.2348
19533W        W38387   0.066   4.599   1.314  0.2564 -0.4202  0.0486
19534W        W38388  17.455  16.365   2.952  0.1939 -0.1093  0.2579
19535W        W38389   5.036   5.852  14.123  0.1420 -0.0936  0.1993
19536W        W38390  13.854   9.045  14.413  0.1245 -0.0162 -0.2612
19537W        W38391  12.019  15.101   2.382  0.0085 -0.0435 -0.0531
19538W        W38392   5.259   6.002  10.801 -0.0288 -0.0002 -0.0477
19539W        W38393  15.579  17.150  12.437 -0.1007 -0.2320 -0.3548
19540W        W38394   9.627  15.045  13.078 -0.0966  0.0944  0.1528
19541W        W38395  14.309   0.360   0.421 -0.1191  0.0951  0.0347
19542W        W38396   9.870  15.184   1.462  0.0848  0.0175  0.0328
19543W        W38397  15.886  14.967   0.122  0.0047  0.2238 -0.0034
19544W        W38398  11.984  15.208  11.452 -0.1414  0.3051 -0.0560
19545W        W38399   5.622   1.455  12.108 -0.1394 -0.2103  0.1177
19546W        W38400  10.964  15.577  11.899  0.0168  0.1008 -0.1654
19547W        W38401  18.720   4.644   2.310 -0.1229 -0.1600 -0.0094
19548W        W38402  17.765   4.630  12.196  0.0013  0.0189 -0.0411
19549W        W38403   5.287  19.006  11.033 -0.3881 -0.2612  0.3345
19550W        W38404   2.347  13.570   4.170 -0.0495  0.2131  0.3743
19551W        W38405   3.452   4.103   0.614  0.3338 -0.0444  0.3333
19552W        W38406   2.959  13.470  13.986  0.2413  0.2054  0.2288
19553W        W38407  13.854  11.036   3.172 -0.0186 -0.3372  0.5293
19554W        W38408   3.454  17.579   4.656 -0.1924 -0.0541 -0.2339
19555W        W38409  11.980  16.110   0.593 -0.4556 -0.2361 -0.1074
19556W        W38410   4.786   1.645  14.346 -0.0709 -0.0280  0.1126
19557W        W38411  18.914   6.574   3.942  0.1641 -0.2163  0.1294
19558W        W38412   0.767   0.253   0.433  0.0376  0.2720 -0.0365
19559W        W38413  15.129  15.339   0.827 -0.0897  0.1339  0.1373
19560W        W38414   7.269   4.739  10.924 -0.0905  0.0280  0.1245
19561W        W38415  16.257   0.777  14.340  0.3645  0.2506 -0.1078
19562W        W38416   6.836   6.378  13.744 -0.1776  0.0599  0.0494
19563W        W38417   0.060   2.814   2.168 -0.0721 -0.2857 -0.4378
19564W        W38418  12.261  13.728  10.690  0.4629 -0.0500  0.3143
19565W        W38419   9.941  17.541   1.165 -0.2331 -0.0697  0.0445
19566W        W38420   9.427   5.490   1.285  0.1714  0.1236 -0.1369
19567W        W38421  16.594   4.259   2.417 -0.1285  0.0709  0.1704
19568W        W38422  15.475  12.065  14.685  0.0844 -0.2409  0.1364
19569W        W38423   1.562  13.150   2.840 -0.2266 -0.1886 -0.0055
19570W        W38424   2.594   1.456  10.777 -0.3130  0.0659  0.0448
19571W        W38425   8.595  15.211   2.400 -0.2278 -0.0412  0.0379
19572W        W38426   0.609   9.417   1.107 -0.0507  0.0964 -0.0391
19573W        W38427  14.792   6.592  13.426 -0.1688  0.1487 -0.0718
19574W        W38428   6.932   5.250  12.069 -0.1711 -0.2139 -0.1933
19575W        W38429   7.703  15.390  11.626  0.0425  0.1105 -0.1267
19576W        W38430   4.084   9.140   1.266 -0.0968 -0.0095 -0.1618
19577W        W38431   0.960   3.215   0.467  0.0204  0.2527 -0.1271
19578W        W38432   2.957   6.108   1.012  0.2062  0.1291  0.1130
19579W        W38433   1.277   1.285   3.964  0.0078  0.0156 -0.0269
19580W        W38434  13.748  12.388   1.933 -0.2201  0.3051 -0.0428
19581W        W38435  13.403   6.585   2.785  0.1492 -0.1059  0.2532
19582W        W38436   7.443  14.194   3.956 -0.0466  0.3563  0.4988
19583W        W38437   7.241   0.227   0.239  0.2218  0.2578  0.2331
19584W        W38438   8.484  10.518   3.931  0.0563 -0.0472  0.2986
19585W        W38439  12.362  16.276  10.407  0.0739 -0.0562 -0.1716
19586W        W38440   8.279  15.599   1.023  0.2723  0.2150  0.0708
19587W        W38441  16.099   3.585   0.435 -0.0825  0.3288 -0.1710
19588W        W38442  15.694   9.301  10.710 -0.0657 -0.1418  0.0210
19589W        W38443  13.288  14.264  13.791  0.2411  0.5571 -0.2090
19590W        W38444   8.819   3.724  12.228  0.0521  0.0716 -0.3187
19591W        W38445  10.442   9.762  14.654  0.0019  0.1241 -0.1226
19592W        W38446   2.986  12.394   3.753 -0.2257  0.0368  0.2725
19593W        W38447  11.524  11.714   0.300 -0.2245  0.1584 -0.2695
19594W        W38448  18.868   9.751  14.444  0.0300 -0.1128  0.1596
19595W        W38449  16.622   4.461  13.939  0.2762  0.4341 -0.3215
19596W        W38450  13.184  18.994  12.101  0.1985 -0.2035 -0.5848
19597W        W38451   4.760  18.816  13.021 -0.1016  0.3744  0.1663
19598W        W38452   6.100   3.329   2.028 -0.0109 -0.2339  0.3176
19599W        W38453  10.244   6.868  10.337 -0.3737 -0.3911 -0.3204
19600W        W38454  12.278  11.373  13.062 -0.0557  0.0815 -0.0603
19601W        W38455   4.956  16.850   2.644  0.2055  0.4495  0.0613
19602W        W38456   1.274   2.665  13.407 -0.5587 -0.0000  0.3374
19603W        W38457  15.901   1.054   4.260  0.1629 -0.1644  0.2930
19604W        W38458   8.254  14.503  10.711 -0.0908  0.2454  0.0193
19605W        W38459  13.532   7.721   2.081  0.1287  0.0880  0.2353
19606W        W38460   9.250  16.396   2.281 -0.1122  0.2803 -0.2041
19607W        W38461   1.905   0.719  10.985  0.1870  0.0709  0.3603
19608W        W38462  15.273   5.631  14.688 -0.1251  0.0796  0.0925
19609W        W38463  18.095   5.306   2.769 -0.1165  0.5191 -0.3107
19610W        W38464   3.548  15.916   2.735 -0.1321  0.1000 -0.0664
19611W        W38465  11.732   7.585   4.587  0.2116  0.1478  0.1116
19612W        W38466   4.262  16.656  11.643 -0.0787  0.0807  0.0724
19613W        W38467  12.880   1.301  10.981  0.1132  0.2183  0.1081
19614W        W38468   5.731   8.212  12.126 -0.1071  0.3392  0.1526
19615W        W38469   2.975  12.602   1.552 -0.0024 -0.1468 -0.4023
19616W        W38470  14.131   3.998   3.775 -0.3627 -0.1117 -0.1367
19617W        W38471   2.458   8.672  13.025 -0.0897 -0.2146 -0.1661
19618W        W38472   3.599  15.614  12.822 -0.2741  0.0973  0.0916
19619W        W38473  16.560  13.173   2.875  0.1180  0.1764 -0.2052
19620W        W38474   7.002  15.410  13.366 -0.1486 -0.2003 -0.4658
19621W        W38475  19.096   9.656   1.286 -0.1995 -0.2886  0.2772
19622W        W38476   3.492   7.092  14.491 -0.0925 -0.2912  0.0949
19623W        W38477   6.058   8.485  13.942  0.2737 -0.2348 -0.2120
19624W        W38478   7.690   5.482   1.381  0.4572 -0.1698 -0.1116
19625W        W38479   8.238  16.073   0.067  0.2760 -0.1378 -0.3754
19626W        W38480  13.457   0.170  14.692  0.0513  0.0067  0.2678
19627W        W38481   5.971  15.661   1.265  0.3030  0.2832  0.1101
19628W        W38482   7.196  15.429  14.490  0.1043  0.0582  0.2380
19629W        W38483   4.514   8.909   4.242 -0.2574  0.3396  0.1114
19630W        W38484  13.921  13.483   1.446  0.0026  0.2973 -0.0021
19631W        W38485   2.369  11.444   2.061  0.2621  0.1071  0.0332
19632W        W38486  12.063   2.274   2.425  0.2848 -0.0429  0.0347
19633W        W38487  12.581  14.054   1.074  0.2161  0.0047 -0.0298
19634W        W38488   2.221  11.063   0.537 -0.0447 -0.2343 -0.0794
19635W        W38489  15.238   1.129   2.437 -0.2826 -0.1847  0.1257
19636W        W38490  12.636  15.451  10.758  0.2662  0.3088 -0.2776
19637W        W38491   2.553  19.059   0.545  0.0214 -0.0720  0.0285
19638W        W38492   9.490  18.440   0.079 -0.2707  0.3244 -0.1866
19639W        W38493  14.319   3.253  10.924 -0.3495  0.0315  0.4630
19640W        W38494   5.152  10.066   1.654  0.1087 -0.1923  0.4834
19641W        W38495   6.642   7.003  12.065  0.2760 -0.1060  0.4605
19642W        W38496   1.287   0.187   0.850 -0.0319  0.1198  0.2116
19643W        W38497   5.223   5.316  12.414  0.0129  0.1756  0.3038
19644W        W38498   2.214  18.814  13.084  0.2204  0.2606  0.2663
19645W        W38499  10.241   3.645  10.610  0.1047  0.0518 -0.0579
19646W        W38500   8.427  18.361  13.855 -0.3331  0.0520 -0.1355
19647W        W38501  10.246  16.478   4.280  0.0966 -0.0722 -0.2265
19648W        W38502  10.810   7.482  12.996 -0.2080 -0.0983  0.2892
19649W        W38503  15.140   7.197   4.097 -0.0891 -0.1070 -0.0362
19650W        W38504   7.604  14.122   2.026  0.1866  0.3126  0.0540
19651W        W38505  16.419  10.756  12.679 -0.0431 -0.1615  0.1052
19652W        W38506  10.062  15.164  12.327 -0.0393 -0.0228 -0.0459
19653W        W38507  15.341   6.303   3.994 -0.0948  0.0066  0.3632
19654W        W38508   7.578  18.516   1.987  0.1544  0.2886 -0.0279
19655W        W38509   8.472   3.899  13.921  0.1354 -0.0045  0.1230
19656W        W38510  18.464  16.774  13.469 -0.0669  0.0882  0.1878
19657W        W38511  10.237  10.409   0.534 -0.0394  0.2029  0.2285
19658W        W38512   1.791  15.915   0.598 -0.0849  0.2099  0.0679
19659W        W38513  15.149  15.082  10.647  0.1693  0.0010 -0.0184
19660W        W38514  15.607   3.104  11.797  0.4449  0.0601  0.2636
19661W        W38515   1.381  13.854  12.071  0.0433 -0.1659 -0.2848
19662W        W38516   9.851  15.591  14.634  0.0872 -0.1518 -0.1117
19663W        W38517   1.466   6.190   0.485 -0.1032  0.1059 -0.1423
19664W        W38518  14.655   4.392  11.262 -0.0301  0.0648  0.0613
19665W        W38519   7.846   0.413  14.356  0.2087  0.1782 -0.0566
19666W        W38520   5.403   0.340   3.694 -0.2017  0.2182  0.2263
19667W        W38521  16.857   6.190   3.428 -0.2400  0.1147  0.0519
19668W        W38522   7.444   4.447   1.929 -0.1026 -0.0496 -0.1571
19669W        W38523   2.374  12.903  13.171  0.0632 -0.0386  0.0060
19670W        W38524  16.036  16.452  10.753 -0.2246  0.3133 -0.4514
19671W        W38525   9.859  11.696  11.430 -0.1485  0.1015  0.1064
19672W        W38526  11.545   1.479   4.387  0.1142  0.3583 -0.2402
19673W        W38527   5.199   6.141   1.701 -0.1027  0.1304  0.2092
19674W        W38528   4.256  10.404   3.164  0.1805 -0.0284 -0.1741
19675W        W38529  19.129  18.101   3.494 -0.2076 -0.0696  0.0401
19676W        W38530   2.168   7.596  11.359  0.0873  0.0689 -0.0790
19677W        W38531  10.210  13.242   0.009  0.0579 -0.1073  0.0665
19678W        W38532  15.818   8.112  12.893 -0.2724 -0.1352  0.3024
19679W        W38533  13.209   5.872  12.764 -0.1108 -0.0275  0.0737
19680W        W38534  14.026   7.133   0.885  0.2412  0.1835  0.0712
19681W        W38535   5.782   3.712  13.274  0.0324 -0.1281 -0.0236
19682W        W38536  10.785  19.028  13.254 -0.1060  0.3934  0.0526
19683W        W38537  16.243  11.238   2.258 -0.0376  0.0919 -0.0864
19684W        W38538  10.955  12.624  13.531  0.1616  0.1770  0.0329
19685W        W38539   8.070   7.865   2.405 -0.1351  0.0215 -0.1563
19686W        W38540  14.805   9.324  10.413 -0.0221  0.0667 -0.1089
19687W        W38541   9.296  18.767   0.544  0.4468  0.0094 -0.0094
19688W        W38542   7.381   7.328   3.087  0.0489  0.0310 -0.0440
19689W        W38543   6.108  12.197   1.299  0.1283 -0.0370  0.0188
19690W        W38544   7.500  14.606  11.752 -0.0627 -0.1563 -0.1102
19691W        W38545  10.403   4.955  14.174  0.1039  0.1981 -0.2804
19692W        W38546   9.754  12.301   2.167 -0.1144  0.0235  0.2600
19693W        W38547  17.278   2.011  13.838 -0.0028 -0.0721  0.0855
19694W        W38548   0.303  18.593  11.971  0.2620  0.1465 -0.2485
19695W        W38549   0.963   1.937  12.538 -0.1450 -0.2673  0.0438
19696W        W38550   7.142  18.098  11.411  0.1420 -0.2095  0.0948
19697W        W38551  14.890   8.550  11.034  0.1354 -0.2749  0.1210
19698W        W38552  16.276   6.698  10.722  0.0802 -0.0272  0.0470
19699W        W38553   8.526  12.989   3.571  0.3735  0.3331 -0.1732
19700W        W38554  13.683  17.565   3.828  0.3012  0.3034 -0.1072
19701W        W38555  13.161  14.338   3.412 -0.0938  0.0035 -0.0761
19702W        W38556  13.682   4.824  11.627  0.1868  0.3115 -0.1313
19703W        W38557   1.903   7.379   9.990 -0.2050 -0.2543 -0.1856
19704W        W38558  12.588   9.886   0.892 -0.1487  0.0827  0.0521
19705W        W38559  14.172   1.200   2.919  0.3869 -0.0053  0.1371
19706W        W38560   8.210   6.844  14.333  0.2184  0.1662  0.1058
19707W        W38561  15.172   7.967   1.232  0.0906 -0.4568 -0.2680
19708W        W38562  14.842  18.588  12.198  0.3566 -0.1019 -0.0044
19709W        W38563   2.880  10.031   1.540 -0.2111 -0.0851 -0.0446
19710W        W38564   9.212   1.033   0.544  0.1245  0.4197 -0.0527
19711W        W38565   1.887   3.493  10.379  0.0502 -0.3363 -0.0865
19712W        W38566  10.523  11.248  14.733 -0.1631  0.0870  0.2193
19713W        W38567  14.181   0.757  10.101 -0.0158 -0.1159  0.0332
19714W        W38568   9.716   7.767  14.304  0.1434  0.0304  0.1763
19715W        W38569   4.173  12.451  10.898  0.2254 -0.1510  0.0065
19716W        W38570  15.264  16.556  13.677  0.3069  0.1667  0.2767
19717W        W38571   1.655  12.409  13.528 -0.2679 -0.0732  0.1785
19718W        W38572   2.276   0.420  10.728 -0.0170 -0.3912 -0.1247
19719W        W38573   7.021  10.159  13.807 -0.0918  0.0221 -0.1640
19720W        W38574  10.561   4.052  14.225 -0.1181 -0.1148  0.1124
19721W        W38575   2.307   6.198  13.508  0.2396 -0.3180  0.3465
19722W        W38576  18.540  18.971  14.109 -0.1851 -0.2503 -0.0276
19723W        W38577   8.061   3.448   3.969  0.0182  0.1601  0.1298
19724W        W38578   7.399   9.698  11.858  0.0631 -0.3201 -0.4049
19725W        W38579  12.121   0.077   0.561  0.1587 -0.1496 -0.3753
19726W        W38580  16.702  14.106  10.490  0.1505 -0.0437 -0.0738
19727W        W38581  17.642  13.308   3.707  0.1275 -0.0608  0.0876
19728W        W38582   6.221  10.274   1.622 -0.0032 -0.1630 -0.0018
19729W        W38583   5.728   5.890  13.172  0.1066 -0.3306 -0.1719
19730W        W38584  10.151   3.138  12.397 -0.1235  0.0644 -0.0117
19731W        W38585  14.111  11.001   3.623  0.0589  0.1349 -0.3907
19732W        W38586   6.149  16.730  12.444  0.4346 -0.1561 -0.3436
19733W        W38587   1.924  18.348   1.008  0.0777  0.0660 -0.0919
19734W        W38588  18.041   2.846  13.983  0.1719  0.0696 -0.2292
19735W        W38589   1.868   5.424   1.617 -0.1764 -0.0639 -0.0606
19736W        W38590   8.479  14.937   4.273 -0.0742 -0.1640  0.2230
19737W        W38591   5.375   4.566   1.967  0.2364 -0.1935 -0.0385
19738W        W38592  11.004  15.277   2.101 -0.4012 -0.0083  0.0678
19739W        W38593   1.174  12.584   5.249  0.0510 -0.3152  0.1693
19740W        W38594  15.899   1.597  14.024  0.1144  0.0020 -0.2357
19741W        W38595  14.600   5.431  10.713  0.0781 -0.1102  0.0120
19742W        W38596   2.997  18.359   0.136 -0.0806 -0.1164 -0.1281
19743W        W38597  17.050   6.027   1.262  0.2110 -0.1670  0.0122
19744W        W38598  10.335   5.497  12.700 -0.1797  0.0008 -0.1828
19745W        W38599   5.544  12.256  14.564 -0.1663 -0.1351  0.0318
19746W        W38600  10.840  18.020  13.263  0.0269 -0.0946  0.0962
19747W        W38601   9.173  13.012  12.998  0.1392 -0.0180  0.1453
19748W        W38602  13.257   4.213   4.239  0.1434 -0.2109  0.1612
19749W        W38603   8.221   0.467   2.570  0.3166 -0.1088 -0.3085
19750W        W38604   6.828   0.112   2.488 -0.2991  0.0543  0.0753
19751W        W38605  15.244  16.711   3.550 -0.1431 -0.0642 -0.0295
19752W        W38606   1.306  15.491   2.307 -0.0089 -0.0564 -0.0969
19753W        W38607   8.652   1.473  10.071 -0.0714 -0.2653 -0.1663
19754W        W38608  19.151   1.047   1.659  0.1362  0.2461 -0.2735
19755W        W38609   9.204  11.574   4.400 -0.0410 -0.2638  0.0336
19756W        W38610   4.426   4.044  10.357  0.1187  0.1655  0.0072
19757W        W38611   6.483   0.020  11.940 -0.0301 -0.1720  0.2263
19758W        W38612   9.233   7.133   3.093  0.3367 -0.2200 -0.0547
19759W        W38613   9.874  12.940   0.742 -0.1550  0.2206 -0.4318
19760W        W38614   7.548   0.384  13.608  0.6820 -0.4538  0.1637
19761W        W38615   9.397   0.688  12.771  0.0173 -0.2094 -0.0141
19762W        W38616  16.739   6.906   2.218  0.1145  0.1353 -0.0289
19763W        W38617  17.207   9.543  12.573 -0.1810  0.0537  0.0191
19764W        W38618   7.042   8.624   1.698 -0.1197 -0.2237  0.1032
19765W        W38619   3.383   1.826  11.062 -0.1028  0.2474 -0.0889
19766W        W38620   3.452  10.788   0.828  0.1582 -0.0146  0.1928
19767W        W38621   1.908   9.902   1.331  0.1724 -0.1449  0.0360
19768W        W38622  18.117   7.616  14.198  0.2644  0.1467 -0.3048
19769W        W38623   0.297   3.877   1.492  0.1765 -0.0052 -0.2364
19770W        W38624  18.412   7.679   1.129  0.2765 -0.0053 -0.0321
19771W        W38625  16.528  17.166  14.403  0.0593  0.1930  0.1368
19772W        W38626   7.132  12.071  12.758  0.0562 -0.1961 -0.0723
19773W        W38627  12.551  15.939  12.652  0.0419 -0.1958  0.1283
19774W        W38628  11.656  11.160  11.999  0.0157 -0.0952 -0.1470
19775W        W38629   8.270  17.970   0.275  0.2817 -0.2373  0.0269
19776W        W38630  11.025   3.863  12.423  0.1031 -0.0505  0.1819
19777W        W38631   8.982   2.379   3.820 -0.1213  0.0777  0.0168
19778W        W38632  17.932   3.004  11.698 -0.1665  0.1881  0.3717
19779W        W38633   5.152   6.547   4.973  0.0253  0.1848 -0.1588
19780W        W38634   0.143   8.920   3.981 -0.3898  0.0590 -0.1364
19781W        W38635  11.852  13.332  10.561 -0.2195  0.2247 -0.1268
19782W        W38636  13.014   4.875  12.729 -0.1258 -0.1898  0.0682
19783W        W38637  16.797   5.410  10.842  0.0223 -0.0754  0.0475
19784W        W38638   0.068  16.179  11.506  0.0046 -0.0666  0.1303
19785W        W38639  12.793  11.636   3.975 -0.0125  0.1780 -0.0596
19786W        W38640  12.699   7.496  12.699  0.2331  0.1303  0.1160
19787W        W38641  11.291  11.615   9.504  0.0529 -0.0857  0.1639
19788W        W38642  12.667   4.856  14.264  0.0622  0.0807 -0.0877
19789W        W38643   2.947  17.800  13.246 -0.1990  0.1937  0.2089
19790W        W38644  13.014   2.568   0.885 -0.0518  0.0815  0.1474
19791W        W38645  14.367   4.547  11.765 -0.0681 -0.0690 -0.2410
19792W        W38646   1.182  17.024   4.631  0.0270 -0.1867  0.3023
19793W        W38647   3.436  10.716  10.284  0.1004 -0.0564  0.0682
19794W        W38648  15.787   4.274   3.045  0.2190 -0.0229  0.3726
19795W        W38649  14.406  17.910   4.625  0.2365 -0.1154  0.0185
19796W        W38650   0.397   3.626  11.630  0.1136  0.1402 -0.0709
19797W        W38651   6.128   6.506   4.232  0.1463  0.0570 -0.1972
19798W        W38652  11.545  13.602  12.343  0.3917  0.0001  0.0844
19799W        W38653  18.938  15.187  12.625 -0.0028  0.3332 -0.0096
19800W        W38654   4.783  14.902   3.900  0.0597 -0.0469  0.3237
19801W        W38655  11.483   4.925   4.020  0.1858  0.1953 -0.2113
19802W        W38656  16.917   0.948  14.670 -0.0305  0.2241 -0.3636
19803W        W38657  10.737   3.895   3.579 -0.2701  0.3092 -0.0493
19804W        W38658   9.962  18.298   0.024  0.3356 -0.0639  0.0662
19805W        W38659  17.741   0.902   9.590  0.1664  0.2907  0.1233
19806W        W38660   6.841  17.871   3.143  0.1490  0.1122  0.4181
19807W        W38661   7.008   8.971   3.444  0.1224 -0.1106 -0.1485
19808W        W38662  16.053   6.689   4.099 -0.0935  0.1616  0.0214
19809W        W38663  11.980   1.384  10.892 -0.2272  0.0307 -0.0507
19810W        W38664  14.174   5.805   0.751 -0.1175  0.0584 -0.0465
19811W        W38665   2.247   9.016  10.923 -0.2598 -0.1883 -0.0602
19812W        W38666   5.464  13.522   2.254 -0.0036  0.0443 -0.1496
19813W        W38667  10.523   8.301   2.825 -0.3137 -0.5125 -0.0673
19814W        W38668  10.535   1.286   0.852  0.1247  0.0904 -0.0065
19815W        W38669   5.215   0.919   4.521 -0.2289 -0.2484 -0.1241
19816W        W38670   0.360  15.179   1.228 -0.2418  0.3396 -0.0648
19817W        W38671  10.084  18.923  10.729 -0.3149  0.0660 -0.0682
19818W        W38672  17.616  13.595  10.601 -0.1620  0.1894  0.1014
19819W        W38673  16.943   1.003  13.165  0.1523  0.2226  0.0529
19820W        W38674   3.882  11.199  12.404 -0.1470 -0.2321 -0.2527
19821W        W38675   2.283   6.068   3.414 -0.3792  0.1082  0.0275
19822W        W38676  14.802  15.065  12.923 -0.0045  0.0662 -0.1122
19823W        W38677   8.753   3.729  12.850  0.0102  0.0671  0.2874
19824W        W38678   5.269  18.526  10.862  0.1654  0.1531  0.2228
19825W        W38679   8.379   6.153   4.002  0.0692 -0.0131  0.0325
19826W        W38680  13.391  19.047  14.263  0.2731 -0.0317  0.0940
19827W        W38681   0.275   7.334  12.812 -0.1826  0.1316 -0.0919
19828W        W38682   5.850  13.392  14.512 -0.0814  0.1705 -0.1653
19829W        W38683   0.386   2.649   0.562  0.0792  0.1328 -0.3451
19830W        W38684   7.070  15.618   0.357  0.1638  0.1001 -0.3369
19831W        W38685   4.627   5.704  10.570  0.1241  0.0239 -0.4672
19832W        W38686   5.168  19.175   0.577  0.3321 -0.1158  0.2620
19833W        W38687  11.681   5.447   3.200 -0.0641  0.2198 -0.0300
19834W        W38688   3.506   2.238  12.897 -0.0665  0.2505 -0.0057
19835W        W38689  11.583  10.385   2.630 -0.1788 -0.0585  0.0031
19836W        W38690  11.594  12.197   2.469  0.1233  0.0310 -0.1458
19837W        W38691   8.518  10.119  12.140 -0.1809 -0.1223  0.2025
19838W        W38692   1.632   6.262  13.747 -0.0923  0.0048 -0.4252
19839W        W38693  12.343   8.034  11.969  0.1884 -0.0186  0.3068
19840W        W38694  11.962   7.131  13.198 -0.0139 -0.2066 -0.2483
19841W        W38695   9.155   4.126   4.172 -0.3476 -0.1365  0.0360
19842W        W38696   1.043  17.144   2.076  0.0239 -0.3343  0.1183
19843W        W38697  15.668   8.465  14.167  0.0764  0.1695 -0.3285
19844W        W38698  14.636  15.153   0.698  0.2471 -0.2429  0.2920
19845W        W38699   0.293  18.721   4.310  0.0422 -0.2585  0.0180
19846W        W38700  12.427  15.905  13.911 -0.1105  0.0100  0.1137
19847W        W38701   9.266  15.870  11.556  0.3965 -0.4141 -0.2303
19848W        W38702   5.060  15.668  12.918  0.0689  0.1403 -0.1987
19849W        W38703   9.354  10.555   3.059 -0.0567 -0.3230 -0.2238
19850W        W38704   0.088  13.055  13.310  0.0165 -0.0022  0.5061
19851W        W38705   2.019   1.015  12.207  0.0042  0.0379 -0.0205
19852W        W38706   1.433   1.924   1.966 -0.2816  0.5048 -0.3314
19853W        W38707   9.350   3.162  10.994 -0.2981 -0.0800  0.3127
19854W        W38708  11.100   7.473  14.066  0.0692  0.0783 -0.1913
19855W        W38709  17.465   2.888   2.702  0.2394  0.0807  0.1546
19856W        W38710   9.219  10.924  13.514 -0.1433  0.2943 -0.3637
19857W        W38711   1.621   6.645  14.329  0.2294 -0.1874 -0.0645
19858W        W38712   3.456  14.352   2.222  0.0122 -0.0467  0.0045
19859W        W38713  14.228  13.915   1.421 -0.1373 -0.1917 -0.1058
19860W        W38714  11.764  10.710  14.708 -0.1487 -0.2768 -0.0696
19861W        W38715  16.590   8.799  12.201 -0.1836 -0.0336  0.2321
19862W        W38716  15.744   7.934  14.674  0.0587 -0.2271  0.0807
19863W        W38717   1.918  11.099   2.769  0.0203  0.4773  0.2280
19864W        W38718   5.674  12.007   0.956 -0.3715 -0.0885 -0.0711
19865W        W38719   6.490   3.935   1.408  0.0449 -0.0068 -0.0189
19866W        W38720   9.160  14.844   9.629  0.0342  0.3102 -0.1356
19867W        W38721  15.944  18.113   1.853  0.0671  0.0525  0.4208
19868W        W38722   1.592  11.477  10.735 -0.0939 -0.0429  0.3553
19869W        W38723   5.984  12.956   0.028  0.2632 -0.0219  0.1910
19870W        W38724  14.673  13.480   5.355  0.1562 -0.2675  0.0369
19871W        W38725  10.704   5.967  13.316 -0.0628  0.1800  0.0971
19872W        W38726  12.842   9.351  13.169 -0.0524  0.1872 -0.0219
19873W        W38727  13.362  16.152   2.754 -0.4499 -0.2446 -0.2885
19874W        W38728  14.660   6.814   4.136  0.1149 -0.2260 -0.1629
19875W        W38729  13.938   5.279   4.132 -0.1358  0.3557 -0.2274
19876W        W38730   3.231   1.547  14.170 -0.0248 -0.1997 -0.0404
19877W        W38731  18.983   7.561  11.696 -0.0106 -0.1227  0.1135
19878W        W38732  18.696   0.326   1.177  0.0309 -0.3554 -0.0249
19879W        W38733  17.033   6.097  12.758 -0.1413 -0.2826 -0.0531
19880W        W38734  17.791   9.914  10.823  0.1481  0.0711  0.0587
19881W        W38735  15.294  18.643   1.325  0.2929  0.0281  0.0060
19882W        W38736   6.373   6.301  13.583  0.2211  0.2097  0.1591
19883W        W38737  14.052   0.381   2.595  0.0102 -0.1290  0.1116
19884W        W38738  18.671   2.286   9.990  0.0837  0.0135 -0.2693
19885W        W38739  19.031  18.903   4.150 -0.1773 -0.3013 -0.2098
19886W        W38740   7.585  12.582  14.067 -0.1562 -0.1970 -0.2768
19887W        W38741   1.283   3.447   3.176  0.2039 -0.0829 -0.2008
19888W        W38742  10.384  12.782   0.939 -0.0893  0.2955 -0.1531
19889W        W38743   4.210   1.752  13.381 -0.0462 -0.1978 -0.0446
19890W        W38744   4.420   9.839   2.961 -0.2956  0.1994 -0.2929
19891W        W38745  16.046  13.251   0.692  0.2141  0.1588 -0.1154
19892W        W38746   4.862   7.881  11.812  0.0001 -0.3948 -0.2890
19893W        W38747  11.867   3.372   2.655  0.0008  0.0311  0.1497
19894W        W38748  15.043  16.660  10.760 -0.0162 -0.1264  0.1728
19895W        W38749  13.326   8.277  13.757  0.0112 -0.1042 -0.0648
19896W        W38750  17.038  16.573  10.443  0.0564 -0.0764 -0.2342
19897W        W38751   2.868  14.155   4.378  0.2748  0.1333  0.1123
19898W        W38752   5.461  11.527  11.928 -0.0245  0.3087  0.0539
19899W        W38753  16.517  15.977   2.357  0.1217  0.2233  0.0375
19900W        W38754   7.117  11.229  10.903 -0.3106 -0.0207 -0.1953
19901W        W38755   8.118  12.184   2.205  0.0428  0.1206  0.0762
19902W        W38756  12.486  11.396  13.538 -0.1475  0.1198  0.0153
19903W        W38757  12.593  14.917   0.499 -0.0750  0.1023  0.1535
19904W        W38758  12.873  18.314   0.591 -0.0369 -0.0237  0.0896
19905W        W38759  14.293   7.141   2.888  0.0775 -0.3400  0.2768
19906W        W38760   8.104   2.583   3.559  0.0479 -0.0093 -0.2468
19907W        W38761  14.752   4.471  13.166 -0.0689 -0.0107  0.0039
19908W        W38762   7.290  17.972   2.266  0.2573  0.1760  0.0555
19909W        W38763   8.237  13.344  10.772 -0.1535 -0.0982  0.2324
19910W        W38764  12.592  12.630   0.004  0.3200  0.4768 -0.3220
19911W        W38765  11.069  17.130   0.648 -0.2275 -0.0193 -0.0121
19912W        W38766   9.948   2.538  13.806 -0.2938  0.3581 -0.3433
19913W        W38767  13.785   2.854   0.320 -0.0620 -0.0228  0.1394
19914W        W38768   5.301   6.597   1.653  0.1635 -0.0314 -0.1875
19915W        W38769  13.643   9.803  11.553  0.1099  0.1713 -0.1267
19916W        W38770  16.030  14.742  14.111 -0.0598 -0.0002  0.0858
19917W        W38771  17.106   8.193   0.807 -0.0993  0.1219  0.0510
19918W        W38772   1.241   4.888  12.648  0.0152 -0.3306 -0.0988
19919W        W38773   5.334  11.119  13.334 -0.0018  0.0002  0.0306
19920W        W38774  18.143  11.912   0.113 -0.0072  0.0811  0.1477
19921W        W38775  14.277  17.311  10.402  0.3357  0.2434  0.4222
19922W        W38776  18.631  10.099   3.826  0.1958  0.3372 -0.1350
19923W        W38777  14.805   3.544   1.741  0.0107 -0.2305 -0.0539
19924W        W38778  16.101  12.289  13.122 -0.0490 -0.2994  0.1803
19925W        W38779  13.610   7.838  10.154 -0.1151 -0.1862  0.0005
19926W        W38780   8.756   2.194  11.703 -0.0080 -0.0600 -0.2019
19927W        W38781   2.164  11.991   2.872 -0.2759 -0.4918  0.1607
19928W        W38782   3.115   8.405  10.919 -0.0743  0.4417 -0.1490
19929W        W38783  17.704   8.727  12.078 -0.0316  0.0759 -0.0684
19930W        W38784   8.153   2.032  14.687 -0.2065  0.1259 -0.0441
19931W        W38785  15.172   3.572  11.992  0.1072 -0.1800  0.1678
19932W        W38786  14.786   8.600   0.621 -0.1282 -0.0272 -0.1317
19933W        W38787   2.457   1.257   0.091  0.1346 -0.2319  0.3336
19934W        W38788  13.734   8.328   0.610  0.1063 -0.1722 -0.2970
19935W        W38789  10.590   9.727   1.516  0.0027  0.4345  0.0760
19936W        W38790  10.609  11.840  14.029 -0.0370  0.1389 -0.1862
19937W        W38791  12.529   0.475   2.335 -0.0034  0.0404  0.0828
19938W        W38792  16.608   8.852   0.554  0.1283 -0.5018  0.0917
19939W        W38793  15.327  18.912  12.795 -0.0383 -0.2125 -0.1372
19940W        W38794  18.245   5.016   3.992  0.0460  0.2449  0.3987
19941W        W38795   1.042  15.461   4.451  0.1779  0.1578  0.0118
19942W        W38796   8.590   9.610   4.103  0.0533 -0.1625 -0.0908
19943W        W38797  17.448   7.798  12.429  0.1815 -0.1173  0.2738
19944W        W38798  12.650   1.921  13.438  0.2086  0.1430  0.0104
19945W        W38799   8.151   6.223   1.944  0.0331 -0.3769  0.1976
19946W        W38800  11.630  16.479   0.481  0.3417 -0.1049  0.1310
19947W        W38801   2.103  12.056   0.282 -0.1904 -0.1427  0.1925
19948W        W38802   0.245  13.437  13.027  0.2464 -0.0830  0.2524
19949W        W38803  16.643   1.246  13.506 -0.1530 -0.0987  0.0827
19950W        W38804  12.196   6.693   0.011  0.0689  0.2916 -0.0656
19951W        W38805   6.206  13.387   3.820  0.3972  0.2030 -0.2231
19952W        W38806   2.078  11.474  12.011 -0.0015  0.1901  0.1797
19953W        W38807   7.415  13.369  13.920  0.1146 -0.0938 -0.1356
19954W        W38808   1.179  13.608   0.137 -0.2902 -0.3388 -0.0446
19955W        W38809   3.663   4.725   2.705  0.2520  0.1239  0.2365
19956W        W38810   3.780   4.586   3.229 -0.2159  0.0244 -0.0113
19957W        W38811  11.369  16.320   9.977  0.3731  0.0326 -0.0806
19958W        W38812  12.282   0.641   5.119  0.0043  0.1500  0.1373
19959W        W38813   9.450  19.033  13.871 -0.2742  0.0642  0.2360
19960W        W38814  18.935   8.905  14.230 -0.0999 -0.3254 -0.0828
19961W        W38815  18.506  12.737  14.261 -0.4118  0.1492 -0.0375
19962W        W38816  11.355   5.630  11.318 -0.0448  0.0234 -0.0854
19963W        W38817  10.426  16.143  12.314 -0.1110  0.4290 -0.0796
19964W        W38818  11.643   6.820   1.702 -0.0210 -0.3864 -0.0536
19965W        W38819   2.686   1.852  14.138  0.1280 -0.1832  0.0133
19966W        W38820   8.228  15.453   0.545  0.0080  0.0813  0.0253
19967W        W38821   7.965  13.957  12.948 -0.0664 -0.2535  0.1386
19968W        W38822   5.921   5.472   0.437 -0.1306 -0.2860 -0.0603
19969W        W38823   0.574  14.841  10.564  0.2943 -0.1328  0.2334
19970W        W38824   4.603   8.030  11.347  0.1452  0.0747 -0.2633
19971W        W38825   1.623  18.744   3.900  0.1149  0.0429 -0.1174
19972W        W38826  11.793  10.131  10.978 -0.3797 -0.1241  0.1700
19973W        W38827  15.975   5.875  14.335 -0.0693  0.1261  0.2712
19974W        W38828  12.133  18.061   3.695  0.0009 -0.2150  0.2585
19975W        W38829   7.593   6.050  14.145 -0.2475 -0.0391 -0.1293
19976W        W38830   8.833   8.270  10.817 -0.1242  0.2633  0.2628
19977W        W38831   1.106  11.376   3.892  0.1363 -0.1134  0.0350
19978W        W38832  13.746   6.528  10.357  0.2711 -0.0069 -0.0088
19979W        W38833  10.633   8.767  12.860  0.1912 -0.1887  0.1803
19980W        W38834   1.872   6.733  13.830 -0.0221 -0.2700 -0.1470
19981W        W38835  18.380   1.983   2.306 -0.0763  0.0939  0.0901
19982W        W38836   6.187  16.508  11.471  0.1364 -0.3701  0.2721
19983W        W38837  16.316  13.970  10.207 -0.2157 -0.0745 -0.1980
19984W        W38838  15.835   6.138   4.073  0.0683  0.2191  0.1927
19985W        W38839   2.300   6.972  12.883  0.1621 -0.0260  0.3988
19986W        W38840  12.464   9.300   1.950 -0.0325 -0.2262 -0.0888
19987W        W38841   9.022  15.227   1.383  0.0437 -0.0005 -0.0208
19988W        W38842   1.536   8.488   4.027  0.0203  0.0726 -0.0236
19989W        W38843   7.167  17.975  12.886  0.1503 -0.2474  0.1392
19990W        W38844  17.508   5.591   9.193 -0.0871 -0.1734 -0.0192
19991W        W38845  11.576   7.853  13.103  0.0916  0.0018 -0.0037
19992W        W38846  12.542   8.389   1.554 -0.0964 -0.0591  0.1795
19993W        W38847  18.713   2.047   3.886  0.1037  0.1232 -0.0908
19994W        W38848   1.445   5.532  12.539 -0.1530  0.0925  0.0368
19995W        W38849  18.706   0.551  10.061 -0.0540  0.0500  0.0658
19996W        W38850  13.165   2.486   4.150 -0.1424  0.1993  0.3618
19997W        W38851  18.376   2.669   2.495  0.4519 -0.2534  0.2368
19998W        W38852   4.308  10.700  11.870  0.1433 -0.0551  0.0678
19999W        W38853   8.449  10.047  13.831 -0.2485 -0.0192  0.1619
20000W        W38854   3.530  16.087   1.172  0.0725  0.0756 -0.3494
20001W        W38855   1.282   0.201  11.351  0.0165 -0.0895 -0.0897
20002W        W38856   4.950   5.414  14.459  0.0421 -0.3546 -0.0952
20003W        W38857  12.490   9.146   4.738 -0.2664 -0.2664 -0.1864
20004W        W38858   3.567  12.181   0.505 -0.4651 -0.0162 -0.1931
20005W        W38859   7.114  10.556  11.737 -0.4475 -0.0461 -0.2804
20006W        W38860   5.941  16.151   3.240 -0.1183 -0.1164 -0.0690
20007W        W38861   4.303  18.296   0.772 -0.1822 -0.0708  0.1070
20008W        W38862   4.033   1.997   2.968  0.2782  0.3722  0.2317
20009W        W38863   5.517   4.816   3.116 -0.0832  0.0017  0.0484
20010W        W38864  10.105   8.067   4.114  0.0006 -0.0397  0.2015
20011W        W38865   8.898  17.911  14.504 -0.0161 -0.0723  0.0677
20012W        W38866   8.776   7.583   1.946 -0.1592  0.1262 -0.0224
20013W        W38867   0.443  12.236   4.688  0.0958 -0.0996 -0.1658
20014W        W38868   6.602  18.622  14.550  0.1377  0.0378  0.0027
20015W        W38869   5.939  15.091  14.164 -0.2877 -0.3856  0.0246
20016W        W38870   3.839   6.524  12.039  0.1857 -0.3094  0.2816
20017W        W38871   2.639   5.890  10.316  0.1055  0.0874  0.4425
20018W        W38872   3.784  10.665  10.961  0.0212 -0.1935  0.3741
20019W        W38873  14.070  14.300  13.140 -0.0060  0.0112 -0.1341
20020W        W38874   2.914   9.944  12.044  0.0554  0.2436  0.0667
20021W        W38875  12.453   0.248   1.775  0.5451 -0.3460  0.2267
20022W        W38876   8.346   7.438   2.273  0.1684  0.1529 -0.0627
20023W        W38877  11.535   0.153   3.359 -0.0170 -0.1733 -0.3166
20024W        W38878   6.732   6.414   2.809 -0.1631 -0.2393 -0.1703
20025W        W38879   9.916  15.839  12.651  0.0199  0.0571 -0.0833
20026W        W38880   8.655  15.200  12.720 -0.1685 -0.2807  0.1265
20027W        W38881   8.812  11.269  14.372 -0.2483 -0.1028  0.1283
20028W        W38882  14.620   1.288  10.852  0.1209 -0.0416  0.0658
20029W        W38883  12.230   3.066   2.120 -0.1661  0.0788 -0.0435
20030W        W38884  10.571   8.720   3.580 -0.0001 -0.0248  0.1351
20031W        W38885  18.387   8.052   0.428 -0.1063 -0.0627  0.2202
20032W        W38886  10.407   0.752  14.692  0.1055  0.1790 -0.1046
20033W        W38887   0.648  14.828   4.106 -0.0205  0.0589  0.3477
20034W        W38888   9.957   1.637   1.235 -0.1994 -0.1714  0.3096
20035W        W38889  13.802  12.078  14.563  0.0676 -0.3011  0.1434
20036W        W38890   5.096   9.121  12.564 -0.1558  0.3653  0.1419
20037W        W38891  12.138  11.971  12.122 -0.0754  0.1313  0.0391
20038W        W38892   3.646   6.208   3.036 -0.0170 -0.1653  0.1702
20039W        W38893  13.025   7.088  14.527 -0.0246  0.0766  0.2274
20040W        W38894  13.081   6.636  11.066 -0.0171  0.1011 -0.0606
20041W        W38895   2.537   9.288   3.450  0.2539  0.1839  0.0270
20042W        W38896   8.817  12.170   3.195  0.3018  0.2328  0.2567
20043W        W38897  14.667   5.254  11.920 -0.3481 -0.1568  0.1713
20044W        W38898   6.506   4.270  13.657 -0.1682  0.1492  0.0313
20045W        W38899  15.788  19.147   3.369 -0.0056 -0.1706 -0.0766
20046W        W38900   1.796  16.003  14.281 -0.1793  0.1544  0.1488
20047W        W38901   8.767   8.078   3.951  0.2154  0.1318 -0.0765
20048W        W38902  18.982   7.645   0.610  0.0561 -0.1411 -0.0503
20049W        W38903   6.616   8.438  13.013 -0.1334  0.1601  0.0266
20050W        W38904   2.037   1.870   1.347 -0.1515  0.1089 -0.0795
20051W        W38905  18.863   9.862   0.794  0.0006 -0.2630  0.1177
20052W        W38906  10.939   2.542  11.423 -0.1755  0.0445  0.0538
20053W        W38907  13.921  18.471   2.721 -0.1115  0.3094 -0.2960
20054W        W38908   4.319  16.904   4.867 -0.1287  0.0990 -0.0838
20055W        W38909   4.458  18.860  11.183 -0.0871 -0.0528  0.1530
20056W        W38910   4.223  11.956   4.050 -0.0119 -0.2985  0.2719
20057W        W38911  14.849   9.346  13.528  0.0062  0.0946 -0.2640
20058W        W38912  15.847   3.732  13.192 -0.1199 -0.2845 -0.1398
20059W        W38913   4.971  15.297  10.746 -0.0406  0.1204 -0.0715
20060W        W38914  10.121   7.613   3.484  0.0341 -0.1362  0.0188
20061W        W38915   5.155  15.603  11.316 -0.1675 -0.4179 -0.0052
20062W        W38916   7.840   2.126  14.277 -0.0249  0.0975 -0.1966
20063W        W38917   0.956   8.175   1.778  0.1547  0.1131 -0.0301
20064W        W38918  15.830   2.150  12.887 -0.1985  0.0059 -0.0874
20065W        W38919   5.018   5.596  11.974 -0.0627 -0.3424  0.1157
20066W        W38920  17.114  13.794   1.930  0.0057 -0.0088  0.2050
20067W        W38921  14.491  17.695  14.455 -0.2761  0.1054 -0.0029
20068W        W38922  13.242   6.917   2.427 -0.4552 -0.1895 -0.1960
20069W        W38923   6.804   6.139   2.437  0.1287 -0.0607 -0.0908
20070W        W38924  15.093  11.671   4.182 -0.1539  0.0753 -0.0598
20071W        W38925   8.386   7.079   3.695  0.1265 -0.2175  0.0246
20072W        W38926  13.462   7.514   1.592 -0.0497 -0.1008 -0.1126
20073W        W38927  15.806   7.454   2.428  0.1086  0.2755 -0.0761
20074W        W38928  18.626  14.824   2.382  0.1863 -0.1906  0.0666
20075W        W38929  13.741   8.089   1.089  0.2857  0.0102  0.2295
20076W        W38930  10.853   6.572  11.840 -0.0937 -0.2096 -0.0949
20077W        W38931   7.014   2.278  11.664 -0.4792 -0.2001 -0.2742
20078W        W38932  10.086  18.291   3.824  0.0808 -0.0473 -0.0559
20079W        W38933   0.236   1.969  13.973 -0.0905  0.1438  0.0362
20080W        W38934  14.264   2.660  11.868 -0.1530  0.0374  0.0616
20081W        W38935  12.831   5.282   2.638 -0.1728 -0.1687 -0.0906
20082W        W38936   3.171   6.716  14.550  0.0577  0.2859  0.0965
20083W        W38937  12.761  13.594   1.300 -0.2724  0.0935 -0.0518
20084W        W38938  12.913   1.640   1.438 -0.1880 -0.1920 -0.1072
20085W        W38939  14.718  17.495  13.991 -0.0269  0.2405 -0.1071
20086W        W38940  13.298   4.738   2.009  0.1061  0.0230  0.0578
20087W        W38941   0.124  17.328   5.044 -0.0226  0.1958 -0.2013
20088W        W38942  16.802   5.890  10.602  0.0703 -0.1399  0.1898
20089W        W38943  11.179  17.743   2.785 -0.1259 -0.1507 -0.1768
20090W        W38944  16.991   9.150  11.861  0.1384 -0.2279 -0.0733
20091W        W38945  11.954  13.978   3.663 -0.1012 -0.1454 -0.1721
20092W        W38946   6.813   9.741   4.254  0.1279 -0.1660 -0.1140
20093W        W38947   4.502   7.782   1.007 -0.2536  0.0249  0.1503
20094W        W38948  16.585   7.234   1.185 -0.1766  0.2487 -0.1860
20095W        W38949   3.238  13.457  11.090 -0.1980  0.1141  0.0441
20096W        W38950  10.386  16.906   1.139  0.0719 -0.0185 -0.0768
20097W        W38951   9.939   9.132  14.418 -0.0455 -0.2951 -0.0796
20098W        W38952  16.038   0.368  11.437 -0.2613 -0.1353 -0.2174
20099W        W38953  14.400  10.069  11.067 -0.0235  0.0068  0.2974
20100W        W38954  11.400   2.569  12.286  0.0351 -0.3979  0.0895
20101W        W38955   8.892   5.714  12.666 -0.1698  0.1876  0.2195
20102W        W38956  15.040  14.327  14.224  0.0674 -0.2612 -0.1562
20103W        W38957   1.997   0.373   1.589  0.1865 -0.2621  0.2681
20104W        W38958  17.824   1.998   0.311  0.0931  0.1137 -0.1347
20105W        W38959   1.393   8.592   5.361 -0.4226  0.0863 -0.3964
20106W        W38960  12.086   4.580   1.000 -0.0453  0.0058 -0.0381
20107W        W38961   1.126  11.765  14.648  0.2540  0.0667 -0.0636
20108W        W38962   7.982   1.696  13.517  0.2292  0.0616 -0.0549
20109W        W38963   7.844   8.105   1.364 -0.1656  0.0996  0.0188
20110W        W38964   6.958   6.075  12.704 -0.0928 -0.2413  0.0407
20111W        W38965  10.356   5.137   4.033  0.2744  0.1839 -0.0243
20112W        W38966  19.108   3.511   1.636  0.2975 -0.1951  0.0660
20113W        W38967   4.322  11.940  10.823 -0.1394 -0.1196  0.1503
20114W        W38968   3.561  13.582   2.922 -0.1307 -0.0326 -0.0689
20115W        W38969  10.217  15.708  13.066 -0.3906  0.1568  0.0371
20116W        W38970  11.712   0.565   5.167  0.1914 -0.1735  0.1498
20117W        W38971  16.110   1.522   4.078  0.1881  0.1095 -0.3121
20118W        W38972  16.867   7.597   0.644 -0.1895  0.0051  0.1359
20119W        W38973   7.531  16.799   1.407 -0.0385  0.1044  0.1620
20120W        W38974  10.122   9.839   1.878  0.3342  0.0699  0.1319
20121W        W38975   2.407  14.462  13.958  0.1381 -0.0576 -0.0877
20122W        W38976   8.445   7.471  13.979  0.2706 -0.0016  0.1141
20123W        W38977   3.093  12.982  10.822 -0.3046  0.0278  0.0845
20124W        W38978  10.082   7.114  11.096  0.3227  0.1173 -0.0220
20125W        W38979  11.365   2.653   2.038  0.1243  0.1544 -0.0607
20126W        W38980   8.139   8.137  12.331  0.1726  0.2149  0.1132
20127W        W38981  10.600   3.125  13.194  0.0929 -0.2046  0.2211
20128W        W38982  11.855   2.276   4.726  0.0894 -0.2623 -0.1895
20129W        W38983   0.268  16.861  11.635 -0.2405 -0.1082 -0.1784
20130W        W38984  16.737  10.210   0.274  0.0348 -0.0585 -0.0382
20131W        W38985  17.491  10.252   3.182  0.1409  0.0550 -0.0555
20132W        W38986  19.010  17.464  13.421 -0.3799  0.1080  0.0473
20133W        W38987  16.412  17.093  13.028  0.0914  0.0187  0.1827
20134W        W38988   4.988  18.384   2.409  0.0346  0.1100  0.2755
20135W        W38989  17.266  17.360  12.104 -0.0761 -0.1255  0.0692
20136W        W38990   8.845   1.576  14.495 -0.1584  0.0688  0.3029
20137W        W38991   7.779   2.220  12.071 -0.3796  0.2908 -0.2537
20138W        W38992  14.518  11.685  14.628 -0.3604  0.1789  0.1202
20139W        W38993  15.327  13.837   4.290 -0.0921 -0.1008 -0.0718
20140W        W38994   4.831  14.535  11.210  0.0213 -0.1601  0.1660
20141W        W38995  14.847  17.140   2.129  0.0369 -0.2198  0.0944
20142W        W38996  15.386   8.402   1.350 -0.0232 -0.0237 -0.0355
20143W        W38997   4.710  19.103   3.751 -0.1655 -0.0089  0.1750
20144W        W38998   3.617  13.751   3.849  0.1098  0.0548  0.0440
20145W        W38999  11.971  16.563   2.766  0.1642 -0.0728  0.0300
20146W        W39000   1.142  11.527  10.951  0.1464  0.2596  0.0344
20147W        W39001  11.877   8.046  12.191  0.0739  0.0389 -0.2377
20148W        W39002  13.064   1.750  13.257  0.5150 -0.0159  0.4220
20149W        W39003   2.676  14.507  10.953  0.0931  0.2709  0.1847
20150W        W39004   1.491  15.378  13.174  0.1995 -0.1444  0.2590
20151W        W39005  15.927   3.822  13.899 -0.4959  0.0880  0.3243
20152W        W39006   2.239  15.605  12.316 -0.0583  0.0549  0.1000
20153W        W39007  13.774   3.987  13.648 -0.1983 -0.0566  0.0644
20154W        W39008  19.081   3.230  13.550  0.1348  0.3070  0.3268
20155W        W39009  16.041  19.171  11.113  0.1861 -0.0393 -0.0474
20156W        W39010   9.739  18.747  12.283 -0.1533 -0.0690 -0.3253
20157W        W39011   3.882   3.542  10.381 -0.1335 -0.1668  0.1211
20158W        W39012   6.686  10.696   1.412  0.1976  0.2458 -0.1078
20159W        W39013  17.629   7.607  13.790 -0.2410 -0.1476  0.2472
20160W        W39014  11.227  10.690   2.378  0.0513  0.0837 -0.1836
20161W        W39015   1.202  17.938  13.813  0.1217  0.1287 -0.1450
20162W        W39016  15.544  15.887  11.766  0.0231  0.0291  0.0979
20163W        W39017   7.288   5.582   1.961 -0.1962  0.0807 -0.1944
20164W        W39018  13.642   7.644   3.005 -0.1349  0.0938  0.0543
20165W        W39019   4.328   1.354   2.137  0.1400 -0.1963 -0.1767
20166W        W39020  17.529   1.881  12.099  0.0174 -0.0261  0.1451
20167W        W39021  12.907  17.375   2.090 -0.0633  0.2419  0.0693
20168W        W39022  12.011  11.640  13.417  0.0817 -0.2310 -0.1133
20169W        W39023   2.445   6.797   4.841 -0.0381 -0.0453 -0.0777
20170W        W39024  18.867  18.085  12.294  0.1741  0.0141  0.1660
20171W        W39025   7.642   6.580  13.440  0.0119 -0.1367  0.1837
20172W        W39026   8.000  15.693  14.329 -0.1917 -0.0483 -0.1746
20173W        W39027   1.820   8.117   0.846  0.3374 -0.1183 -0.0622
20174W        W39028  15.380  14.535   2.456  0.3023  0.1647 -0.0656
20175W        W39029   5.151  16.799  11.696 -0.0400 -0.2091 -0.0081
20176W        W39030   7.801  13.532  10.613 -0.0815 -0.1595  0.0946
20177W        W39031   6.583   7.401  14.731 -0.1204 -0.1121 -0.0926
20178W        W39032  10.838  13.248  12.077 -0.0133 -0.2215 -0.0084
20179W        W39033   4.248  13.670  12.952 -0.1198 -0.2557 -0.0762
20180W        W39034   6.654  13.959   4.301  0.1868 -0.0025  0.0665
20181W        W39035  11.238  10.515   1.381 -0.1037 -0.0975  0.1544
20182W        W39036   5.044  18.009   3.450  0.0819  0.2904 -0.2690
20183W        W39037   7.972   3.038   1.890 -0.1320 -0.1503  0.4010
20184W        W39038  12.887  10.670  13.439 -0.0323 -0.0805  0.1026
20185W        W39039  19.013  13.926   4.003 -0.3161  0.0211 -0.2854
20186W        W39040  11.879  14.777   2.041  0.0408 -0.0850  0.0879
20187W        W39041  15.410   8.007   5.026  0.1636  0.1062 -0.3334
20188W        W39042  10.721  14.961  13.730  0.3346  0.1400  0.0467
20189W        W39043  17.359  14.504  13.384 -0.0677  0.2057 -0.1129
20190W        W39044  15.930  13.022  13.200 -0.1879 -0.2654 -0.0259
20191W        W39045   1.572   2.764  13.049 -0.0060  0.0690 -0.0930
20192W        W39046  16.085  13.719  12.515  0.0256 -0.0827 -0.0259
20193W        W39047  13.120   1.013  14.247  0.1471 -0.1629 -0.1429
20194W        W39048  14.976  11.586  13.889 -0.0215  0.2567  0.0422
20195W        W39049   2.321   7.496  11.801  0.1140  0.0859 -0.2178
20196W        W39050   7.955  14.610  14.126 -0.1689  0.0623 -0.2351
20197W        W39051  10.384  16.677  12.461 -0.1875  0.0604  0.3894
20198W        W39052  15.698   5.653  13.466 -0.0488  0.0893 -0.0389
20199W        W39053  13.226  16.458   2.265  0.0554 -0.0182  0.1497
20200W        W39054  12.999  17.726  12.680  0.0154  0.2576  0.0295
20201W        W39055  18.066  16.061  11.003  0.2013 -0.1377 -0.1165
20202W        W39056  19.141   3.699   1.142  0.1119 -0.1486 -0.0044
20203W        W39057  11.405   7.200   3.843 -0.1954 -0.1206  0.1612
20204W        W39058   8.410   0.183   1.199  0.0011 -0.1637 -0.4133
20205W        W39059   4.437   1.703  10.825 -0.1630  0.1031  0.0992
20206W        W39060  12.346  13.403   1.700  0.0852 -0.0016 -0.1304
20207W        W39061   8.823  16.076  11.131 -0.2223  0.0882 -0.4145
20208W        W39062  13.291  10.354  13.287  0.2350  0.1625  0.1125
20209W        W39063  17.334   2.408  10.739  0.2049  0.1084 -0.2671
20210W        W39064   6.151   8.995  14.701  0.2616  0.0246 -0.1463
20211W        W39065   2.763   6.205   4.214 -0.1632 -0.0629  0.5098
20212W        W39066  11.975   1.211  13.353 -0.1100 -0.2285 -0.0430
20213W        W39067  17.680  13.288  10.968 -0.3016 -0.0395  0.1759
20214W        W39068  15.992  14.013   1.818 -0.0002 -0.2025 -0.2455
20215W        W39069  11.430  11.866   2.815 -0.3087  0.0730 -0.1305
20216W        W39070  12.705   2.033   2.949 -0.0044  0.1053 -0.3820
20217W        W39071  18.463   2.999   1.654 -0.2424  0.0878  0.0102
20218W        W39072   0.770  12.388   4.303  0.2125  0.2937  0.2943
20219W        W39073  14.378  11.936   3.125 -0.0376 -0.0072 -0.1931
20220W        W39074   2.051  19.020   0.296 -0.2755  0.1311 -0.2202
20221W        W39075   5.414  10.549  14.697  0.0773  0.1317 -0.0563
20222W        W39076   4.235  13.272  14.426  0.2196  0.2436 -0.1440
20223W        W39077  18.648  12.621   4.494 -0.0182 -0.0349  0.2814
20224W        W39078  10.370  10.643  12.842  0.0205  0.1891 -0.2816
20225W        W39079   8.939  12.010   3.691 -0.0430  0.3327  0.1750
20226W        W39080   2.513   1.507  12.862 -0.2241  0.3631  0.1087
20227W        W39081   7.341   1.682   9.337  0.1186 -0.1048  0.1165
20228W        W39082  18.771   5.822   3.247  0.2735 -0.2580 -0.2022
20229W        W39083   2.472   2.084   4.414 -0.1337  0.1143  0.4555
20230W        W39084  16.027   3.648   0.940  0.1829  0.2145  0.2959
20231W        W39085   0.804   9.679   3.592 -0.1651 -0.1050 -0.2649
20232W        W39086  11.245   7.972  14.240  0.3015  0.0771 -0.2389
20233W        W39087   9.097  14.551  11.213 -0.0372  0.1963 -0.1949
20234W        W39088   5.166   0.185  12.422  0.1754 -0.1245 -0.1187
20235W        W39089  12.680  14.787  12.598 -0.0295  0.2935  0.3989
20236W        W39090  10.577   1.392  14.726  0.0584 -0.0329  0.2253
20237W        W39091  13.557  13.788  12.644  0.0550  0.0531 -0.0931
20238W        W39092   8.061  11.372   1.026 -0.2106 -0.1320 -0.0498
20239W        W39093  14.679   0.908  11.768  0.0418 -0.1433 -0.0524
20240W        W39094  12.004   9.344   0.679 -0.2625 -0.0189  0.1712
20241W        W39095  10.243  12.287   0.194  0.2892 -0.1807  0.2031
20242W        W39096  17.115  14.407  12.891 -0.1104  0.0099  0.2887
20243W        W39097   2.772   9.088  12.249  0.2896 -0.0730  0.1386
20244W        W39098  17.792  17.466   3.858  0.1888 -0.0081 -0.2129
20245W        W39099  15.913  11.448  12.694  0.0813  0.0949  0.0164
20246W        W39100   9.677   3.549   2.075 -0.1259 -0.3391 -0.1714
20247W        W39101   5.826  17.644   4.211  0.1192  0.2896  0.0223
20248W        W39102  10.160   1.626  13.243 -0.1733  0.2077  0.0547
20249W        W39103   4.634  14.412  11.704  0.0693 -0.1329  0.1299
20250W        W39104   4.353  13.732  13.575  0.1216  0.1167 -0.2352
20251W        W39105  10.662   3.235  13.991  0.0388 -0.0920 -0.0081
20252W        W39106   7.739  14.722  13.644  0.0890 -0.0595  0.2842
20253W        W39107  14.851  10.606   3.437 -0.1152  0.2626 -0.1450
20254W        W39108   7.213  18.809  14.234  0.1275  0.3205 -0.2014
20255W        W39109  13.803   1.425   2.589 -0.2089  0.2149 -0.0370
20256W        W39110  17.666   0.831   0.068 -0.0655 -0.1903  0.2294
20257W        W39111  13.142   3.763   2.386 -0.1151 -0.1411 -0.0270
20258W        W39112   7.362  15.124   0.101 -0.1370  0.1391  0.1294
20259W        W39113   4.217  19.181  10.824  0.1504  0.2129 -0.1243
20260W        W39114   3.280  18.310   1.942 -0.0172  0.1917 -0.1189
20261W        W39115   6.452  10.582   1.915 -0.3615 -0.3626  0.0901
20262W        W39116  15.469   4.604   0.666 -0.1684  0.5794  0.1117
20263W        W39117  13.830   3.615   0.583  0.0155 -0.0624 -0.3543
20264W        W39118  19.132   4.086  13.443  0.3458  0.0388 -0.1294
20265W        W39119   2.087   4.023   4.412 -0.2064 -0.1207  0.1806
20266W        W39120  14.598   8.393  14.469 -0.1116 -0.0210  0.0119
20267W        W39121   9.197  16.335   1.774 -0.0637 -0.0620  0.0661
20268W        W39122   1.993   5.008   4.300  0.3364  0.0555 -0.1466
20269W        W39123  15.654   0.798   0.793  0.0311 -0.0254 -0.2426
20270W        W39124   8.354  10.989   2.852 -0.0524 -0.0372 -0.0431
20271W        W39125  15.402   8.227  12.123  0.2652 -0.0373  0.0692
20272W        W39126  13.299   3.511  12.105 -0.2746 -0.3553  0.1956
20273W        W39127  15.906   9.249   3.005 -0.1566  0.0809  0.0294
20274W        W39128  15.077   4.319  11.904 -0.1904 -0.3518 -0.0634
20275W        W39129  18.864  15.862   2.445 -0.0319 -0.1748  0.0521
20276W        W39130  15.166   4.509   1.051  0.2715  0.0222  0.2088
20277W        W39131  15.627   2.587  11.807  0.0325 -0.0331 -0.0775
20278W        W39132   5.718  13.688  11.197  0.2489  0.0148  0.0075
20279W        W39133  17.898  10.788   1.891 -0.1136  0.1768 -0.4186
20280W        W39134  13.528   4.520   0.336  0.2527 -0.4139 -0.1717
20281W        W39135  17.636  14.551   9.677 -0.3159  0.2481  0.1300
20282W        W39136  18.993  19.015  12.378  0.3819 -0.0332  0.0420
20283W        W39137  18.306   2.817  12.484 -0.1171  0.0975  0.0225
20284W        W39138   0.057   1.159   4.516  0.0057 -0.3090 -0.1180
20285W        W39139  17.520   7.991   3.711 -0.2135  0.1546  0.1900
20286W        W39140  12.858  14.209  13.256 -0.0846 -0.0315 -0.2870
20287W        W39141  16.589   3.402  13.473  0.1660  0.0139  0.0050
20288W        W39142   2.023  10.619  13.487  0.0058  0.1736  0.2621
20289W        W39143   6.520  17.403   1.363  0.1281 -0.1666 -0.2386
20290W        W39144  18.872  13.540  11.064  0.1351 -0.1705 -0.4125
20291W        W39145  18.426   1.086  11.706 -0.1009  0.1230  0.1519
20292W        W39146   2.655  11.102   3.910 -0.2027 -0.0506  0.0487
20293W        W39147   9.314   2.804   1.608  0.1189 -0.0070 -0.2988
20294W        W39148  17.572  11.049  14.529  0.1476  0.2612 -0.3032
20295W        W39149   8.463  10.134  12.631 -0.1044 -0.0316  0.0431
20296W        W39150  13.003  11.838  14.348  0.0567  0.0827 -0.1177
20297W        W39151   8.320  14.825  12.270  0.2630 -0.1967 -0.2469
20298W        W39152  18.484  15.913  14.213 -0.0435 -0.1290  0.2446
20299W        W39153  18.830  19.048  13.251  0.1562  0.4615  0.2086
20300W        W39154   5.300   3.824  11.571  0.3196  0.3176  0.3058
20301W        W39155   2.155   0.156   0.682 -0.1230 -0.1557 -0.0191
20302W        W39156   9.015   0.743   0.198 -0.3369  0.2563  0.0030
20303W        W39157   1.249   1.269   3.389  0.1403  0.0049 -0.0134
20304W        W39158   9.017  14.271  12.986  0.0768  0.0748  0.3694
20305W        W39159  16.931  15.366   0.734 -0.0557  0.1463 -0.1616
20306W        W39160  16.959  11.488  12.465  0.0764 -0.1220 -0.0583
20307W        W39161   5.532  17.348  13.005 -0.0623 -0.3354 -0.0249
20308W        W39162   4.389  18.346   3.077 -0.0334  0.1826 -0.2822
20309W        W39163   3.089   7.501  11.779 -0.0168  0.1162 -0.0020
20310W        W39164   4.086  11.515   3.575  0.0686  0.0910 -0.1653
20311W        W39165  13.416  13.182   0.686  0.1602 -0.0667  0.1541
20312W        W39166  12.413   5.307  14.501  0.2763 -0.5315  0.1632
20313W        W39167   7.602  11.005   4.769 -0.4797 -0.0846  0.1380
20314W        W39168   2.952  12.108   3.209 -0.0033 -0.1841 -0.0460
20315W        W39169   7.088  13.557   2.908  0.1881  0.1957 -0.0458
20316W        W39170   3.916   4.203  12.666  0.1644  0.1532 -0.1900
20317W        W39171  15.072   8.369  14.196 -0.1644  0.4404  0.2203
20318W        W39172  15.565  10.931  14.382 -0.0125  0.1539 -0.1149
20319W        W39173  14.861   5.599   4.579 -0.0203  0.2824  0.3333
20320W        W39174   8.070  13.810  14.433 -0.0865 -0.1879 -0.3535
20321W        W39175  10.389   0.313  14.478 -0.0648  0.3813  0.0928
20322W        W39176   5.241   8.573   0.824 -0.1614  0.1892 -0.1921
20323W        W39177  18.797   3.240  11.870 -0.2260 -0.1527 -0.2639
20324W        W39178   3.501  10.581  14.038 -0.0939  0.0962  0.2813
20325W        W39179  11.615  15.637  10.372 -0.1927  0.0402 -0.0069
20326W        W39180   0.086  16.409  14.120 -0.1333  0.2993 -0.0557
20327W        W39181   0.763   2.237   0.697 -0.2606  0.2224  0.2658
20328W        W39182  14.407  13.875   2.378 -0.1051  0.0347 -0.0084
20329W        W39183   1.878  14.277   2.110 -0.0207  0.0445  0.0309
20330W        W39184   4.302  13.795   2.296  0.0734 -0.4703 -0.0819
20331W        W39185   2.669   6.747  11.426 -0.2416  0.2609 -0.0496
20332W        W39186   1.920  16.871   3.871 -0.0564  0.0135 -0.0472
20333W        W39187  17.577   1.074   0.839 -0.0552  0.1612 -0.1136
20334W        W39188   3.393   8.987   3.829  0.2796  0.3192  0.0578
20335W        W39189  14.545  12.273   2.204  0.0994  0.0450  0.1761
20336W        W39190  11.152   6.096   2.628 -0.3605 -0.1821  0.0363
20337W        W39191   9.032  11.587   3.913 -0.4649 -0.3061  0.0229
20338W        W39192   4.300  19.160   1.781 -0.1601 -0.0869  0.2448
20339W        W39193   1.153  18.307   0.578 -0.2360  0.1182  0.0250
20340W        W39194   5.786   0.468  11.149  0.1168 -0.0757 -0.2633
20341W        W39195   8.157   9.064   1.147  0.0736  0.0888  0.0484
20342W        W39196   2.634   4.064   5.142  0.3981  0.2317  0.2441
20343W        W39197  13.271   9.486   2.702  0.1851  0.2813 -0.0772
20344W        W39198  19.020  10.634  14.704  0.0839 -0.1945  0.1507
20345W        W39199   1.049   9.443   9.859  0.0658  0.0260  0.0612
20346W        W39200  11.140   8.211  13.430 -0.1462  0.0281  0.0262
20347W        W39201   6.853   5.574   9.394  0.0198  0.0213  0.2508
20348W        W39202   2.254   3.034  10.979  0.1105 -0.0168 -0.0476
20349W        W39203  14.362  14.742   1.809 -0.4338  0.1386  0.0231
20350W        W39204  11.813  10.343   4.878  0.0293  0.0921 -0.2812
20351W        W39205   6.503  18.874   3.760  0.0682  0.0158  0.1648
20352W        W39206   8.009   2.308   0.396 -0.0427  0.0698  0.1070
20353W        W39207  13.183   9.090  12.868  0.1327  0.2704 -0.0350
20354W        W39208  18.924   0.254   2.803  0.0656  0.2034  0.0762
20355W        W39209   8.345   7.410   2.758  0.1006  0.0189  0.0106
20356W        W39210  12.773   3.913  13.858  0.2074 -0.1817  0.1248
20357W        W39211  15.508  11.046   9.834 -0.2117 -0.0376 -0.0477
20358W        W39212   6.775   9.265   1.172  0.0238  0.1629  0.0637
20359W        W39213  12.899  16.496  14.332 -0.0131 -0.3383 -0.0640
20360W        W39214   1.467   0.349   1.604  0.0454 -0.2866 -0.4021
20361W        W39215  16.907  14.988   1.473  0.0232 -0.0352  0.2785
20362W        W39216  10.620   1.310  11.513  0.3407 -0.0292  0.2750
20363W        W39217  12.358   8.157   1.008  0.1252  0.0685  0.3265
20364W        W39218  11.300   6.623  13.969  0.0279  0.1496  0.1709
20365W        W39219   2.064   4.205   2.832 -0.3890 -0.0515 -0.1627
20366W        W39220  11.915  18.840  13.576 -0.1350 -0.1200  0.1720
20367W        W39221   0.227  12.626   2.907 -0.0661 -0.3455  0.0422
20368W        W39222  14.955  10.402  14.384  0.1362 -0.0391  0.1789
20369W        W39223  17.774   4.527  11.057 -0.0113 -0.3324  0.2891
20370W        W39224   5.781   7.483   4.073  0.0696 -0.1156 -0.2691
20371W        W39225  15.263   1.667   2.293 -0.0419 -0.2577  0.2768
20372W        W39226   8.723  15.544  11.997  0.0885  0.1347 -0.0693
20373W        W39227  15.744   7.890  11.360  0.0970  0.1078  0.0020
20374W        W39228  15.790  11.907  14.223  0.0674 -0.1661 -0.1141
20375W        W39229  17.805  14.811   4.045 -0.1921  0.1205  0.1842
20376W        W39230   9.221   9.916  11.028  0.1051  0.1426 -0.0974
20377W        W39231  10.285  10.367  14.404  0.0655 -0.0807 -0.1928
20378W        W39232   2.772  17.206  10.782  0.2433  0.1135 -0.1722
20379W        W39233   7.599  12.735   3.308 -0.1798  0.0916  0.0980
20380W        W39234  13.863  12.139  10.430 -0.0374  0.0709 -0.0721
20381W        W39235  16.560  15.447   2.204  0.0543  0.1041  0.1883
20382W        W39236  12.542   5.653   2.226 -0.1668  0.0547 -0.2151
20383W        W39237  10.743  12.680   2.329  0.3321  0.1239  0.0367
20384W        W39238  13.572   0.802   3.784 -0.0080 -0.1679  0.2203
20385W        W39239   5.361   5.869  12.233 -0.0200 -0.4169 -0.1859
20386W        W39240  16.016  11.662  12.238  0.0752  0.1938  0.0189
20387W        W39241  18.894  17.096   2.861 -0.2625 -0.2359 -0.0656
20388W        W39242   0.647   5.574  14.142 -0.1630 -0.2171 -0.0074
20389W        W39243   0.345  18.631   3.285  0.0162  0.0664 -0.0226
20390W        W39244  12.951  14.765   1.831 -0.3814  0.3151 -0.0076
20391W        W39245  16.684   8.939  11.100  0.0497  0.3445 -0.1981
20392W        W39246   4.230   5.653  11.645  0.2261  0.2785 -0.2366
20393W        W39247   4.405  12.463   1.889  0.1659 -0.1934  0.0645
20394W        W39248   4.843   1.413   0.650 -0.1340 -0.2352  0.0452
20395W        W39249   9.229   1.638   3.786 -0.0770  0.1872  0.1353
20396W        W39250  14.131  16.213   0.180  0.0831  0.0311 -0.1861
20397W        W39251   4.885   2.838  11.708  0.2023  0.2537 -0.1601
20398W        W39252   7.605  16.699  12.090 -0.0039  0.2328  0.0224
20399W        W39253   3.035   0.235   2.608  0.1429 -0.1383  0.1312
20400W        W39254  19.089  10.146   4.240 -0.0242  0.2663  0.1281
20401W        W39255  13.137   7.347   1.192 -0.1407 -0.2342 -0.0135
20402W        W39256  18.989   6.758  14.366 -0.1935 -0.0972  0.1865
20403W        W39257   4.149   4.858   9.757 -0.0020  0.3098  0.2372
20404W        W39258  11.462   5.324   1.025  0.0435 -0.0806 -0.3637
20405W        W39259   6.477  15.255  12.528 -0.1493 -0.2219 -0.2155
20406W        W39260  16.248  15.098  11.769  0.2021  0.0669 -0.1155
20407W        W39261   6.118  15.238   3.046  0.1829 -0.1590 -0.2048
20408W        W39262   5.571  12.294   1.407  0.3121 -0.4127 -0.0831
20409W        W39263   5.962  16.223   0.870 -0.1821 -0.3812  0.0711
20410W        W39264   5.481  12.453   2.763  0.0892  0.1688 -0.1222
20411W        W39265  12.420   2.715   5.341 -0.0327  0.4208  0.1517
20412W        W39266  15.259   5.612   3.287  0.0281  0.0651  0.0177
20413W        W39267  10.559   3.570  14.541 -0.0088 -0.3511  0.1716
20414W        W39268  15.738  18.946  12.317 -0.6177 -0.0517 -0.1980
20415W        W39269   6.399  13.014  14.131  0.2444 -0.4108 -0.0964
20416W        W39270   5.288   0.876  14.037  0.0911 -0.1671 -0.0912
20417W        W39271  18.849   4.156  11.843 -0.1379  0.3406  0.4229
20418W        W39272   1.329   5.788   3.642  0.3059  0.0604 -0.0861
20419W        W39273  15.982  11.858   0.368  0.1826  0.3552  0.1359
20420W        W39274  13.474   3.725  13.142  0.2140  0.2129  0.0387
20421W        W39275   6.437   6.822   9.926 -0.0086 -0.1449  0.0668
20422W        W39276   5.109   4.659   4.382 -0.1699 -0.0077 -0.0571
20423W        W39277  16.870   7.023  12.539  0.2137 -0.2482  0.2260
20424W        W39278   7.060   5.998  14.010  0.0649  0.2131  0.0216
20425W        W39279   8.172   9.817   1.643  0.2567 -0.0681 -0.2431
20426W        W39280   9.526   7.513   1.602 -0.0225  0.2725 -0.0616
20427W        W39281  15.401   1.264  12.958 -0.2726 -0.1104  0.1642
20428W        W39282  10.666   1.759   3.850  0.0333  0.1722  0.0205
20429W        W39283   6.394  17.214  14.052 -0.0647  0.0584 -0.0188
20430W        W39284  18.176  18.801   1.716 -0.3287  0.3338  0.2203
20431W        W39285  15.616  11.610   2.935 -0.0186  0.2610  0.0622
20432W        W39286   0.855   2.597   1.488 -0.0996 -0.1146  0.1211
20433W        W39287   1.673   4.028   1.241 -0.4137 -0.0752  0.0261
20434W        W39288  13.668  12.719   5.150 -0.0527 -0.2319  0.0481
20435W        W39289   1.089   0.725  12.902 -0.1188 -0.2959  0.1011
20436W        W39290  11.688  11.373  14.137  0.0615  0.3647  0.1864
20437W        W39291   5.696   7.440   0.984  0.2838  0.0679  0.0416
20438W        W39292   0.356   7.742  13.249  0.0554  0.2527 -0.1161
20439W        W39293   5.234   2.977   0.155  0.1645  0.0035  0.0100
20440W        W39294  17.291   4.550   3.928 -0.0461  0.3178 -0.1825
20441W        W39295  13.285   1.698  11.190 -0.3243  0.2126  0.0304
20442W        W39296   0.625   2.927  14.493  0.4223  0.4012 -0.0301
20443W        W39297   7.683   0.772   3.384 -0.0357  0.1957 -0.0651
20444W        W39298   2.431  12.431  12.508 -0.0916 -0.1938  0.2694
20445W        W39299  10.433   0.947   5.125  0.0029  0.0971  0.2742
20446W        W39300  16.045   2.086  14.520 -0.2173  0.0992 -0.1668
20447W        W39301  17.351   4.044   2.657 -0.1471 -0.0698 -0.0903
20448W        W39302  12.376  16.253   4.770 -0.0592 -0.1087 -0.0160
20449W        W39303  15.737   9.503  14.422 -0.0154  0.0369 -0.2413
20450W        W39304  13.366  11.042  12.219 -0.3621  0.0405 -0.1326
20451W        W39305  13.210  17.524  14.417  0.1273 -0.1972 -0.2530
20452W        W39306  18.290   4.923   3.107 -0.2692 -0.3938 -0.1553
20453W        W39307  10.793   8.165   3.285  0.2283  0.0072 -0.1686
20454W        W39308  10.104  17.696   0.000 -0.1205  0.0735  0.0002
20455W        W39309  12.870  16.705  10.748 -0.1022  0.2589  0.4240
20456W        W39310  16.325  10.547   3.754  0.1216 -0.1727  0.0556
20457W        W39311  16.888   7.558  11.717 -0.1486 -0.0606  0.3220
20458W        W39312   5.998   4.194   1.431 -0.0688 -0.1779 -0.0889
20459W        W39313   2.484  11.198  14.650 -0.1102  0.1046 -0.0673
20460W        W39314  11.925   7.232   2.793 -0.5920 -0.0710 -0.0971
20461W        W39315  10.445   7.921  12.948  0.0916  0.1834  0.1453
20462W        W39316  12.545  10.269  14.057  0.0785 -0.0684  0.0028
20463W        W39317   0.523  12.084   1.584 -0.0683  0.0452  0.1092
20464W        W39318  15.552   7.666  11.933  0.1339  0.1157  0.1317
20465W        W39319  11.724  14.210   2.069  0.2074  0.0028 -0.3380
20466W        W39320   2.893   0.436   1.312  0.1777 -0.0161  0.1011
20467W        W39321  15.865   9.987  11.026  0.1404  0.2545  0.0336
20468W        W39322   1.267   0.631   1.068  0.0279  0.3553  0.1523
20469W        W39323  16.858  15.004  11.922 -0.0967 -0.0585  0.0223
20470W        W39324  11.971  16.949   4.388  0.1038 -0.0091  0.2532
20471W        W39325  14.671   0.032   0.367 -0.0327  0.0808  0.0654
20472W        W39326   4.498   7.116  10.805  0.0696 -0.1639 -0.0847
20473W        W39327  15.197   7.490   1.369 -0.3087 -0.1316 -0.1433
20474W        W39328   0.655   9.068  14.453 -0.0042  0.1812 -0.0577
20475W        W39329   2.564  18.644   2.367  0.1372  0.0291  0.1606
20476W        W39330   0.584   2.473  14.704  0.0505 -0.1149  0.0865
20477W        W39331  14.802  11.891   2.473  0.0224  0.0556 -0.1225
20478W        W39332   8.490  16.408  14.525  0.0749 -0.0351  0.1503
20479W        W39333   4.939   9.317  13.039 -0.3126 -0.0356 -0.1585
20480W        W39334   5.268   6.242   2.175 -0.2367 -0.0188  0.0036
20481W        W39335  15.298  18.840   2.545 -0.0497  0.0286  0.2577
20482W        W39336  18.820   4.236   2.776  0.1754  0.3519 -0.2735
20483W        W39337  15.907  17.652   4.289 -0.1473 -0.2352 -0.4396
20484W        W39338   9.362  18.825   3.716 -0.1798 -0.1702  0.0989
20485W        W39339   7.739   0.254   2.701  0.2080  0.1820 -0.1336
20486W        W39340   8.689   5.900  14.482 -0.2004 -0.1458  0.2091
20487W        W39341  10.002  17.165  11.742 -0.2116 -0.0170 -0.0624
20488W        W39342   7.936  14.414   1.659 -0.5009 -0.1315 -0.0568
20489W        W39343  10.107  18.779   4.093  0.0502 -0.3731  0.2655
20490W        W39344  16.143   9.184   0.454  0.0713  0.0750  0.3034
20491W        W39345  14.265  14.207  12.624 -0.0845  0.0198 -0.0436
20492W        W39346  15.399  11.095   2.971  0.0920 -0.1427  0.1267
20493W        W39347   7.872  17.156   0.222  0.1457 -0.1581 -0.3157
20494W        W39348  19.041   6.426   1.188 -0.1950 -0.3599 -0.3818
20495W        W39349   1.170   3.653   1.325 -0.0598  0.0868 -0.2002
20496W        W39350   1.679  15.118  14.052 -0.3761  0.0469 -0.1265
20497W        W39351   6.738  16.097  11.935  0.2966  0.1419 -0.0831
20498W        W39352   6.046  11.115  14.435 -0.0507  0.0345  0.3952
20499W        W39353  15.473   5.394  10.993  0.0414  0.0883  0.1625
20500W        W39354  18.598  15.609   4.486  0.0396  0.0745  0.0739
20501W        W39355  16.927  15.285   2.647 -0.1137  0.2505  0.1610
20502W        W39356  15.333  15.368  13.717  0.0928 -0.1294 -0.1149
20503W        W39357  18.324   4.884  11.393  0.1616  0.1312  0.1248
20504W        W39358  13.338   1.408  12.970  0.1848 -0.3283  0.0745
20505W        W39359  10.983   3.117  10.705 -0.2677 -0.1892 -0.1615
20506W        W39360  18.331  11.329   5.028 -0.2122 -0.2979 -0.2799
20507W        W39361   0.119   1.450  14.002  0.0673 -0.1074  0.2798
20508W        W39362  14.034  16.346   5.322 -0.3365 -0.1687  0.3677
20509W        W39363   1.105   5.850   4.128 -0.1133 -0.1051  0.3190
20510W        W39364   5.820  16.299  11.685 -0.1826  0.1864 -0.1314
20511W        W39365   4.061  14.257  12.730  0.3191 -0.0610 -0.1404
20512W        W39366  17.400  12.404  11.309  0.1282  0.0834 -0.2318
20513W        W39367  15.015  12.340   2.437 -0.2430  0.0362 -0.1841
20514W        W39368   9.866  10.266   1.560  0.0575  0.1165  0.0733
20515W        W39369  16.098  18.484  14.534  0.1544  0.0189 -0.0307
20516W        W39370   1.294   8.613  13.745  0.0715 -0.4264 -0.0120
20517W        W39371  17.478  17.739   2.948 -0.3529  0.1437  0.1836
20518W        W39372   3.022   3.995   1.911  0.2496  0.1658 -0.1088
20519W        W39373  15.990  16.033  14.237  0.0761 -0.0631 -0.1042
20520W        W39374   0.093  16.134  12.731 -0.1298 -0.2360 -0.3039
20521W        W39375  14.980  12.272  12.290  0.3802  0.1574 -0.4047
20522W        W39376   7.635   6.064   5.190 -0.1243 -0.0806 -0.2856
20523W        W39377  11.818  12.484   0.946 -0.0444  0.1474  0.1895
20524W        W39378  13.355   0.283  12.317 -0.1358  0.1671 -0.0575
20525W        W39379  12.380   7.444  14.260  0.0163 -0.2402 -0.2766
20526W        W39380  16.192   8.255   0.208 -0.1849  0.0013 -0.2266
20527W        W39381   1.301  15.339  11.715 -0.1240  0.1672 -0.1125
20528W        W39382   4.007   9.937   1.496  0.0142  0.0246  0.0939
20529W        W39383  17.545  15.241   3.344  0.0473  0.0774 -0.3051
20530W        W39384  16.744  11.814   0.890  0.1086  0.0467 -0.0345
20531W        W39385  18.325  15.853   0.945 -0.0166  0.1768 -0.0052
20532W        W39386  16.986   8.589   2.988 -0.0422 -0.2032 -0.1720
20533W        W39387   9.860  10.958   1.072  0.1828 -0.2214  0.3666
20534W        W39388  12.232   3.246  13.772  0.1012  0.1624 -0.5309
20535W        W39389   3.757   1.965  11.544  0.0752  0.0072 -0.2039
20536W        W39390  10.832   5.379  11.000 -0.0613 -0.0210  0.2657
20537W        W39391  17.069  13.200   2.072  0.0639 -0.1410  0.3795
20538W        W39392   6.060   3.191   2.568 -0.3232  0.1138  0.0111
20539W        W39393  14.006   3.327   1.126  0.0280 -0.0452  0.0645
20540W        W39394   8.132  15.553   1.844 -0.1529  0.0351  0.0269
20541W        W39395   5.808  12.520   1.015 -0.0043  0.2273  0.1731
20542W        W39396  17.489   1.052  11.323  0.1998 -0.2797  0.1800
20543W        W39397   8.552  12.245   4.482 -0.0322 -0.2927  0.0015
20544W        W39398   9.431  14.133  13.306  0.4442  0.3397 -0.0810
20545W        W39399   1.169   9.790  12.566 -0.2477 -0.1514  0.1374
20546W        W39400  11.637   5.959   2.248  0.1043 -0.1247  0.1981
20547W        W39401  10.882   7.312  13.605 -0.1529  0.0822 -0.1272
20548W        W39402  15.339  17.886  11.378  0.1960  0.2390  0.1278
20549W        W39403   0.044  13.437   1.419 -0.3206  0.0344  0.1908
20550W        W39404   0.789  16.270   1.169 -0.2734 -0.0757  0.2233
20551W        W39405  12.023  18.022   4.233  0.3116  0.2957  0.0462
20552W        W39406  11.266   7.483   0.182 -0.1538 -0.0431  0.2141
20553W        W39407  10.881   0.926  14.601 -0.1940 -0.5242 -0.0582
20554W        W39408  15.298  13.291  11.108 -0.1498  0.1686 -0.1055
20555W        W39409  17.772   8.978   1.254 -0.1643 -0.3558 -0.0430
20556W        W39410  13.394  17.679  13.925 -0.1351  0.0838  0.1153
20557W        W39411  11.439  12.194  11.377 -0.0392  0.0495 -0.0642
20558W        W39412  18.042  11.311   0.974  0.1091  0.1641 -0.0447
20559W        W39413   1.136  10.732  11.175  0.1474 -0.1702  0.1312
20560W        W39414  11.175  10.888  12.029  0.0832 -0.1739  0.1513
20561W        W39415  14.656   2.094  14.247  0.0569  0.0714  0.1992
20562W        W39416  10.345   5.245  10.812 -0.0309 -0.1158 -0.3602
20563W        W39417  16.470  13.396  12.406  0.1659  0.1382  0.0877
20564W        W39418  11.605   9.557  11.062 -0.1019  0.0590 -0.0468
20565W        W39419   3.753  17.216   1.409 -0.1253 -0.0359  0.1653
20566W        W39420  10.018  10.468  11.738 -0.1905 -0.1345  0.0398
20567W        W39421   1.086  18.838  11.366  0.4467 -0.3195 -0.2400
20568W        W39422  10.537  14.277   3.409 -0.1603 -0.0499 -0.1258
20569W        W39423  17.333   4.051   2.028  0.2463  0.0881  0.2187
20570W        W39424   8.686  17.282   0.587  0.0110 -0.0469  0.1481
20571W        W39425  13.790  16.781  14.302 -0.2014 -0.2204  0.0766
20572W        W39426   8.630  16.924   3.469  0.0657  0.2093 -0.0280
20573W        W39427   2.144  11.914   3.618 -0.1210 -0.2435 -0.1417
20574W        W39428   1.705  18.650  13.339 -0.0411  0.0924 -0.3688
20575W        W39429   0.274  14.187   3.829 -0.0272  0.2526  0.3157
20576W        W39430  16.450   0.678  11.395  0.0306  0.0576  0.0845
20577W        W39431   6.414   4.523   0.750 -0.0536 -0.1317 -0.0653
20578W        W39432  11.306  12.518   0.920  0.1811  0.1477 -0.0377
20579W        W39433   0.595   8.848  13.811 -0.3262  0.1779  0.2273
20580W        W39434  13.347   6.276   0.175 -0.4375 -0.1418  0.0996
20581W        W39435   8.604   6.526  11.903 -0.0325 -0.2110  0.1932
20582W        W39436   6.947  13.640  13.625  0.1062 -0.0337 -0.3136
20583W        W39437  10.853   0.413   0.015 -0.2156 -0.2471 -0.2086
20584W        W39438   3.953   5.709  13.159  0.0235 -0.2467 -0.1575
20585W        W39439  10.323   8.422  10.445 -0.0191 -0.1367 -0.1550
20586W        W39440  14.813   9.897  12.124  0.1752  0.0528  0.0565
20587W        W39441  14.450   9.207  13.336  0.1771 -0.0947  0.2284
20588W        W39442  17.731  12.127  13.479  0.3703  0.0572  0.2653
20589W        W39443  10.092  19.032  10.174 -0.4905  0.2285 -0.3974
20590W        W39444   5.481   6.437  13.581  0.0075  0.0216 -0.0559
20591W        W39445   3.220  15.786   1.521  0.2024 -0.0576  0.0231
20592W        W39446  11.065  16.774   4.294  0.1799 -0.1563 -0.4189
20593W        W39447   2.185   2.773   1.005  0.2119  0.0141  0.1610
20594W        W39448  14.527   5.030   0.377 -0.0056 -0.0050 -0.1367
20595W        W39449  10.883  13.443   0.993  0.3055  0.1150 -0.2347
20596W        W39450  17.648  12.007   3.543  0.1279  0.0632  0.0044
20597W        W39451  14.112  18.020  12.300  0.0353  0.0287  0.1384
20598W        W39452  10.998   1.918  14.358  0.3113  0.0915 -0.1139
20599W        W39453  19.043  14.572  10.183  0.0135  0.1025 -0.0728
20600W        W39454   7.251   3.034  12.609 -0.2114  0.2542  0.2019
20601W        W39455   7.205  17.789   4.053  0.0852 -0.2746 -0.1161
20602W        W39456  14.769   5.628  13.468 -0.1790 -0.1249 -0.0706
20603W        W39457   4.728   6.948   0.714 -0.0701 -0.1060 -0.2265
20604W        W39458  17.016   7.636  14.539  0.1256 -0.2703 -0.0745
20605W        W39459  14.980  12.311   1.055  0.2094  0.0887 -0.0522
20606W        W39460   8.336  17.167  12.614 -0.0105  0.2455  0.0587
20607W        W39461   7.658  16.106  10.341  0.0858  0.2298  0.1017
20608W        W39462   3.458  14.413   0.762 -0.1253 -0.2422  0.1991
20609W        W39463  17.563  18.917  10.344  0.1405  0.2957  0.0662
20610W        W39464   3.491   5.652  12.134 -0.0192  0.0435 -0.0638
20611W        W39465   0.570   3.475   1.706 -0.1182  0.1187 -0.3109
20612W        W39466  11.767   9.084  13.724 -0.1431  0.0420  0.2651
20613W        W39467  17.752  12.130   1.208  0.0774 -0.1789 -0.1749
20614W        W39468   5.873   7.908   1.225 -0.2227  0.0312  0.0765
20615W        W39469   0.917  16.757   4.195  0.1361  0.1690 -0.2945
20616W        W39470   1.295  10.738   1.730  0.1775 -0.0290 -0.1054
20617W        W39471  10.088  15.805   2.763 -0.0909 -0.2051  0.1130
20618W        W39472   7.830  13.746   3.872  0.2677 -0.2042 -0.1657
20619W        W39473  13.468  11.142  11.755  0.4200  0.2289 -0.1309
20620W        W39474   7.530   6.113   3.832  0.3552 -0.0843 -0.0210
20621W        W39475   3.019   7.504  11.322 -0.2176  0.2049  0.1564
20622W        W39476   5.192  17.539  10.087 -0.4613  0.3229  0.5070
20623W        W39477  14.801  13.482   4.878  0.0516 -0.1164  0.1553
20624W        W39478  13.140   9.798  13.422  0.1348 -0.0361 -0.0574
20625W        W39479  17.768   3.255   1.903 -0.0349  0.1161 -0.2223
20626W        W39480   3.280  18.205  12.474 -0.1078  0.1102  0.0608
20627W        W39481   8.982   4.003   3.355  0.2831  0.1334  0.1630
20628W        W39482  13.272   0.665   9.930  0.0981  0.1428 -0.0084
20629W        W39483   1.083   8.288   0.408 -0.3530 -0.0627 -0.1658
20630W        W39484   8.428   2.658   3.192  0.0396 -0.0475  0.2244
20631W        W39485   2.588   7.782  11.518  0.1986 -0.1734  0.0959
20632W        W39486  17.755   3.748  13.548 -0.1187 -0.0443 -0.0301
20633W        W39487   0.647  17.129   2.412 -0.0648  0.2396  0.0108
20634W        W39488  17.153  10.977   1.032  0.1392  0.4831 -0.0719
20635W        W39489  15.348   8.827  10.986  0.0162  0.0244  0.2556
20636W        W39490  19.039   9.393   3.669  0.0039 -0.1702 -0.2026
20637W        W39491   9.017  11.129   2.043 -0.0404  0.1687  0.2708
20638W        W39492  10.969  15.521   4.495 -0.1475  0.3054  0.0006
20639W        W39493  18.882   1.121   2.748 -0.1293 -0.0161  0.0965
20640W        W39494   5.106  17.132   1.692 -0.0247 -0.0779 -0.7933
20641W        W39495   9.832  10.029   0.651  0.2236 -0.0962 -0.1175
20642W        W39496   6.103  11.705   0.989  0.3355  0.0651 -0.0583
20643W        W39497   1.429   2.919   2.114  0.1116  0.0651  0.1663
20644W        W39498   1.194  19.198   4.154  0.2062  0.0567 -0.1936
20645W        W39499   9.480  10.497  10.517 -0.1316 -0.0700  0.1975
20646W        W39500  10.696   8.497  14.455  0.1104 -0.0266  0.1383
20647W        W39501   2.706  16.502   0.672 -0.1906  0.1029 -0.1355
20648W        W39502   2.574  12.508   1.918 -0.0457  0.1483 -0.0358
20649W        W39503   9.403  12.015   3.867  0.1570  0.1994  0.3160
20650W        W39504  11.174   0.687   3.300  0.0206 -0.2347  0.1895
20651W        W39505  13.074   3.086  13.255 -0.1935  0.1641  0.1512
20652W        W39506  14.212   7.193   1.361 -0.1053 -0.0492 -0.0602
20653W        W39507   2.384  13.660   1.237  0.0375 -0.2591  0.1633
20654W        W39508   3.812  15.044   1.588  0.0284 -0.2309  0.3557
20655W        W39509  16.287   5.311   4.714  0.0985 -0.0476  0.1256
20656W        W39510   5.470   2.529  10.226  0.1346 -0.0918 -0.0087
20657W        W39511   9.585   8.519  10.115 -0.1812 -0.1396 -0.0337
20658W        W39512  18.865   3.970  11.065  0.0064  0.3434 -0.0114
20659W        W39513  17.582   1.570   0.682 -0.0297  0.0754  0.0066
20660W        W39514   2.984  16.941  13.013  0.2699 -0.0427  0.0031
20661W        W39515  18.983  13.254   0.416 -0.2372 -0.0177 -0.3513
20662W        W39516  14.426   1.499  14.307  0.0994 -0.1879  0.2761
20663W        W39517   7.565  17.773  14.299  0.2249  0.2370 -0.0546
20664W        W39518  11.052   8.433  11.763  0.1431  0.1149 -0.4330
20665W        W39519  12.278   1.067  12.119 -0.1754 -0.0262  0.0229
20666W        W39520   0.997   0.479   4.075 -0.2123  0.0085 -0.0193
20667W        W39521   9.474  17.190  11.175  0.0080 -0.0906 -0.2335
20668W        W39522  15.037  14.589  13.062 -0.3285 -0.2059 -0.0312
20669W        W39523  11.453  17.340  13.550 -0.0818 -0.3597 -0.1742
20670W        W39524   6.960   3.874  14.314 -0.0561 -0.2378 -0.2710
20671W        W39525   3.652   4.651   2.132  0.1138 -0.0075 -0.1169
20672W        W39526  10.767  12.196  13.690  0.3011  0.0276  0.0757
20673W        W39527  14.260  12.522  11.387 -0.0741  0.2753  0.0884
20674W        W39528   3.038   1.888  14.502 -0.0543  0.0105 -0.0117
20675W        W39529  13.214  19.038   2.633 -0.0238  0.3284  0.0212
20676W        W39530  14.286   0.111  11.988  0.3074  0.1084 -0.1824
20677W        W39531  18.783   9.458  10.988  0.0791  0.0465  0.2401
20678W        W39532   1.264   6.196   0.947 -0.0047 -0.1965  0.0580
20679W        W39533   6.705  15.754  10.459 -0.0472  0.2402  0.1358
20680W        W39534   2.376  10.656  13.863 -0.2315 -0.0401 -0.1372
20681W        W39535   3.597   4.461  14.336  0.0401  0.2256  0.0714
20682W        W39536   9.535   0.760  11.813 -0.2743 -0.1758  0.2838
20683W        W39537   9.235   6.282   3.572 -0.0436 -0.0357 -0.4015
20684W        W39538   2.565   1.369  10.237 -0.0622 -0.3296 -0.1313
20685W        W39539  11.434  12.988   0.681  0.2642  0.1044 -0.0933
20686W        W39540   5.094   4.766   0.361 -0.1474  0.1349  0.2763
20687W        W39541  11.323   6.618   3.741 -0.0451 -0.1481 -0.0873
20688W        W39542   5.356  15.966   4.530 -0.1597 -0.1923  0.0378
20689W        W39543  18.660   6.089  13.259 -0.0875  0.0424  0.1615
20690W        W39544  14.347   8.793  12.598  0.1601 -0.1945  0.1260
20691W        W39545   6.709  13.389   0.828 -0.1076 -0.2039  0.1229
20692W        W39546  12.196   3.655   2.989  0.2544 -0.0124 -0.0282
20693W        W39547   4.758  16.286   3.268  0.1801  0.1772 -0.1792
20694W        W39548  18.490   0.403  11.781 -0.2002  0.0309 -0.0309
20695W        W39549  15.752   7.336   1.135 -0.0337 -0.0507 -0.1690
20696W        W39550  10.427  19.145   0.705 -0.0602 -0.1355 -0.0803
20697W        W39551   0.278   4.936   0.329 -0.3428  0.1605  0.1851
20698W        W39552  13.676  13.899  13.782 -0.2506 -0.1066 -0.0778
20699W        W39553   4.467   5.673   3.863 -0.2781 -0.2734 -0.1310
20700W        W39554   8.509   5.531   0.141  0.3106  0.2109  0.0038
20701W        W39555   8.890   1.559   4.278  0.0667  0.1000  0.2732
20702W        W39556  18.698   7.958   0.809  0.0958  0.0940 -0.2577
20703W        W39557  17.058  15.206   3.123 -0.1069  0.0108 -0.0714
20704W        W39558  10.728   6.359   9.727 -0.0054 -0.1452  0.2809
20705W        W39559  10.088  10.432  11.237  0.0999  0.1475  0.0196
20706W        W39560   7.612  13.567   2.651  0.0614 -0.3709 -0.3993
20707W        W39561  13.013   9.714   1.036 -0.1050  0.1188  0.0218
20708W        W39562  15.449   8.438  13.134  0.0257  0.1900  0.0401
20709W        W39563   5.992  11.847   1.941  0.2476  0.1407  0.0259
20710W        W39564   6.340   9.200  10.890 -0.0325  0.0928 -0.1061
20711W        W39565  10.612  10.195   4.948  0.1890  0.0061 -0.0635
20712W        W39566   7.504  18.559   3.743 -0.0742 -0.0898  0.0958
20713W        W39567  17.420  11.541   5.325 -0.1751  0.0272  0.1796
20714W        W39568  13.791  13.144  11.353  0.3530 -0.4390 -0.0142
20715W        W39569  17.299  18.667   1.543 -0.0675  0.0222 -0.0689
20716W        W39570  15.931   5.616  12.426 -0.1605 -0.1012  0.0396
20717W        W39571  16.543  15.120   4.283 -0.1127 -0.0896  0.1884
20718W        W39572   5.693   8.165   2.983 -0.1008 -0.2212  0.1116
20719W        W39573  12.396   6.230  13.857 -0.0502  0.1909 -0.2375
20720W        W39574  13.897   5.295   5.066  0.1590  0.1117  0.1217
20721W        W39575   8.345  17.164   1.079  0.4392  0.1269 -0.0596
20722W        W39576  15.107  15.944   1.593 -0.1218 -0.0087  0.2303
20723W        W39577   6.557  12.026  12.820 -0.1073  0.2479  0.1229
20724W        W39578  18.459  10.845  13.395 -0.1664  0.1131  0.2822
20725W        W39579   4.299   3.582   0.605  0.1260  0.0571  0.2764
20726W        W39580  10.028   6.289  12.314  0.0457 -0.0580  0.1346
20727W        W39581  16.819   0.602  14.251 -0.0546 -0.1351 -0.0653
20728W        W39582  13.534   6.896  11.062  0.3483  0.3649 -0.3610
20729W        W39583   7.146   4.720  12.224  0.1955  0.1921 -0.2275
20730W        W39584   4.856  16.990   2.110  0.0620  0.3823  0.0413
20731W        W39585  17.341   4.430   0.598  0.1438 -0.2129  0.2014
20732W        W39586   6.259   0.179   0.926  0.0407 -0.1392  0.2058
20733W        W39587  14.005   1.800  13.573 -0.4955  0.1588 -0.2149
20734W        W39588  15.436   1.691   2.759  0.0865  0.1776  0.0947
20735W        W39589   3.309  16.378  13.186 -0.6053 -0.0821 -0.1595
20736W        W39590  18.081   4.154  12.330 -0.0024  0.1330  0.0679
20737W        W39591  18.173  15.072  10.572 -0.1611 -0.0018  0.0204
20738W        W39592  18.399   5.671   1.718  0.1427 -0.1918  0.1222
20739W        W39593  16.565   6.268   0.432  0.1311 -0.2925 -0.1359
20740W        W39594   2.980  11.720   4.227  0.2685 -0.0349 -0.0982
20741W        W39595  15.415   4.682   0.091 -0.3051  0.0616  0.1026
20742W        W39596   7.246   6.594   3.522  0.2515 -0.2565 -0.3156
20743W        W39597   3.748   9.223   2.586 -0.0187 -0.1126 -0.0714
20744W        W39598   7.820   2.884  11.169  0.2451 -0.4029 -0.1602
20745W        W39599   6.447   5.937   2.005 -0.1150 -0.0243  0.0268
20746W        W39600  12.235   7.726   0.175  0.0623  0.2286  0.0973
20747W        W39601  15.752   1.711  14.477  0.0453  0.2291  0.0178
20748W        W39602  16.545   8.407  11.315 -0.2754 -0.1588  0.0702
20749W        W39603  12.399  16.166  13.127 -0.0097  0.1837 -0.1159
20750W        W39604  10.050   3.133   2.366  0.0346  0.2413  0.0303
20751W        W39605   5.347  16.473   4.585  0.0467 -0.0228 -0.1394
20752W        W39606  10.985   4.325   2.212  0.0150  0.1856 -0.0838
20753W        W39607  17.223   0.247  11.890  0.0206  0.1058 -0.2391
20754W        W39608   4.860  12.157  13.056 -0.3116 -0.4562  0.0971
20755W        W39609  14.751  15.704  11.299  0.2210 -0.2216  0.3102
20756W        W39610   2.075   2.583  10.814 -0.0221  0.0030 -0.0217
20757W        W39611   0.611   3.798  13.146  0.1713 -0.0404 -0.1373
20758W        W39612   5.108  13.720   3.146 -0.1517  0.3261 -0.0026
20759W        W39613   3.527  14.134  12.616  0.2002  0.1155  0.0483
20760W        W39614  14.876   2.830   4.475  0.1988  0.3695  0.2642
20761W        W39615  18.499   1.267  10.773  0.1322 -0.3273  0.2018
20762W        W39616   1.248  16.531  14.281  0.1999  0.1114 -0.1629
20763W        W39617  11.805   4.872  13.826  0.3138 -0.1294  0.2794
20764W        W39618  17.338   3.398   3.122 -0.1744 -0.1251  0.2602
20765W        W39619  12.063  16.207  14.606 -0.0074  0.0088 -0.0822
20766W        W39620  18.259   1.185  14.025  0.0352  0.0378 -0.1008
20767W        W39621   6.578  12.101   1.121 -0.1739 -0.1761 -0.1660
20768W        W39622   3.505  12.481   3.915 -0.1663  0.1947 -0.0591
20769W        W39623  14.317  11.207  13.117 -0.0980  0.1577  0.1220
20770W        W39624   1.211  18.991  12.992 -0.2160  0.2355  0.0022
20771W        W39625   4.947  18.981   1.031 -0.1487  0.0675 -0.0063
20772W        W39626  14.582   7.911   9.135  0.1158 -0.2936  0.1317
20773W        W39627  17.317  14.591  11.283 -0.1909 -0.0695  0.2212
20774W        W39628   0.050   0.849  11.175 -0.0892 -0.0229 -0.3507
20775W        W39629   6.753   3.465  14.004  0.0382  0.0884 -0.0139
20776W        W39630   1.853   7.924   2.435 -0.0193  0.0494  0.0007
20777W        W39631  13.051  14.261  10.340 -0.2925  0.1670  0.0325
20778W        W39632  10.682   6.319   1.196 -0.0600  0.0118  0.1802
20779W        W39633  13.879  16.875   2.183 -0.2372 -0.2986 -0.1628
20780W        W39634   3.734   0.755  10.764  0.1687 -0.0725  0.0360
20781W        W39635   0.879   8.760  13.331  0.1595  0.1623 -0.3623
20782W        W39636  14.187   5.297   1.594  0.0292 -0.1943 -0.1002
20783W        W39637  18.819  16.321  10.800 -0.0516 -0.3157  0.4655
20784W        W39638   3.514  15.193  11.661 -0.1055 -0.0546  0.2163
20785W        W39639   7.708  19.039   4.392 -0.3571 -0.0817 -0.0718
20786W        W39640  18.521   5.269   0.356 -0.0032  0.2339 -0.1660
20787W        W39641   8.171   9.239  12.373  0.0879 -0.0827 -0.2479
20788W        W39642  11.469   4.143  10.576 -0.0713  0.2578  0.0035
20789W        W39643   9.807   2.198   3.915 -0.0550 -0.1313  0.0045
20790W        W39644   4.318  18.287  12.367  0.1542 -0.0583 -0.0241
20791W        W39645   7.211  13.073   3.119 -0.3597  0.2329  0.0023
20792W        W39646   7.643   0.776  11.720  0.0650  0.0404  0.0805
20793W        W39647   2.267   6.525   0.658  0.1207 -0.0028 -0.0456
20794W        W39648   9.113   9.778   9.156  0.1239  0.0500  0.2413
20795W        W39649   3.914   8.261   1.071 -0.2032  0.1553 -0.1638
20796W        W39650   7.897   5.346   1.824  0.1280  0.1733 -0.0050
20797W        W39651  10.610  11.499   1.823 -0.0425 -0.1611 -0.2268
20798W        W39652   3.173   5.896   3.921  0.3081  0.0614  0.1055
20799W        W39653   8.991  17.336   3.937 -0.0619 -0.1716  0.4578
20800W        W39654   0.155   9.301  11.662  0.1710  0.0705  0.2806
20801W        W39655   4.406  11.171  12.730  0.2267 -0.1540 -0.1279
20802W        W39656   0.025   1.122   4.010  0.0486 -0.1584  0.0530
20803W        W39657   6.716  13.651  10.710  0.1140  0.3158 -0.0677
20804W        W39658   7.657  18.096   2.886 -0.0154  0.0131  0.0200
20805W        W39659   7.688   6.240  14.688  0.5106  0.1279 -0.2098
20806W        W39660   9.136  16.037   2.634  0.1951  0.0390 -0.2431
20807W        W39661   5.597  13.337  13.587 -0.0406  0.3240 -0.1717
20808W        W39662  12.014  16.624   0.750 -0.2737 -0.1815 -0.0141
20809W        W39663  15.610   5.082  13.047  0.0393  0.6040  0.1281
20810W        W39664  17.755  15.842  13.704  0.0728 -0.0500  0.2681
20811W        W39665   8.436   2.067  12.767 -0.2032 -0.1264 -0.0877
20812W        W39666   0.183  11.906   2.231  0.1480 -0.1132  0.2782
20813W        W39667  15.517  14.666   1.940  0.0933 -0.0635  0.2797
20814W        W39668  12.985   6.685   0.085 -0.2842  0.0409 -0.1618
20815W        W39669   4.076   7.218   2.160  0.2809  0.0882  0.0880
20816W        W39670   6.921  13.461   2.459  0.4680 -0.2081  0.0077
20817W        W39671  14.286   1.097  13.082  0.1253  0.2417 -0.0955
20818W        W39672  13.784   3.272  13.927  0.0348 -0.0734  0.1725
20819W        W39673   4.006  16.337  12.278  0.2612  0.4442  0.1030
20820W        W39674   7.139  11.126  10.402  0.0528 -0.2923  0.0982
20821W        W39675  14.469  17.204  12.328  0.1928 -0.1307 -0.1626
20822W        W39676   2.706   5.372  11.986  0.0101  0.2381 -0.2914
20823W        W39677  12.252   9.561   1.552  0.2837 -0.0541 -0.1699
20824W        W39678   7.648  12.715   3.887 -0.1146 -0.1023 -0.1860
20825W        W39679  14.239   8.437   0.615  0.0310 -0.2048 -0.1553
20826W        W39680   1.740   6.158   3.518 -0.1450 -0.4885 -0.0922
20827W        W39681  15.355  13.578  13.893 -0.2640 -0.0540  0.0413
20828W        W39682  15.755   5.000   5.491  0.0801  0.1197 -0.1408
20829W        W39683  11.355   9.581  14.514  0.1505 -0.1999 -0.0661
20830W        W39684  17.538  14.220   0.462  0.0465  0.1337 -0.1821
20831W        W39685   6.414   5.003   1.978 -0.1784 -0.0639 -0.0733
20832W        W39686  12.516  11.518  12.182 -0.0648 -0.2791  0.0794
20833W        W39687  18.587   3.736  12.087 -0.0492  0.0212  0.2489
20834W        W39688   2.771  10.537   1.529 -0.0757  0.0886 -0.1540
20835W        W39689   5.792   7.209   1.424 -0.2882  0.2556 -0.2535
20836W        W39690  16.338   6.669   1.269  0.3090  0.0693  0.3402
20837W        W39691  16.146   1.831   1.796  0.0992 -0.0762 -0.2631
20838W        W39692  17.257  17.084   2.247  0.1115 -0.2816 -0.0138
20839W        W39693   2.065  12.625  11.820 -0.1305  0.1476 -0.0657
20840W        W39694  16.285   1.280   0.342 -0.1395  0.5664  0.0345
20841W        W39695   6.296  15.128  13.379 -0.2021 -0.0252  0.2370
20842W        W39696   3.135   5.796   1.873  0.1372 -0.1064  0.3029
20843W        W39697   9.771   0.291   0.298 -0.2793 -0.0855  0.1378
20844W        W39698   6.080   6.432   9.811 -0.1852 -0.1310  0.0097
20845W        W39699  15.450  17.556   4.145  0.0834  0.0627  0.1256
20846W        W39700   1.896   5.744  11.184 -0.4119 -0.1814  0.0289
20847W        W39701  17.478  16.761  11.226  0.0340 -0.1983 -0.1556
20848W        W39702  16.026  10.212   1.950 -0.1263 -0.1638 -0.1174
20849W        W39703  16.749  12.456   0.291  0.0662 -0.2863  0.2788
20850W        W39704   4.734   3.054   3.360 -0.1618 -0.0628 -0.0650
20851W        W39705   5.805  10.250  14.581 -0.3846 -0.1106  0.0430
20852W        W39706   7.341   7.251  11.440  0.2857  0.2716  0.0294
20853W        W39707   4.199   0.917   2.343  0.1266 -0.0993 -0.0639
20854W        W39708   7.058   2.867  13.462 -0.0389  0.1105  0.2515
20855W        W39709  12.465   7.361   3.610  0.3556  0.1724  0.0694
20856W        W39710   5.451  17.636   3.478 -0.2976  0.1794 -0.0777
20857W        W39711   4.954  10.151   0.163  0.1064  0.0548  0.0302
20858W        W39712  10.284  13.022   2.890  0.0218 -0.0705 -0.0169
20859W        W39713  14.826  13.965   4.183  0.0935 -0.0257 -0.3192
20860W        W39714  11.442   1.381  11.017 -0.0395 -0.1415  0.0267
20861W        W39715   2.658   1.960  11.576 -0.1380  0.1874 -0.0832
20862W        W39716  18.625   8.381  13.395  0.1037 -0.0239 -0.0930
20863W        W39717   0.076  18.188   0.924  0.0623 -0.1377 -0.1043
20864W        W39718  16.103  17.473  11.553 -0.0603 -0.0310 -0.0444
20865W        W39719   4.740   3.485  14.478  0.2992  0.0749 -0.0448
20866W        W39720   3.477   4.124   3.234 -0.2770 -0.2650  0.1461
20867W        W39721   1.912   8.201  10.778  0.0728  0.0397 -0.2825
20868W        W39722  17.820  13.746  14.494 -0.0069  0.1517 -0.1957
20869W        W39723  18.814  17.958  11.333 -0.0518  0.0552  0.1327
20870W        W39724  17.569   8.593   0.955 -0.1197  0.1214 -0.2013
20871W        W39725  15.773  18.143  13.749  0.0607 -0.3300 -0.0162
20872W        W39726   7.636   5.637  12.887  0.3108  0.4563 -0.1227
20873W        W39727  13.979   5.577   1.940 -0.1735  0.1221  0.0572
20874W        W39728   1.945   5.278  13.804  0.2473  0.0276 -0.1408
20875W        W39729  18.126  15.278  11.611  0.1355 -0.2407 -0.1567
20876W        W39730  11.547   8.363  14.437 -0.1090 -0.0370  0.1328
20877W        W39731  16.722  12.151  11.825  0.5201 -0.0231 -0.1869
20878W        W39732   3.281   9.075  12.029 -0.2519 -0.1989  0.4046
20879W        W39733   8.723  15.277  11.543 -0.4147  0.0808 -0.0430
20880W        W39734   4.763   9.232  12.186 -0.0605 -0.1072  0.0640
20881W        W39735  12.031   4.748  12.478 -0.1795 -0.0496  0.1359
20882W        W39736   4.852  17.730  13.257  0.3047  0.1466  0.1686
20883W        W39737  13.513   3.689  12.616 -0.2547  0.2770  0.2298
20884W        W39738  13.052  18.591  11.375 -0.0863 -0.2397 -0.0353
20885W        W39739   6.730   2.540  13.233  0.0918 -0.1944 -0.3661
20886W        W39740   8.673  16.017   3.549  0.1640 -0.0466  0.2342
20887W        W39741   3.143  13.357   4.045 -0.1948 -0.2884  0.0484
20888W        W39742   9.802  12.169  13.376 -0.1019  0.1484  0.1394
20889W        W39743  14.878   9.329  14.226 -0.1607 -0.3345  0.3053
20890W        W39744   3.051  13.520   3.170  0.1148 -0.1022  0.2168
20891W        W39745   8.284  17.254   3.791 -0.0255  0.1360  0.1547
20892W        W39746   4.333  11.432   4.006  0.3398  0.0650  0.0377
20893W        W39747  11.214   1.653   1.866  0.0680  0.1319  0.0593
20894W        W39748  18.117   2.184  12.197 -0.3525 -0.1114  0.0052
20895W        W39749   9.808  10.658   3.427  0.0684 -0.2160 -0.2435
20896W        W39750  12.140  11.228   9.407  0.0814  0.1909  0.1306
20897W        W39751  12.366  13.454  11.471 -0.4274 -0.3277  0.1386
20898W        W39752   9.968   2.487  11.371  0.3059  0.1021  0.2789
20899W        W39753  13.765   1.576   0.684  0.0881  0.0374 -0.2272
20900W        W39754  17.690  11.679   0.997  0.1696 -0.0601  0.2517
20901W        W39755   6.017   5.872   2.215 -0.0385 -0.1129  0.3771
20902W        W39756   3.689  13.145   2.592  0.0035 -0.0336  0.1569
20903W        W39757   8.862   3.755  10.604 -0.0514  0.1089 -0.0985
20904W        W39758   0.493  16.647   1.321 -0.1039  0.2737 -0.0928
20905W        W39759  15.666   4.131  13.543 -0.2146  0.0888  0.1284
20906W        W39760   3.401  11.452  12.504  0.3029 -0.2437  0.2311
20907W        W39761   2.337   3.517   1.762 -0.0281 -0.0105 -0.0030
20908W        W39762   4.510  13.718  11.410 -0.0277 -0.2595  0.1011
20909W        W39763   6.630  10.817  11.633 -0.0387 -0.1415 -0.2994
20910W        W39764  16.705   9.308  12.224 -0.2231 -0.1490 -0.0354
20911W        W39765   5.449  15.432   1.316 -0.1119 -0.1057 -0.0686
20912W        W39766   8.059  18.911  11.432  0.2614 -0.3496  0.1915
20913W        W39767   4.410  16.133   0.234  0.0702  0.2049 -0.0940
20914W        W39768   3.982   1.760   3.411 -0.0063  0.0441  0.1127
20915W        W39769   6.243  17.208  14.541  0.0575 -0.2789 -0.0405
20916W        W39770   4.081  18.245   0.035 -0.2713  0.1888  0.3708
20917W        W39771   1.174   7.365  13.344 -0.0077 -0.3059  0.3794
20918W        W39772   1.617  18.001   1.411  0.0071 -0.1155 -0.0894
20919W        W39773  15.592  14.251   1.162  0.1874  0.0290 -0.5549
20920W        W39774  15.489   3.770   3.963 -0.0313 -0.1658 -0.1747
20921W        W39775   6.126  12.017   2.465 -0.0524 -0.0355  0.1082
20922W        W39776  10.392  18.140  13.469  0.0580  0.0755 -0.2695
20923W        W39777  17.378  13.699  14.660  0.0028 -0.0917  0.1512
20924W        W39778  14.143   6.078  14.630 -0.0231 -0.1928 -0.0500
20925W        W39779   5.996   3.028  13.847  0.4725  0.3098  0.0473
20926W        W39780  10.351   0.534  12.419  0.1197 -0.0899 -0.0710
20927W        W39781   5.282   4.297  12.183 -0.2780 -0.1105 -0.0332
20928W        W39782   9.663   9.551   1.063 -0.1021  0.1624 -0.1037
20929W        W39783   4.200  11.342   2.313 -0.4845  0.1693  0.0136
20930W        W39784  17.053   0.320   2.839  0.0837  0.2210 -0.0278
20931W        W39785   8.890   5.643  10.432 -0.1000 -0.0676 -0.3050
20932W        W39786  18.378   5.227   1.473  0.2278  0.0884  0.2754
20933W        W39787  12.686  18.837   2.669  0.0345 -0.2618 -0.0828
20934W        W39788   7.277  14.222   0.228  0.1676 -0.1312 -0.0398
20935W        W39789   7.167  17.589   2.930  0.3130  0.0461 -0.0771
20936W        W39790   8.003   8.130  12.862 -0.2158 -0.1759 -0.0024
20937W        W39791   2.221   0.467   2.526 -0.1193  0.2128  0.1248
20938W        W39792   8.031   9.647   4.007  0.1267 -0.3336 -0.0627
20939W        W39793   7.431  15.197   3.005 -0.1211 -0.1125 -0.1355
20940W        W39794   5.254   5.476   1.618  0.1906  0.1101 -0.0009
20941W        W39795   1.173  16.282   3.988 -0.4520 -0.0697 -0.1444
20942W        W39796  16.962   2.880  14.226 -0.2188  0.0244 -0.0666
20943W        W39797   0.872  16.900   3.268  0.0332 -0.0307 -0.0559
20944W        W39798   4.076  13.792  14.685  0.1369 -0.1853  0.0460
20945W        W39799   6.468   4.989   3.899 -0.1781  0.0294  0.2619
20946W        W39800   4.229  10.504  10.621  0.0205  0.0124  0.1549
20947W        W39801  12.998  14.218   0.774  0.2484  0.1476 -0.4350
20948W        W39802   5.317   8.081  11.566  0.1427  0.2979  0.1886
20949W        W39803   3.961   9.110  12.376 -0.1320 -0.3028 -0.0722
20950W        W39804  11.562  14.939   4.722 -0.1928  0.1627  0.0253
20951W        W39805  14.740  12.671  12.500  0.2000  0.1264  0.1020
20952W        W39806  14.520   0.278  14.116  0.1268  0.1348  0.0730
20953W        W39807   1.015  17.127   0.523 -0.1153  0.1120  0.2671
20954W        W39808   6.561  17.781   4.246 -0.0520 -0.1682  0.1045
20955W        W39809  17.852   3.131  14.299  0.1771 -0.0571 -0.3059
20956W        W39810  17.930   7.619   1.893 -0.0725 -0.0534  0.0438
20957W        W39811   9.471   0.323   2.993 -0.2327 -0.1319  0.0423
20958W        W39812  16.922   7.504  13.357 -0.0507 -0.0660  0.1294
20959W        W39813  12.562   1.590   1.089  0.0454 -0.0127 -0.1304
20960W        W39814   4.537  13.482   1.045  0.2456 -0.1624 -0.1790
20961W        W39815   8.755   9.486  13.546  0.1856 -0.3147  0.0781
20962W        W39816  12.817  14.960  13.365  0.0733 -0.1659  0.0565
20963W        W39817  10.000  18.357   4.357  0.1250 -0.0652 -0.2055
20964W        W39818  17.219   7.352  10.332  0.0002 -0.1219 -0.1382
20965W        W39819   9.308   1.005  13.141 -0.2136  0.0839 -0.0871
20966W        W39820  18.554  13.720  13.688 -0.2088 -0.0962 -0.0457
20967W        W39821  14.194  16.348   2.788 -0.1973  0.1500 -0.3831
20968W        W39822   0.151  16.396  14.617 -0.1236  0.3300 -0.0613
20969W        W39823   3.549   3.527  10.795  0.1021  0.0692 -0.0218
20970W        W39824   0.557   4.515   0.328 -0.1164 -0.2940  0.0924
20971W        W39825   0.502  11.216  11.990 -0.0975  0.0479  0.0257
20972W        W39826  18.730  15.916  12.724  0.0671  0.0110 -0.1474
20973W        W39827  11.393  17.834  10.132 -0.2486 -0.5434 -0.0315
20974W        W39828   1.818  11.700   3.243  0.0317  0.0814 -0.0039
20975W        W39829   1.275  16.430   1.005 -0.2669  0.1101  0.0623
20976W        W39830   3.447  16.269  10.141  0.1833 -0.1155  0.1412
20977W        W39831  15.585   4.212  14.056  0.1753 -0.1192 -0.1138
20978W        W39832   1.924   1.246   2.782 -0.0560  0.0060  0.3827
20979W        W39833   3.157   4.519   3.971 -0.1207  0.2986  0.1255
20980W        W39834  14.382   5.593  13.145 -0.0537 -0.1031 -0.1372
20981W        W39835   5.870  12.561  13.033  0.0881  0.0093  0.0975
20982W        W39836   9.324   8.120   1.032  0.2848  0.0250  0.0521
20983W        W39837  13.221   5.271   4.108  0.0776  0.2040  0.2900
20984W        W39838  12.573   3.675  11.696  0.0970  0.0285 -0.0335
20985W        W39839   6.789  12.542   1.277 -0.1903 -0.0406  0.1857
20986W        W39840   5.550   5.877   2.355 -0.1386  0.0021  0.2989
20987W        W39841   6.513   2.858   3.254 -0.3783  0.3705  0.1283
20988W        W39842  10.065  13.137  13.511  0.2021  0.1090 -0.1635
20989W        W39843   5.251   4.852   5.189  0.2753  0.1829  0.3130
20990W        W39844   9.533  12.943  11.325 -0.0530  0.0480  0.0421
20991W        W39845   3.723   4.206   1.283  0.1980 -0.0487  0.0344
20992W        W39846   8.080   4.839  12.677  0.1167  0.1273  0.0736
20993W        W39847   9.076  13.802   0.537 -0.0715  0.4058  0.1221
20994W        W39848  12.807  17.261  13.092  0.2447  0.2334 -0.0209
20995W        W39849   1.861   4.892  11.643  0.2744  0.0794  0.0605
20996W        W39850  17.711   7.214   3.608  0.3213 -0.0285  0.0818
20997W        W39851   5.803   0.524   0.222 -0.0661  0.6059 -0.0934
20998W        W39852   0.303   3.393  13.662  0.2119  0.1708 -0.0883
20999W        W39853   6.541   5.982  11.974  0.1417 -0.2185 -0.0496
21000W        W39854  17.014   0.742  11.796  0.0929 -0.2719  0.0016
21001W        W39855   2.934   2.163  11.984  0.0506  0.0297  0.3899
21002W        W39856  18.592   3.044  13.274 -0.0893 -0.1934 -0.0065
21003W        W39857   9.153   4.533   4.456  0.2512 -0.0513 -0.1607
21004W        W39858  10.997  12.169   2.886  0.2822 -0.0483  0.0142
21005W        W39859  18.999  10.398   2.344  0.1334 -0.3521  0.2052
21006W        W39860   6.017  10.118  11.170 -0.2564 -0.5945 -0.2264
21007W        W39861   1.657  13.346  13.360 -0.2130 -0.1351  0.4072
21008W        W39862  12.928  12.790   2.047  0.1001 -0.1254 -0.1345
21009W        W39863  10.800   4.312  11.169  0.0279 -0.5294  0.2729
21010W        W39864  11.363   1.233   2.538  0.2363  0.0788  0.0878
21011W        W39865  12.771  14.249   3.103 -0.1810  0.0295 -0.0377
21012W        W39866  10.059   6.177  13.860 -0.2164  0.1159  0.0429
21013W        W39867  10.690   4.357   1.430 -0.0788  0.2297  0.0577
21014W        W39868   0.930  13.410  14.220  0.1023 -0.0745 -0.2046
21015W        W39869   6.299   7.254   2.687 -0.1341  0.2514  0.2769
21016W        W39870  17.653   3.704   3.884  0.1544  0.0932  0.1253
21017W        W39871  11.657  13.556  13.630  0.0848 -0.2376  0.1119
21018W        W39872   7.728   9.914   2.521 -0.2633 -0.0598  0.0729
21019W        W39873   2.705   0.346  14.494 -0.0378 -0.1054  0.0649
21020W        W39874  13.687   1.923  12.035 -0.2292  0.1779 -0.1330
21021W        W39875  13.076   2.642  13.006  0.1570 -0.0633 -0.0964
21022W        W39876   3.201  14.759   0.582  0.0565  0.4951  0.2340
21023W        W39877   3.171  16.895  11.776 -0.1530 -0.1080 -0.1808
21024W        W39878   2.954   4.720   0.206 -0.3781 -0.0227 -0.1503
21025W        W39879   7.491  10.977  14.666 -0.1738 -0.3764 -0.0582
21026W        W39880   7.928  13.070   1.023 -0.0918  0.3763  0.0020
21027W        W39881   1.931   2.726  14.677  0.1313 -0.0597 -0.0971
21028W        W39882  16.613  12.956  11.339  0.2887 -0.0669  0.0454
21029W        W39883   2.746   7.415   0.815 -0.2970  0.1060 -0.2161
21030W        W39884  14.577   4.713   3.641  0.0738  0.0835  0.2417
21031W        W39885   2.853   2.371  14.558  0.1952  0.0696 -0.0924
21032W        W39886   5.295   8.280  13.018  0.0950  0.1610 -0.1357
21033W        W39887  13.573  11.456  11.253 -0.5663  0.0533  0.1100
21034W        W39888   0.292  12.115  12.247 -0.2891 -0.1047 -0.1381
21035W        W39889   3.651   5.079  11.187  0.1417  0.1314  0.1291
21036W        W39890   7.635  11.156   0.558 -0.0464 -0.3054  0.0019
21037W        W39891  15.885  11.965   1.217 -0.2503 -0.1292 -0.1348
21038W        W39892   5.003   6.470  12.228  0.2549  0.3840  0.0747
21039W        W39893   0.325   6.190  10.878  0.0500 -0.0006  0.3250
21040W        W39894  13.623   8.477  14.359  0.0797  0.0608  0.0154
21041W        W39895   2.983   3.289  11.623 -0.0329 -0.1081  0.2403
21042W        W39896   3.961   8.017  14.399  0.0967  0.1319  0.5409
21043W        W39897   3.553   3.833  12.608 -0.1804 -0.3838  0.1041
21044W        W39898  12.376  14.811  11.565  0.0055  0.0227 -0.0024
21045W        W39899  14.105  11.394   1.355  0.0886 -0.1361  0.0669
21046W        W39900   7.115   3.572   4.168  0.2636  0.3334 -0.1499
21047W        W39901  11.992   6.316   2.900  0.4935 -0.0644  0.1653
21048W        W39902   9.164   1.834   1.323  0.0831 -0.1016  0.1875
21049W        W39903   3.778  16.914   2.971 -0.2678 -0.1237 -0.1360
21050W        W39904   6.647   9.637  12.514  0.2158  0.1291 -0.2745
21051W        W39905  18.632   4.274   3.565 -0.0521 -0.1981 -0.0543
21052W        W39906  10.989  12.832  14.583  0.0539 -0.0302 -0.0807
21053W        W39907   9.959  15.674   1.421  0.0508  0.0956 -0.3393
21054W        W39908  11.026  14.592  13.712 -0.2180  0.3206  0.1597
21055W        W39909  16.748   4.211   1.914  0.0479  0.1686 -0.1079
21056W        W39910  12.201   8.592   1.196  0.2601  0.0818 -0.1931
21057W        W39911   1.994   6.011   3.866  0.5804 -0.0400  0.1439
21058W        W39912   9.143   2.021   2.801  0.1350  0.2625  0.1122
21059W        W39913   3.893   6.443   5.347 -0.1128  0.0654  0.1999
21060W        W39914   7.983  11.939   3.296  0.0251 -0.0093 -0.1199
21061W        W39915   7.574   4.943   0.959 -0.1930  0.0590  0.0956
21062W        W39916   0.591   7.145  12.152 -0.1240  0.1108  0.1433
21063W        W39917  15.381  18.893  14.503  0.2059  0.0108  0.1953
21064W        W39918  15.011  10.160   5.022 -0.4096  0.0075 -0.0593
21065W        W39919  16.418   9.309   3.132 -0.0590 -0.1310  0.2870
21066W        W39920   1.994  14.099  12.917  0.0834 -0.2465  0.0649
21067W        W39921  10.431  15.295  10.505 -0.0858  0.4303  0.0145
21068W        W39922  13.513   7.456  12.354  0.1682 -0.1935  0.1653
21069W        W39923  14.678   4.960  11.192 -0.0786  0.0035  0.1001
21070W        W39924  10.049   9.612   2.436  0.1130 -0.0092  0.2149
21071W        W39925   4.269   0.867   5.030 -0.0494  0.1032  0.2931
21072W        W39926  10.308   1.755   3.491 -0.2360 -0.0608  0.1749
21073W        W39927  13.004   7.253  12.225  0.2739 -0.2014 -0.1554
21074W        W39928   8.887  15.600  14.137  0.1932 -0.2160 -0.3188
21075W        W39929   2.843   7.093  11.105 -0.0496 -0.1014  0.1053
21076W        W39930  16.210  13.158  10.707  0.2221 -0.0985 -0.0294
21077W        W39931  17.093  15.003   4.108  0.0023  0.3317 -0.3499
21078W        W39932  16.961  12.789  14.685 -0.2923  0.1504  0.3066
21079W        W39933  10.149  14.324  13.634 -0.0324 -0.1376  0.0964
21080W        W39934   2.859   8.901  10.105 -0.2332  0.0154 -0.2306
21081W        W39935   6.222   4.387  11.630 -0.0442 -0.0495  0.1062
21082W        W39936   5.151  15.811   1.557 -0.1076 -0.2228 -0.3066
21083W        W39937  10.530   2.296  12.703  0.1288 -0.1508 -0.0867
21084W        W39938  12.109   6.087   2.058 -0.2218 -0.0045 -0.5621
21085W        W39939   7.582   5.876  11.645  0.1312 -0.1437 -0.0343
21086W        W39940   5.115  15.126   0.554  0.1949  0.1713 -0.1363
21087W        W39941   6.038   7.971   3.920  0.0250  0.0452 -0.0751
21088W        W39942  19.078  16.358   2.118  0.1781  0.0466  0.0841
21089W        W39943   4.889   7.852   1.418 -0.2608 -0.0565 -0.1351
21090W        W39944  17.196   6.100   2.231  0.3486 -0.1423  0.3055
21091W        W39945  14.502   3.908  12.440  0.2389 -0.1161  0.1734
21092W        W39946   0.140  16.616  13.633 -0.1158 -0.0428  0.5018
21093W        W39947   2.982  17.337  11.522 -0.2116  0.0122 -0.1192
21094W        W39948   3.913   6.464   1.165 -0.1650  0.0277  0.1028
21095W        W39949  17.139   7.158   1.853  0.0473  0.3338  0.0258
21096W        W39950  14.816   8.819  12.450 -0.2323 -0.0219 -0.1417
21097W        W39951   3.430  18.881   4.225  0.1103  0.1106  0.1389
21098W        W39952   9.634   0.675   0.706  0.0340  0.0058 -0.2594
21099W        W39953   0.337  10.148  11.738  0.0721 -0.3251 -0.2280
21100W        W39954   1.646   9.042  12.844 -0.1943  0.1291  0.0808
21101W        W39955  12.963   2.090   3.915  0.1163  0.0861 -0.0293
21102W        W39956   9.035   3.794   0.869 -0.2516 -0.1055  0.0841
21103W        W39957   7.444  13.792   0.499 -0.1569  0.2339  0.1555
21104W        W39958  10.477   1.183  14.297  0.0719 -0.0801 -0.0153
21105W        W39959  12.666   2.670  14.601 -0.1380  0.0491  0.2181
21106W        W39960   8.112  12.260   9.875 -0.2721 -0.0929  0.0426
21107W        W39961  11.357  17.617   0.538 -0.0188  0.1774  0.1253
21108W        W39962  10.830  16.527  14.721  0.2626  0.2932 -0.0240
21109W        W39963   5.078   7.337   3.662  0.0828 -0.2119  0.2944
21110W        W39964   4.546  11.505   1.870  0.0766 -0.3964 -0.2525
21111W        W39965   6.231  13.713  10.989  0.0472  0.0696  0.0972
21112W        W39966   7.594   4.291  14.218  0.0779  0.1577 -0.2155
21113W        W39967   1.225  14.952   4.132  0.0264 -0.2860 -0.1892
21114W        W39968   9.572   0.181  12.944  0.2012 -0.1442  0.0985
21115W        W39969   6.086  14.350   4.076 -0.1020 -0.1515  0.0346
21116W        W39970  16.122  10.066   1.443  0.1058  0.2042 -0.0058
21117W        W39971   0.473  14.540  12.622 -0.3840 -0.0849 -0.1859
21118W        W39972  17.295   3.518  14.395 -0.3435 -0.0238  0.0907
21119W        W39973   7.440   9.108   0.122  0.0017 -0.1941  0.2849
21120W        W39974   9.709  13.231  11.721  0.2257  0.1276  0.1945
21121W        W39975  13.766  10.373   0.778  0.0222  0.0925  0.0280
21122W        W39976   6.924   6.958   1.388 -0.0776 -0.1043  0.1075
21123W        W39977  12.097  12.894   4.199  0.1643 -0.2490 -0.3347
21124W        W39978   4.405  11.058   1.218 -0.0065  0.0643  0.1440
21125W        W39979  10.878   0.806   3.657  0.0612 -0.2160 -0.1267
21126W        W39980  17.479  17.328  11.584  0.0098 -0.1047  0.0495
21127W        W39981  16.706   0.166   2.043  0.2267  0.0100 -0.1120
21128W        W39982  17.481  11.073  13.345  0.1334 -0.0369 -0.0619
21129W        W39983   4.140  14.873   0.837  0.2318  0.1929  0.0820
21130W        W39984   5.696   2.971   4.202 -0.0711 -0.2063  0.5465
21131W        W39985  13.319  13.305  12.694  0.1971 -0.0948  0.1958
21132W        W39986   2.814  13.672  10.439 -0.0090 -0.1837  0.0105
21133W        W39987  10.323  13.744   0.297  0.1904  0.1980 -0.1665
21134W        W39988   0.212  17.720   3.162  0.0694  0.0195 -0.3263
21135W        W39989   9.439   4.286  12.311 -0.1619  0.1955 -0.0634
21136W        W39990  10.816  15.512   5.013 -0.1357 -0.2394 -0.1908
21137W        W39991   3.388   7.181  11.171  0.2569 -0.1236  0.0980
21138W        W39992  10.375  14.597   3.846  0.0540 -0.0671  0.0736
21139W        W39993  12.778   9.301  12.666  0.0271  0.0438 -0.2875
21140W        W39994   1.632   6.836   3.496  0.0633  0.2340 -0.0213
21141W        W39995  15.020  11.779   3.682 -0.3677 -0.2082  0.0629
21142W        W39996  11.030  17.934   4.098 -0.1760 -0.0083 -0.1919
21143W        W39997  13.892  11.131   0.221  0.1440 -0.0352 -0.0943
21144W        W39998  14.336   0.802   5.697 -0.0425  0.6175  0.0906
21145W        W39999  12.978   2.121   1.602  0.1661  0.0023 -0.0933
21146W        W40000   3.689  16.599   1.390 -0.1105 -0.1583 -0.1789
21147W        W40001  11.239   5.938   4.895 -0.0580  0.0466 -0.1867
21148W        W40002  18.050  17.192   0.074  0.0310  0.1029 -0.0285
21149W        W40003   8.568  12.243   0.306 -0.0763 -0.1359 -0.1404
21150W        W40004  18.857  10.401  13.314 -0.2548 -0.0104 -0.2446
21151W        W40005  15.081  10.363  10.603 -0.1390  0.1878 -0.3483
21152W        W40006  14.648  14.374   3.104  0.0828 -0.0478  0.2631
21153W        W40007   8.347   8.494  10.750  0.0098 -0.0209 -0.3188
21154W        W40008   4.456  16.007   0.738 -0.1228 -0.2062  0.1172
21155W        W40009   5.300   1.896  12.032 -0.0425  0.1084 -0.0104
21156W        W40010   2.323   0.729   2.043 -0.4864 -0.1560 -0.4622
21157W        W40011   8.584  13.753   1.723 -0.0735 -0.4279 -0.2455
21158W        W40012   7.388  12.948   0.258 -0.0783 -0.2704  0.0305
21159W        W40013   3.390   6.409  12.239 -0.2143 -0.0619  0.1926
21160W        W40014   4.190   2.249   3.352 -0.1359  0.3138 -0.1038
21161W        W40015  10.853   6.641  12.720  0.0537 -0.1114  0.2444
21162W        W40016   1.232  13.305   4.497  0.2863  0.0499  0.1928
21163W        W40017  13.031  12.572   4.015  0.1716 -0.3810  0.3153
21164W        W40018  19.078   1.478   1.863 -0.0201 -0.1000  0.0454
21165W        W40019   4.215  16.181   3.411 -0.1758 -0.0085  0.2342
21166W        W40020  18.784   5.217  13.299  0.3114 -0.0597  0.1157
21167W        W40021   7.591  14.020   1.564  0.0438 -0.0011  0.0327
21168W        W40022  16.127   2.153  12.327 -0.0739  0.1364 -0.1396
21169W        W40023   3.955   9.638   3.949 -0.0628  0.0610 -0.1152
21170W        W40024  15.519  18.785  13.237  0.1759  0.3719  0.2594
21171W        W40025  15.458  11.943   3.297 -0.0414 -0.0705  0.0145
21172W        W40026  17.318  12.388  14.559  0.1927  0.1499 -0.1049
21173W        W40027  14.044  11.914   4.547  0.1717  0.0420 -0.0366
21174W        W40028   9.006   8.764   1.162  0.3671 -0.2701  0.0476
21175W        W40029  12.198   7.651   1.093  0.3450  0.1869  0.0492
21176W        W40030   2.672  12.663  10.960  0.0713  0.2805  0.2651
21177W        W40031   6.255   1.462   2.410  0.2363 -0.0196 -0.1493
21178W        W40032   6.424  18.703  12.990  0.3377 -0.0724  0.1317
21179W        W40033   7.468   5.074  10.615  0.0687  0.0088  0.1071
21180W        W40034   5.877  14.957   3.393  0.1475 -0.0628 -0.0170
21181W        W40035   9.397  18.504   2.467  0.1005 -0.3359  0.1754
21182W        W40036   2.886   2.438  12.612 -0.2802  0.0391  0.0306
21183W        W40037   3.175  11.637   2.465  0.0894  0.0800 -0.0808
21184W        W40038  18.548   8.331  11.701 -0.2054  0.0282 -0.2027
21185W        W40039   0.436   7.605  10.949  0.3209  0.3004 -0.0264
21186W        W40040  15.553   1.544  11.825 -0.2184  0.0870 -0.2653
21187W        W40041  17.424   4.751   1.143 -0.1147 -0.2067 -0.0417
21188W        W40042   9.066   4.675   3.484 -0.0817 -0.2140  0.2036
21189W        W40043   7.885   5.938   4.075 -0.0234 -0.2205  0.0250
21190W        W40044   0.633   1.669  14.039  0.0805  0.2663  0.1484
21191W        W40045   1.564   6.553   1.843  0.2806 -0.1222 -0.0877
21192W        W40046  17.285  11.889  14.332 -0.0327  0.3998 -0.3063
21193W        W40047  12.039   9.977  11.391  0.1044 -0.0541  0.2964
21194W        W40048   2.978   1.701  12.424 -0.0337  0.1692  0.2300
21195W        W40049   5.661   0.996  14.343  0.0445 -0.2836  0.0418
21196W        W40050  18.091  16.192   3.608 -0.0783  0.3016  0.0260
21197W        W40051  14.578  12.305  12.765  0.2064  0.1482  0.0649
21198W        W40052   7.340  14.503   2.108 -0.2750  0.0043  0.1280
21199W        W40053   7.682   0.000  11.641 -0.1409 -0.0759 -0.0772
21200W        W40054  17.242  18.317   0.022 -0.0220  0.0642 -0.1599
21201W        W40055  11.037  15.373   0.776 -0.3303 -0.0296  0.2301
21202W        W40056   7.736  15.198  12.942 -0.1266 -0.2957  0.1436
21203W        W40057   0.719   5.864  11.803  0.0888  0.0503 -0.0070
21204W        W40058   4.475   0.697   3.588 -0.0100 -0.0047  0.0888
21205W        W40059   5.646   0.847  10.826  0.3636 -0.1686 -0.2858
21206W        W40060   5.078   9.286   2.397 -0.0007  0.1170 -0.0260
21207W        W40061  17.535   8.774   0.450 -0.1820  0.1094 -0.2508
21208W        W40062  16.852   1.464  12.823  0.3723 -0.0522 -0.0236
21209W        W40063  14.577  14.066  13.372  0.0808 -0.0700 -0.1940
21210W        W40064  14.607   9.021   2.278 -0.1163  0.0417  0.4238
21211W        W40065   5.808   8.257   0.852  0.0309  0.4370  0.2549
21212W        W40066  16.458   6.674  10.264  0.0675 -0.0494  0.0410
21213W        W40067   9.621   0.686   2.147 -0.0123  0.0882  0.1996
21214W        W40068   6.077   4.816  10.659  0.0964 -0.3410 -0.0569
21215W        W40069  13.599  13.484   1.038  0.2069  0.2169  0.0873
21216W        W40070   5.483  11.978   4.721 -0.1812  0.0578  0.2114
21217W        W40071   4.521   5.700   1.902 -0.2652 -0.1179  0.2995
21218W        W40072   4.736  12.429   1.024 -0.0539  0.2248  0.1544
21219W        W40073  13.615   6.867  14.064  0.1631  0.1794  0.0192
21220W        W40074   6.702   0.503   4.837 -0.1472  0.0116 -0.2093
21221W        W40075   7.502  10.034  14.107 -0.0482  0.0864  0.1567
21222W        W40076   7.665  10.320   2.284 -0.1870 -0.0008 -0.0737
21223W        W40077  17.571  11.474   0.318 -0.0243  0.1235 -0.3234
21224W        W40078  17.250  18.551   1.044 -0.3135  0.1830  0.0297
21225W        W40079  12.888   1.208   2.280  0.0713 -0.0730 -0.3356
21226W        W40080  17.547   4.773  13.969  0.1323  0.1847 -0.1405
21227W        W40081   4.809  10.693   0.047 -0.1671 -0.1608  0.2025
21228W        W40082   4.444   2.783   4.454 -0.0706 -0.2892  0.0612
21229W        W40083   6.463   9.491  10.488  0.3537  0.1365  0.0606
21230W        W40084  16.823  14.312  11.491  0.0837  0.0179  0.0028
21231W        W40085   3.840  16.873   1.956  0.2389 -0.0772  0.2623
21232W        W40086   6.083  17.994  11.709  0.1672 -0.3029 -0.0376
21233W        W40087  10.572   3.646   1.963 -0.1451 -0.0413  0.0013
21234W        W40088   7.102  16.365   3.622  0.0044 -0.0437  0.2654
21235W        W40089  16.165   9.840   3.117 -0.0176  0.0648 -0.0447
21236W        W40090  12.271  10.504   3.663  0.3116 -0.1298  0.2788
21237W        W40091   4.715  18.507   1.958 -0.0856  0.1130  0.2401
21238W        W40092  12.122   6.043  14.281 -0.0787  0.1300  0.3094
21239W        W40093  12.318   4.826  13.835  0.3704 -0.0661  0.1528
21240W        W40094  16.030   9.216  11.619 -0.1111 -0.1625 -0.1048
21241W        W40095  14.834   6.236  10.315  0.0403  0.2334 -0.3510
21242W        W40096   7.603  10.135  12.131  0.4847 -0.1413 -0.2301
21243W        W40097   9.371  14.584   2.118 -0.1240 -0.2090  0.0190
21244W        W40098  11.970  13.408  14.319 -0.2774  0.0846 -0.1400
21245W        W40099   7.569   7.320  12.308 -0.1614  0.2967 -0.1846
21246W        W40100   1.256   7.631   3.722  0.0547 -0.0474  0.0285
21247W        W40101   1.528   2.109  10.194  0.1177  0.2173  0.1305
21248W        W40102  15.975  11.896   2.802 -0.2548  0.2917  0.0720
21249W        W40103   0.171   4.753  10.009  0.0553  0.2267 -0.0179
21250W        W40104  12.863   7.126  13.563  0.0784  0.1132 -0.0131
21251W        W40105  13.538   8.646  11.632 -0.0744  0.2091 -0.1889
21252W        W40106   9.344  16.450   4.017 -0.1533  0.1151  0.2209
21253W        W40107  11.049   8.992   0.956  0.1763  0.0250  0.2586
21254W        W40108   4.932  18.704  11.339  0.0345  0.0750 -0.2324
21255W        W40109  15.948  12.490  12.595  0.2752 -0.1174 -0.0187
21256W        W40110  16.727  18.346  10.963 -0.0313 -0.2082 -0.0310
21257W        W40111  18.126  16.375   1.445  0.0752 -0.3688 -0.1152
21258W        W40112  12.164   5.360   2.622  0.0781 -0.4430 -0.0665
21259W        W40113  13.791  15.165  11.797 -0.0782 -0.1833  0.3117
21260W        W40114   6.378  18.195  13.475  0.0415  0.0914  0.0115
21261W        W40115   5.203   1.490   2.579  0.2666  0.0745  0.2781
21262W        W40116   8.597   3.880  13.381  0.1546  0.1676  0.0810
21263W        W40117   3.392   5.429  14.166  0.1522 -0.1999 -0.0234
21264W        W40118   5.430   4.003   5.186  0.2296 -0.0060 -0.1063
21265W        W40119   7.388  17.167   2.875  0.1900  0.0873 -0.1662
21266W        W40120  10.114  11.515   5.382  0.0607  0.1613  0.1358
21267W        W40121  13.349   1.464   2.331  0.2064  0.1661 -0.2874
21268W        W40122  13.998   3.739  14.685  0.1376 -0.1508 -0.2009
21269W        W40123  13.663   4.840   2.542 -0.2302  0.3919 -0.1619
21270W        W40124   9.248   7.014  10.832 -0.1843  0.0753 -0.1127
21271W        W40125   0.355  10.373   0.634 -0.2144  0.0204 -0.2526
21272W        W40126  17.623  16.144   3.704  0.0080 -0.0588  0.1026
21273W        W40127   6.804   3.152   1.249  0.0576 -0.2928  0.1622
21274W        W40128   5.027   3.588   1.118 -0.1386 -0.1055 -0.1832
21275W        W40129   1.463   5.771  13.970 -0.3348  0.1464  0.2973
21276W        W40130   1.210   4.835  13.348 -0.1993 -0.1604 -0.1476
21277W        W40131  11.182  11.748  10.429 -0.2428 -0.2826  0.0236
21278W        W40132  17.913   2.026  10.620  0.1865  0.1204  0.0011
21279W        W40133  12.548  10.773  12.691 -0.1555  0.0898 -0.1503
21280W        W40134   2.088   9.109   2.533 -0.0011 -0.0068 -0.1316
21281W        W40135  13.038  18.748   9.838  0.0620 -0.2619  0.2097
21282W        W40136  13.266  16.369   4.678  0.0184 -0.1017  0.0151
21283W        W40137   7.450  14.547  14.119  0.2638  0.1254 -0.0091
21284W        W40138   8.369  10.711  13.813 -0.0103  0.2160  0.4897
21285W        W40139   9.945  15.448  10.724 -0.1502 -0.1762  0.2390
21286W        W40140   6.838   3.964  11.012  0.0384 -0.1223  0.1590
21287W        W40141  10.176   9.562  11.969 -0.1618 -0.0212  0.0348
21288W        W40142  10.358  16.745   0.651 -0.2202  0.0332 -0.2342
21289W        W40143   3.597   6.196  12.802 -0.6016  0.2146  0.0032
21290W        W40144  11.527  13.208  11.513 -0.1857 -0.1444  0.1674
21291W        W40145   6.191   9.167   1.400 -0.1656  0.0563 -0.0800
21292W        W40146   2.225  18.236   2.856 -0.2249  0.1613  0.2027
21293W        W40147  17.645  14.266  10.975  0.4656  0.0744 -0.1557
21294W        W40148   2.804  14.978   4.286  0.3739  0.0305 -0.0577
21295W        W40149  14.643   4.793   2.129  0.2236 -0.0611 -0.1286
21296W        W40150  16.583   6.776  14.287 -0.0834 -0.0145  0.1187
21297W        W40151   1.228   0.666  14.516 -0.2424  0.1615  0.2521
21298W        W40152   1.911   8.685  10.342  0.2792 -0.2602 -0.0267
21299W        W40153  11.382   1.552   3.478  0.1583 -0.0835 -0.0982
21300W        W40154   6.400   8.670   4.232 -0.0281  0.0580 -0.1821
21301W        W40155  13.046   7.135  10.300  0.0151 -0.0707  0.0803
21302W        W40156  15.377  10.669   2.161 -0.0270 -0.2746  0.2744
21303W        W40157   3.184   8.332   2.072  0.2002  0.0483 -0.2214
21304W        W40158   3.706  14.666  11.545 -0.0142 -0.3470  0.0976
21305W        W40159   1.430   2.786   0.149 -0.1118  0.2410 -0.1773
21306W        W40160   6.530  15.699  13.337 -0.1198  0.0633 -0.0514
21307W        W40161   5.676  18.120   4.241  0.1500  0.0114 -0.4641
21308W        W40162   6.079   3.075   3.798 -0.0635 -0.0224 -0.1324
21309W        W40163   6.540  10.978   1.036  0.2725  0.2855 -0.2257
21310W        W40164   5.149  10.611  13.270 -0.2346  0.0759  0.2985
21311W        W40165   9.186  15.542   2.963  0.1258 -0.3895 -0.3246
21312W        W40166  14.453   8.101   4.945 -0.0352  0.1068  0.0745
21313W        W40167  15.612   4.154  13.019  0.2073  0.2738  0.0363
21314W        W40168  17.382  13.813  12.334  0.2241  0.4975 -0.1691
21315W        W40169  11.556   8.106   1.387 -0.3284 -0.2806 -0.1660
21316W        W40170  14.680  16.753  11.068 -0.0923 -0.1388 -0.1574
21317W        W40171   2.244   8.423   1.284  0.0729 -0.1175 -0.1312
21318W        W40172   7.099  12.882  14.627  0.3222 -0.0212  0.1209
21319W        W40173  10.115  18.503  14.244 -0.3340  0.3829 -0.0505
21320W        W40174   4.090  16.441   4.050  0.0848  0.0668 -0.1071
21321W        W40175  11.004  13.253   5.336  0.0324 -0.3271  0.0287
21322W        W40176  10.597  15.361  10.969 -0.0405  0.0980 -0.2112
21323W        W40177   2.981   3.182   3.519  0.0916  0.1547  0.0019
21324W        W40178   5.860  13.831  12.529 -0.0103 -0.0670 -0.2487
21325W        W40179   6.048   6.010  12.193 -0.2448 -0.1749  0.0856
21326W        W40180  11.235  14.121  11.603  0.1570  0.0868  0.2979
21327W        W40181   0.370   5.110  14.310 -0.0632 -0.1993  0.1497
21328W        W40182   6.669   7.256   4.172  0.1456 -0.1466  0.2358
21329W        W40183  18.402  10.641  12.954 -0.0639 -0.2324  0.2479
21330W        W40184   5.450   5.026   1.546 -0.5706  0.0922  0.0286
21331W        W40185  13.119  11.851   2.980  0.2416  0.1909  0.1431
21332W        W40186   9.268   2.931   4.309 -0.3203  0.0422 -0.3457
21333W        W40187  16.314  12.203   2.133 -0.1039  0.1751  0.0549
21334W        W40188   8.131   9.606   2.913 -0.3330 -0.0792 -0.1077
21335W        W40189  13.862  17.846   4.600  0.2013  0.1210  0.1497
21336W        W40190  13.542  17.576   0.923  0.1630 -0.1241  0.0973
21337W        W40191   5.436   7.647  13.432 -0.2122 -0.0773  0.1112
21338W        W40192   2.023  11.564   0.937 -0.0735  0.5209  0.3435
21339W        W40193   5.503  12.300  12.480 -0.0592 -0.0700  0.0868
21340W        W40194  18.689  13.447   0.816  0.3016 -0.2610  0.1611
21341W        W40195   0.707   9.055  10.881 -0.0029  0.0076 -0.1199
21342W        W40196   8.116  17.595   2.378 -0.0415  0.0848 -0.2333
21343W        W40197  13.785   3.256   2.131  0.1164 -0.2139  0.0336
21344W        W40198   5.974   1.287  10.716 -0.0585  0.3482  0.3162
21345W        W40199   8.585  13.829  14.307 -0.0399  0.2435 -0.0334
21346W        W40200  15.121   2.936  14.166  0.2293 -0.2530 -0.1469
21347W        W40201  10.680  17.566   3.808  0.1245  0.1935 -0.1848
21348W        W40202  16.967  18.817   3.538 -0.2607  0.0728 -0.0244
21349W        W40203  10.492  16.037  12.892 -0.0318  0.0347 -0.0843
21350W        W40204  13.145   3.900  14.250  0.3431  0.3217 -0.0748
21351W        W40205  11.606  16.366   3.056  0.0278 -0.1141 -0.2075
21352W        W40206  13.859  12.679   3.601 -0.3213  0.0172 -0.2623
21353W        W40207   5.345   9.485  11.415 -0.2407 -0.1581 -0.1938
21354W        W40208   3.250   4.131   1.468 -0.4352  0.2537  0.1453
21355W        W40209  10.805   9.428  12.369  0.0846  0.0242 -0.0219
21356W        W40210  17.155   7.900  11.551 -0.0452 -0.0549  0.1036
21357W        W40211   9.034  10.310  10.776  0.2184  0.2555  0.0973
21358W        W40212   6.548   7.181  13.197 -0.2541  0.0252 -0.0013
21359W        W40213   3.172   2.629   1.857  0.1696 -0.1661 -0.0032
21360W        W40214  12.592  11.499  10.117 -0.0896  0.3292 -0.0858
21361W        W40215  15.346  10.148   1.016 -0.2963 -0.1063  0.0640
21362W        W40216   1.513   4.943   3.151 -0.0583 -0.2607  0.2833
21363W        W40217  18.001  10.610   2.376 -0.1035  0.3603  0.1229
21364W        W40218   9.658  15.594   1.953  0.5197 -0.0066 -0.3098
21365W        W40219   3.868   7.378  14.531 -0.2404 -0.0181 -0.2324
21366W        W40220  14.729  14.869  12.047 -0.0019  0.0335  0.2142
21367W        W40221   8.091   7.412  11.671  0.0616 -0.1884  0.0820
21368W        W40222   6.475   9.975   0.349 -0.0555 -0.2696  0.1179
21369W        W40223   2.097  11.622  14.613  0.3429 -0.3217  0.0969
21370W        W40224   0.423   1.829   1.115 -0.1337 -0.0025 -0.3097
21371W        W40225  15.761  16.109   0.155 -0.2893 -0.0191 -0.0116
21372W        W40226   4.196  15.451   3.895 -0.2008  0.0400  0.2809
21373W        W40227   1.284   2.334  12.664  0.0362 -0.1282 -0.0148
21374W        W40228  13.999  15.401  14.126 -0.2572  0.1270  0.1257
21375W        W40229  17.319   4.896  13.110  0.0085  0.0687 -0.0406
21376W        W40230   2.758   0.753   0.970  0.2838 -0.1569  0.1632
21377W        W40231   5.538   7.748  11.160 -0.0940 -0.2436 -0.2550
21378W        W40232  10.222   3.023  14.064  0.2009  0.0946 -0.1485
21379W        W40233   3.946   3.734   0.283 -0.0514 -0.2889 -0.0634
21380W        W40234  19.056   0.358  14.353 -0.0542  0.0398 -0.2176
21381W        W40235   2.930  12.824  11.389 -0.1824 -0.1364 -0.1233
21382W        W40236   5.755   6.578   0.647 -0.1947 -0.0637  0.5033
21383W        W40237   1.833   1.931  14.357 -0.0533  0.0788  0.0336
21384W        W40238   9.677  13.590  13.449  0.0179 -0.0856  0.0625
21385W        W40239   1.124   5.287   0.617  0.1429  0.1588  0.2654
21386W        W40240   0.318  12.143  13.189  0.3731  0.2321  0.1026
21387W        W40241   8.276  13.063  12.462  0.1692  0.0766 -0.2562
21388W        W40242   2.046   7.322  12.142 -0.3779 -0.1987  0.1439
21389W        W40243   1.803  14.106   4.187  0.1537 -0.0300  0.0449
21390W        W40244  15.353   5.830   2.302 -0.0267  0.0354 -0.1627
21391W        W40245  15.425  12.556  14.733 -0.1754  0.0388  0.0602
21392W        W40246   0.552  14.355  13.222  0.1280 -0.0769  0.1015
21393W        W40247   8.925   2.501   0.148 -0.2398 -0.2121  0.1204
21394W        W40248  12.467  10.356  13.601  0.1848 -0.2600 -0.0375
21395W        W40249  12.839  16.467  11.718  0.1129 -0.2698 -0.3724
21396W        W40250  13.213  13.199  11.942 -0.0184  0.1161 -0.0991
21397W        W40251   9.376  12.401   2.611  0.0992 -0.0687  0.0580
21398W        W40252   8.554  12.189   1.332 -0.3345 -0.0230  0.0564
21399W        W40253  17.879   1.030  10.989 -0.1405  0.0817  0.1690
21400W        W40254   3.413  13.808  14.134  0.0574 -0.0813 -0.0058
21401W        W40255  12.339  14.393   1.359  0.1132 -0.0198 -0.3114
21402W        W40256   9.562  13.302  12.208  0.1167  0.7953  0.2868
21403W        W40257   2.843  18.202  14.227  0.0651  0.3343 -0.0213
21404W        W40258  14.826   6.874   2.557 -0.4115  0.1201  0.1230
21405W        W40259   7.576  12.159   0.668 -0.0587  0.5297  0.2149
21406W        W40260   7.992   7.604   4.153 -0.3270 -0.4248  0.2348
21407W        W40261   1.793   9.489   5.386 -0.1653  0.0240 -0.1388
21408W        W40262   3.462   3.966  11.235 -0.1726  0.1459  0.0159
21409W        W40263  14.362  16.142   3.260  0.3235  0.0025 -0.4794
21410W        W40264   0.347   5.825   3.649 -0.0017  0.2363 -0.2999
21411W        W40265  18.750   9.534   2.705  0.2471  0.0176 -0.0503
21412W        W40266  10.910   1.991  11.415  0.2974  0.1309 -0.0694
21413W        W40267   6.752   3.266  12.397  0.4183 -0.1795  0.2351
21414W        W40268  14.396  17.106   2.321 -0.1426 -0.0185 -0.1789
21415W        W40269   4.515  10.662  13.302 -0.2357  0.1132  0.0501
21416W        W40270   3.265  13.446   1.809  0.0745 -0.2649  0.0344
21417W        W40271   8.751   2.021  10.828 -0.3342  0.1897 -0.0940
21418W        W40272   2.300   9.241  12.200 -0.2211 -0.3708  0.1273
21419W        W40273   3.048   7.987  11.483 -0.1441 -0.2452 -0.2838
21420W        W40274   2.995   4.701  11.815 -0.2815 -0.1425  0.0422
21421W        W40275   4.007   5.937  11.082  0.1370 -0.2333 -0.1693
21422W        W40276  10.575   0.697   0.435  0.1801  0.0034  0.3501
21423W        W40277   9.747  10.281  13.419  0.0597  0.1876  0.1319
21424W        W40278  14.306  10.502  12.236 -0.0009  0.2986  0.1669
21425W        W40279  12.144  10.978   3.618 -0.0424 -0.0036  0.0282
21426W        W40280   5.091  12.084   3.833 -0.1095  0.2957 -0.2327
21427W        W40281  14.076  18.282   4.743  0.3700 -0.2034 -0.1105
21428W        W40282  12.995   4.494   1.605 -0.3898 -0.3041  0.0823
21429W        W40283  15.359   8.761   3.517  0.2261 -0.1218 -0.1067
21430W        W40284   6.733  15.288  14.195  0.0296  0.0771 -0.3780
21431W        W40285   7.561   8.783  11.237  0.0473  0.1730  0.0430
21432W        W40286   0.068  12.120   1.763 -0.0771  0.0342 -0.2310
21433W        W40287   5.231  15.575  11.927 -0.2352  0.1819 -0.1912
21434W        W40288   1.085  15.105  14.271 -0.1808  0.0321 -0.2254
21435W        W40289   7.259  16.540   0.678 -0.2038 -0.0148 -0.1195
21436W        W40290  10.038  17.751  13.446 -0.2804  0.0558  0.1514
21437W        W40291  17.903  11.360  12.051 -0.0170  0.1897  0.0491
21438W        W40292  10.825  15.442   3.319  0.2410 -0.0944 -0.0704
21439W        W40293  15.203   9.656   1.201  0.2669  0.0007  0.0372
21440W        W40294  12.162  14.949   5.383 -0.1979  0.0802  0.0251
21441W        W40295  13.539   6.419   1.667  0.1168 -0.0742 -0.2123
21442W        W40296  13.632   9.986  14.131 -0.0045 -0.3531 -0.0283
21443W        W40297   2.950   6.143   0.134 -0.0219 -0.1196 -0.1602
21444W        W40298  13.542  12.364  10.825  0.0068  0.0170  0.0115
21445W        W40299   1.161  17.845   1.104 -0.3864 -0.1122  0.0008
21446W        W40300   7.060   5.100  11.580 -0.1127  0.0397  0.0918
21447W        W40301   2.486   1.087  13.881  0.1901  0.1229  0.1747
21448W        W40302   8.584   0.527  13.740  0.2023 -0.2395 -0.1375
21449W        W40303  13.892   4.440   3.681 -0.1767  0.2083  0.2626
21450W        W40304  15.250   8.909   1.734  0.0129  0.2945 -0.0423
21451W        W40305   1.799  15.350  12.351 -0.3428 -0.1664  0.0723
21452W        W40306   0.160   0.830   2.557 -0.3334  0.2269  0.0261
21453W        W40307   4.269   6.532   4.117  0.0313 -0.0244 -0.1486
21454W        W40308   8.422  14.167  11.022  0.0386 -0.2034  0.0602
21455W        W40309   2.908   5.098  13.606 -0.0575  0.0969 -0.3012
21456W        W40310  13.049  10.242   2.113 -0.0185 -0.1041 -0.0679
21457W        W40311   9.081   7.424  13.344 -0.0890  0.0633 -0.0809
21458W        W40312   1.585   2.037   1.128  0.0694  0.3133 -0.1069
21459W        W40313   7.921   3.650  10.644  0.0281  0.0046 -0.0195
21460W        W40314  16.200   0.887  12.389 -0.0820 -0.0279 -0.0343
21461W        W40315   1.103  11.431  12.271 -0.2605 -0.1209 -0.1046
21462W        W40316  13.971  13.339  14.725 -0.0303  0.0457 -0.0284
21463W        W40317  10.134   8.876   5.187  0.1107 -0.1948 -0.0558
21464W        W40318  15.226   5.115   3.243  0.0971  0.2288  0.2572
21465W        W40319  10.317   6.447  11.954  0.1917 -0.0431 -0.0929
21466W        W40320  17.694  16.397   0.175  0.1081 -0.1209  0.0281
21467W        W40321  17.992   5.233  11.751 -0.0113 -0.0013 -0.3652
21468W        W40322   9.793  16.228   4.183 -0.3223  0.1173 -0.0652
21469W        W40323  18.153   0.969  14.440 -0.0377  0.3021  0.2995
21470W        W40324   6.418  14.377  12.498 -0.2499 -0.3173 -0.1652
21471W        W40325  16.325  18.062   3.584  0.1131  0.0280 -0.4497
21472W        W40326   0.110   7.619  11.351  0.0856 -0.1937  0.1311
21473W        W40327  14.436   8.321   3.605  0.0967 -0.0388  0.2139
21474W        W40328  12.264   8.034  11.441 -0.1676 -0.0865 -0.0795
21475W        W40329  16.200  10.146   0.422 -0.3461 -0.3068 -0.1994
21476W        W40330  14.005   0.986   4.035  0.0608 -0.2427  0.3244
21477W        W40331   0.420  17.823  14.365  0.0415 -0.0917  0.0960
21478W        W40332   3.678   2.980   3.860  0.5127  0.0014  0.3874
21479W        W40333   1.500   2.423  11.973  0.0454  0.1461  0.1448
21480W        W40334   3.933  15.969  12.629  0.1544  0.0862  0.0800
21481W        W40335  11.068   5.336   1.524 -0.0546  0.1632 -0.1409
21482W        W40336   0.939  13.951   1.969 -0.0678  0.1462 -0.1177
21483W        W40337   8.299  11.500   3.393  0.0751  0.1909 -0.3283
21484W        W40338   3.638   0.853   1.433 -0.0556 -0.3095  0.3532
21485W        W40339   1.839   7.844  12.629  0.2148  0.0887  0.3539
21486W        W40340  14.708   7.600   2.120  0.3171 -0.0032  0.2202
21487W        W40341   1.551  15.093  11.301 -0.0634 -0.0251 -0.1923
21488W        W40342   9.852   9.291   0.567  0.2360 -0.0065 -0.2777
21489W        W40343  11.412  11.354  10.911 -0.3554 -0.0095  0.3567
21490W        W40344   9.308  18.102   0.382 -0.5265  0.0688 -0.1789
21491W        W40345   3.773   8.945  11.863  0.4056 -0.0481  0.0246
21492W        W40346   1.100  10.797  13.645  0.0728  0.1200  0.1442
21493W        W40347  15.674  17.236  12.906 -0.1154  0.1392 -0.1741
21494W        W40348  15.932  14.689   4.369 -0.0922 -0.1963 -0.3355
21495W        W40349   9.065   6.472  12.162  0.3152 -0.1558  0.1668
21496W        W40350  11.985  18.819   0.812 -0.2211  0.1064 -0.2085
21497W        W40351   1.331   5.409   1.574 -0.0495 -0.2085  0.2410
21498W        W40352   6.161  15.496  12.851 -0.1715  0.2172  0.1827
21499W        W40353  12.235   9.146   0.288  0.1760 -0.3122 -0.0282
21500W        W40354   8.013  16.912  12.980 -0.0518  0.2197 -0.0514
21501W        W40355   2.886   1.312   3.952  0.0445  0.0503  0.2566
21502W        W40356   5.734   6.875  11.709 -0.0102 -0.2544 -0.0719
21503W        W40357  12.810   4.397  12.661  0.1905  0.1096  0.1533
21504W        W40358  17.624   2.777  10.865  0.1413  0.2182 -0.0454
21505W        W40359   4.632  12.721  10.927 -0.2905  0.1584 -0.0575
21506W        W40360   5.266  11.172   0.698  0.4365  0.1927  0.2410
21507W        W40361  13.608   1.123   3.058  0.1719  0.0062  0.1538
21508W        W40362  10.972   9.748  12.691 -0.3483 -0.2140  0.2559
21509W        W40363  10.086  10.417  13.934 -0.0339  0.1327 -0.2909
21510W        W40364  18.802   2.718   1.392  0.1649  0.0903  0.2607
21511W        W40365  11.803   3.503   2.050  0.3538 -0.1958  0.4375
21512W        W40366   2.517   9.679  11.976  0.0800 -0.1770 -0.0118
21513W        W40367   6.086   0.348  14.062  0.3698  0.0157  0.2314
21514W        W40368   5.432   2.795  12.927  0.1967 -0.2143  0.1116
21515W        W40369   7.209   9.019   1.475 -0.0450 -0.1144  0.2743
21516W        W40370   8.662   1.830   2.768 -0.0363  0.0264  0.1054
21517W        W40371   9.086   9.282   1.694 -0.1591 -0.2370  0.0874
21518W        W40372  11.898  18.931   3.392 -0.1447  0.0004 -0.0175
21519W        W40373   8.417  16.674  13.093  0.1783  0.0731 -0.0399
21520W        W40374  10.365   8.107  13.783 -0.1958  0.1487  0.0227
21521W        W40375   9.236   7.181   3.784  0.2019  0.0859  0.0547
21522W        W40376  12.874  15.309   1.804 -0.0643 -0.0427  0.0395
21523W        W40377   5.933   5.205  13.998 -0.0574 -0.0759  0.0028
21524W        W40378  12.963  15.974  11.518  0.1470 -0.1302  0.1737
21525W        W40379  12.052  16.204   3.240  0.1752 -0.0270  0.2070
21526W        W40380   3.077  16.958  11.204 -0.1569 -0.3508 -0.1719
21527W        W40381   0.200  17.269   0.412  0.3424 -0.2259 -0.1702
21528W        W40382   7.872   5.878  12.457 -0.1710  0.0057  0.0146
21529W        W40383  16.854   5.703  14.245  0.1115 -0.2639 -0.1917
21530W        W40384  12.463  17.772  13.918  0.0889 -0.0762  0.1525
21531W        W40385   6.335   2.946   1.156  0.3339  0.0007  0.2657
21532W        W40386   4.593   8.580   1.257  0.2389 -0.0705 -0.2166
21533W        W40387   7.363  13.592   3.760  0.0944 -0.0517  0.1979
21534W        W40388  18.766   2.067   0.119 -0.0217 -0.0181  0.0948
21535W        W40389  17.774   6.123  14.733  0.0886  0.2120 -0.0413
21536W        W40390  15.058   3.181  13.394  0.3823  0.1642  0.1259
21537W        W40391  14.476  18.132  11.371 -0.2829  0.3660 -0.0173
21538W        W40392  13.758  18.334   0.275 -0.3423  0.2129 -0.0939
21539W        W40393  15.626  14.685  11.145 -0.0706  0.0190  0.0321
21540W        W40394  18.468  12.412   3.066  0.1297  0.0602 -0.0790
21541W        W40395  18.246   2.063   0.576  0.3037  0.1586 -0.3880
21542W        W40396   7.044  12.186   2.734  0.3133 -0.0064  0.4729
21543W        W40397   9.086   7.935   0.616  0.2684  0.0283  0.1671
21544W        W40398  14.762  15.199   2.531 -0.1130  0.2134 -0.2728
21545W        W40399   9.299   4.876  11.543  0.0587  0.2674 -0.0814
21546W        W40400  16.347  18.468   1.970  0.1960 -0.1800  0.2140
21547W        W40401   9.193  14.870   0.944 -0.1918  0.1105 -0.0463
21548W        W40402   5.369  12.119  10.965 -0.1496 -0.2664 -0.2086
21549W        W40403  12.124  14.906   1.197  0.1152  0.0465  0.0164
21550W        W40404   0.813  12.728   0.185 -0.0342 -0.0684  0.0442
21551W        W40405  16.466  17.806  12.197 -0.0893  0.0200 -0.3486
21552W        W40406   2.897  12.187   1.240  0.0422 -0.4631  0.0610
21553W        W40407   2.105  14.067  13.855 -0.1653  0.2333  0.2618
21554W        W40408   9.851   5.359   1.515  0.1611  0.1336 -0.0776
21555W        W40409  18.171   3.054   2.957 -0.3462  0.1341 -0.2564
21556W        W40410  15.714   1.391   2.354  0.0494  0.2029  0.3802
21557W        W40411  14.002   2.702   2.261 -0.1151 -0.0932  0.0680
21558W        W40412  11.608   0.400  10.706 -0.0305  0.1374  0.0061
21559W        W40413   1.404   1.125   0.525  0.1100  0.1217 -0.2699
21560W        W40414   1.859  16.647  11.124  0.1182  0.0720  0.3045
21561W        W40415   5.522   9.218  13.557 -0.1533  0.1457  0.1849
21562W        W40416  13.357   4.853   5.020  0.0081  0.0400  0.1995
21563W        W40417   7.705   6.732  14.521 -0.1099 -0.1128 -0.0857
21564W        W40418  12.211   9.708  11.745  0.2961 -0.0333  0.3609
21565W        W40419   5.377  18.045   1.622  0.2132  0.3138  0.1286
21566W        W40420   7.420  13.771  13.624 -0.0311  0.0403  0.1534
21567W        W40421   1.509  10.503  13.486 -0.0718 -0.1509 -0.1129
21568W        W40422  10.422   9.120  12.160 -0.0305 -0.3763 -0.1699
21569W        W40423   7.719  11.462  11.183 -0.0363  0.1420 -0.1103
21570W        W40424  10.770  18.499  11.383  0.2137  0.0144 -0.1342
21571W        W40425   0.534  18.470   1.625  0.1246 -0.0825  0.0588
21572W        W40426  14.256   5.559  11.362 -0.4718  0.0705  0.3040
21573W        W40427   1.290  17.191  14.533 -0.2361 -0.2256  0.0216
21574W        W40428  11.252   6.352   1.018 -0.1140 -0.1474 -0.1345
21575W        W40429   5.763  16.146   1.369  0.0239  0.0093  0.3368
21576W        W40430  16.113  10.402  12.470  0.0200  0.0972 -0.0186
21577W        W40431   4.737  11.562  12.547 -0.1137  0.2790 -0.0617
21578W        W40432  11.441   2.890   1.508 -0.3349  0.1769 -0.1817
21579W        W40433   8.763  17.290   0.044 -0.3149  0.1494  0.0645
21580W        W40434  11.818  12.503   2.782 -0.2164  0.0472  0.1874
21581W        W40435  14.924  11.295   2.976  0.2584 -0.1306 -0.2219
21582W        W40436  15.281   8.164  12.768  0.0141  0.0490  0.2126
21583W        W40437   3.100   5.452   3.069  0.1370  0.0743  0.4047
21584W        W40438   9.863  14.754   2.902  0.1658 -0.4094  0.2979
21585W        W40439  18.904   5.323  10.730 -0.4552  0.4389 -0.1614
21586W        W40440   8.050  12.791  11.056 -0.0037  0.3870  0.1187
21587W        W40441   2.573  17.604   0.326 -0.0663  0.0299 -0.0197
21588W        W40442   3.782  17.829  12.213  0.1108 -0.0299  0.1166
21589W        W40443   2.563   5.019  10.516 -0.2177  0.0287  0.0761
21590W        W40444  18.851  17.865  10.485  0.2974  0.0312 -0.0487
21591W        W40445   7.658   5.033   0.419 -0.1602  0.0988 -0.1703
21592W        W40446   8.546   6.051  11.226  0.1604  0.5142  0.3113
21593W        W40447   2.223   0.219   2.053  0.0546 -0.1876 -0.0748
21594W        W40448   3.979  14.813  14.714 -0.0860 -0.0970  0.3347
21595W        W40449  16.893   6.985   1.493  0.0361 -0.0034  0.1424
21596W        W40450  16.095  15.896  11.283 -0.4695 -0.0115 -0.0242
21597W        W40451  14.028   5.693  13.519  0.1152 -0.1330  0.0153
21598W        W40452   6.692   8.895   4.568  0.0173 -0.0094 -0.1709
21599W        W40453   5.629  18.467   1.540 -0.1455 -0.1255  0.3143
21600W        W40454  10.006   6.879  12.143 -0.0719 -0.1091 -0.0924
21601W        W40455  18.048   0.052   1.950  0.4177  0.0350 -0.1353
21602W        W40456   7.435   1.084  10.718 -0.0865  0.0342  0.2239
21603W        W40457   3.640  14.860   0.944  0.0756 -0.0020  0.1578
21604W        W40458  10.334  14.250   1.590 -0.1075 -0.1849  0.1630
21605W        W40459   4.996   9.929   2.958 -0.0274  0.0164  0.0293
21606W        W40460  18.862  17.844   3.817  0.0216  0.1826 -0.0303
21607W        W40461  14.265   4.613  13.442  0.0006  0.0831  0.0463
21608W        W40462   5.012  12.482  12.392  0.0296 -0.1196  0.1483
21609W        W40463   3.167   8.730  13.527 -0.1731  0.1694  0.0077
21610W        W40464   9.764  18.066  14.272  0.0483  0.0553  0.1942
21611W        W40465   0.631   4.949  12.047  0.0469 -0.0522 -0.2214
21612W        W40466   9.999   2.965   3.196 -0.1285  0.0110  0.0671
21613W        W40467  14.557   6.725  14.398  0.0825  0.2212 -0.0590
21614W        W40468   9.135   0.882   9.686  0.1210  0.1362  0.0020
21615W        W40469   0.306  12.509   1.470 -0.2963 -0.1189  0.1136
21616W        W40470  14.106  15.221   4.194 -0.2461  0.0917 -0.0830
21617W        W40471   4.679   0.833   2.526 -0.2062  0.1442 -0.1697
21618W        W40472   0.306   8.512   0.119  0.2311 -0.1745 -0.0590
21619W        W40473  10.623   8.065  14.665  0.3266  0.1809  0.2338
21620W        W40474   7.623   5.723  13.734  0.1918 -0.0258  0.1072
21621W        W40475   7.638   5.760   3.553  0.0981 -0.1172  0.1865
21622W        W40476  16.239  19.077  14.637  0.1609  0.0708  0.0346
21623W        W40477  11.904  14.223   1.553 -0.3495  0.0115  0.3045
21624W        W40478  17.142  10.952  12.566 -0.1108  0.1291  0.0108
21625W        W40479  14.607  16.584  13.081 -0.0945  0.0079 -0.0728
21626W        W40480  13.869   4.791   9.989 -0.0500 -0.3272 -0.1630
21627W        W40481   4.872   6.762  10.451 -0.2562 -0.0714 -0.2555
21628W        W40482  15.818   4.614  11.426  0.0654  0.3449  0.0295
21629W        W40483   1.844   3.497   4.175 -0.0505  0.0974 -0.0181
21630W        W40484  15.070  18.023   1.511  0.0389  0.0369  0.0388
21631W        W40485  18.525   4.823   3.579 -0.1147 -0.1006  0.0053
21632W        W40486  14.716  16.706   4.447 -0.1792 -0.2399 -0.1273
21633W        W40487   9.274   3.784   3.763  0.0384 -0.2312  0.0023
21634W        W40488  16.216   0.388  12.350 -0.4151  0.1650 -0.0035
21635W        W40489  12.786   2.448   4.546 -0.1639  0.0943  0.2224
21636W        W40490   8.274  15.217   2.859  0.1519  0.1546 -0.0783
21637W        W40491   5.446   6.759  11.197 -0.0319  0.3054  0.2145
21638W        W40492   9.293   2.059   4.046  0.2319 -0.1122 -0.2303
21639W        W40493  11.825  11.264   2.258 -0.0890  0.1722 -0.1174
21640W        W40494  10.479   8.946   1.097 -0.0290 -0.1263 -0.1045
21641W        W40495   6.664   7.802   1.481 -0.0846  0.1370  0.2735
21642W        W40496  11.788  17.467  13.889 -0.1678 -0.1783 -0.0204
21643W        W40497   9.688   9.782  10.119 -0.1913  0.0918  0.3259
21644W        W40498  16.095  15.402   2.925 -0.2286  0.1711 -0.2126
21645W        W40499   6.107  18.459   4.620  0.0383  0.2063 -0.0547
21646W        W40500  14.430  11.102  11.722  0.1601  0.2928  0.0959
21647W        W40501  14.012  11.553   2.983  0.0314 -0.2699  0.0186
21648W        W40502  10.988   6.103  10.574  0.1525 -0.2826  0.0634
21649W        W40503   5.423   7.130   4.130 -0.2155  0.1598  0.0572
21650W        W40504  19.057   5.024   1.071  0.1905  0.0009  0.0888
21651W        W40505   5.105   5.167  11.453  0.3266 -0.0151  0.0819
21652W        W40506  18.105  17.226  12.434  0.0128  0.1189 -0.2464
21653W        W40507  10.365  13.875  13.888  0.1335  0.3426  0.0660
21654W        W40508  16.689  10.664  13.654 -0.0683 -0.1079 -0.1824
21655W        W40509  11.153   5.189   2.715  0.1291  0.2698 -0.0493
21656W        W40510   7.214   8.648   0.185  0.0467 -0.3039 -0.1411
21657W        W40511   3.910  10.287  12.025 -0.2356 -0.0065  0.2257
21658W        W40512  16.228  17.290  13.857  0.1267  0.3498 -0.0941
21659W        W40513  15.877  12.840   2.100 -0.2579 -0.2627  0.1709
21660W        W40514   6.123   8.541  11.035  0.0907 -0.2208  0.1907
21661W        W40515  15.481   7.279   3.754  0.1969  0.0873 -0.0238
21662W        W40516   5.019  12.543   4.012  0.1280 -0.1738 -0.3151
21663W        W40517   1.665  15.630   2.003 -0.2085 -0.0603 -0.0680
21664W        W40518   9.390   2.917  14.421 -0.1342 -0.4701  0.0910
21665W        W40519  18.001  11.254   2.902 -0.0379  0.0004  0.3509
21666W        W40520  18.387  17.322   5.339 -0.1516 -0.0109 -0.4194
21667W        W40521   4.219  14.271   2.018  0.0760  0.0644 -0.0877
21668W        W40522   8.114   9.378  10.669  0.0226 -0.0080  0.0534
21669W        W40523  18.129  14.047   4.351 -0.1686 -0.2827  0.2822
21670W        W40524  14.291  19.156   0.007  0.0524  0.0252  0.0678
21671W        W40525   0.866   5.399   3.548  0.0924  0.1012 -0.0754
21672W        W40526  11.085  12.554  14.013  0.2256 -0.0280 -0.0146
21673W        W40527  14.066  12.319   3.283 -0.0765 -0.4701  0.1652
21674W        W40528   6.317   8.110   1.231  0.0138 -0.2630 -0.2127
21675W        W40529  17.735  15.303  12.939 -0.2207  0.1820 -0.2122
21676W        W40530   3.296  12.644   1.085  0.0363 -0.1454  0.0287
21677W        W40531   1.565  17.820  14.434 -0.2575 -0.1173  0.1652
21678W        W40532   7.956   7.691  13.068 -0.2395 -0.0849  0.2562
21679W        W40533  18.837   1.657   3.525 -0.0536 -0.1463 -0.0620
21680W        W40534   6.122  13.835  14.555 -0.2789  0.1502 -0.2002
21681W        W40535  16.102   6.623   1.744  0.0617 -0.2072 -0.0175
21682W        W40536   7.134  15.668   2.178  0.3306  0.1480 -0.1540
21683W        W40537   4.755   5.132   0.293 -0.1634 -0.0747  0.1198
21684W        W40538  18.009  11.194  12.581  0.1699 -0.0287  0.1922
21685W        W40539  18.144  18.402   3.835 -0.0422  0.3529  0.1272
21686W        W40540   5.016   9.098  13.634 -0.4210  0.0974  0.1776
21687W        W40541   9.976   7.118   0.654 -0.1558  0.1581 -0.1569
21688W        W40542  18.392   7.380   2.668  0.0795  0.3371  0.0858
21689W        W40543   9.048  15.717   1.546  0.2335  0.0180 -0.1241
21690W        W40544   1.839   1.375  14.393 -0.2966 -0.2351  0.1122
21691W        W40545  13.545  14.577   3.843  0.0204 -0.0440  0.0145
21692W        W40546   2.645   3.565  12.721 -0.1321 -0.0597 -0.4379
21693W        W40547   8.000  11.567   2.923 -0.1463  0.4014 -0.0135
21694W        W40548   5.297  13.784  10.863  0.1454  0.0065  0.1644
21695W        W40549  15.257   0.080   0.445  0.0206 -0.2151  0.3154
21696W        W40550   2.425   2.950  13.358  0.1586 -0.2953  0.3361
21697W        W40551   9.927  11.249   2.121 -0.1548 -0.0356 -0.2794
21698W        W40552  19.120  18.245   2.018  0.0684 -0.0164  0.0449
21699W        W40553  12.102   0.172  14.677 -0.2392 -0.0680 -0.1764
21700W        W40554  16.588  18.490  13.773 -0.1094 -0.3204  0.2624
21701W        W40555   7.599   7.083   2.126 -0.1488  0.0715  0.1477
21702W        W40556  18.732  14.495   1.417 -0.0206 -0.1562 -0.3298
21703W        W40557   4.223   2.875   0.167 -0.2468 -0.0357 -0.1097
21704W        W40558   7.422   6.034  12.647  0.0131 -0.3100 -0.0331
21705W        W40559   8.334   9.746  10.903 -0.1232  0.0498  0.1638
21706W        W40560  18.718   3.769   0.414  0.1212  0.0056 -0.0198
21707W        W40561  11.780   5.612  10.466  0.3769 -0.0249 -0.2743
21708W        W40562   4.811  14.979   2.473 -0.1771 -0.2595  0.0509
21709W        W40563   8.968  12.505   1.192 -0.1770 -0.1316 -0.2474
21710W        W40564   3.395   2.363  11.881  0.0608  0.0802 -0.0476
21711W        W40565   0.088   8.839  14.571  0.1461 -0.1567  0.0403
21712W        W40566  14.676  12.679   2.681 -0.1043 -0.2322  0.0994
21713W        W40567   4.972  17.240   4.138 -0.1112  0.2160  0.0432
21714W        W40568  12.326  10.412  12.316 -0.0759 -0.3169  0.1376
21715W        W40569  11.744  13.073  13.452 -0.1541 -0.0623  0.0921
21716W        W40570   9.084   2.433  11.045 -0.0424 -0.0394 -0.0319
21717W        W40571  18.860  17.791  12.677 -0.2284  0.0904 -0.0541
21718W        W40572  16.769   0.998   1.024  0.2818 -0.0188  0.0046
21719W        W40573  14.152   5.117  13.017  0.1965  0.2441 -0.1073
21720W        W40574  12.883   1.869  11.780 -0.3634  0.0910 -0.0407
21721W        W40575  14.818  14.195  13.818 -0.0191 -0.1622  0.0573
21722W        W40576  16.420   5.891  11.980  0.0191  0.0920 -0.1894
21723W        W40577  18.588  13.147   2.375 -0.0225  0.0166  0.2323
21724W        W40578  17.876  13.264  12.509 -0.1526  0.1189 -0.3647
21725W        W40579   4.878  12.806   0.603 -0.1203 -0.0922 -0.1538
21726W        W40580  10.832   4.930   4.097  0.0944 -0.0631 -0.0693
21727W        W40581   4.632  16.478  12.842 -0.0087 -0.0834  0.0040
21728W        W40582   2.884  18.762  11.085  0.1032  0.0346 -0.0322
21729W        W40583  14.119  16.954  11.778  0.2778  0.0100  0.3849
21730W        W40584  10.482  14.030  14.391  0.0788  0.0653 -0.0318
21731W        W40585  18.262   3.470  13.226 -0.1704  0.0014 -0.0493
21732W        W40586  15.983  13.385   2.086 -0.1231 -0.0539 -0.1227
21733W        W40587   8.885  12.343   2.707  0.0731 -0.0621 -0.1296
21734W        W40588  14.229   3.106  12.181  0.1391  0.2960 -0.0011
21735W        W40589  17.261  18.813  12.580 -0.0558 -0.0572 -0.0424
21736W        W40590   0.124   0.837   0.214  0.1129  0.1306  0.0630
21737W        W40591   2.749  16.874  13.544  0.3399  0.1638  0.1137
21738W        W40592  13.117   3.991  12.881  0.0756 -0.3477  0.3575
21739W        W40593   0.680  15.906   1.497 -0.2011  0.2006  0.1827
21740W        W40594  19.106  16.984   3.453 -0.0906  0.1475 -0.3142
21741W        W40595  18.292   8.136  10.735  0.2894  0.0365  0.1427
21742W        W40596   1.959  18.191  11.902  0.1390  0.3085 -0.0331
21743W        W40597   2.184  18.578  13.517 -0.0501 -0.1364  0.0974
21744W        W40598  10.838  14.800  12.870 -0.4427  0.1654  0.1173
21745W        W40599   8.646   3.209  10.725 -0.0885  0.1317  0.0173
21746W        W40600   7.821   8.313   0.396 -0.0401  0.2494 -0.0216
21747W        W40601   9.798  16.685  10.477  0.0793  0.1508 -0.0359
21748W        W40602  15.083  14.104   1.464 -0.0549  0.1162  0.2711
21749W        W40603  12.967   4.013   1.580 -0.0219 -0.1649 -0.1742
21750W        W40604   2.759   9.551  12.408 -0.2288  0.0702 -0.1146
21751W        W40605   0.546  15.027  12.376 -0.2004  0.0322 -0.0158
21752W        W40606  17.326   4.932  11.235 -0.0998  0.0498 -0.0871
21753W        W40607   0.100  15.226   2.927 -0.1410  0.0136  0.1575
21754W        W40608   2.904   1.249  12.692  0.4830 -0.2687  0.1282
21755W        W40609  11.724   7.587  10.997  0.1488  0.0220  0.1001
21756W        W40610   8.478  16.828   1.473 -0.0869  0.0361 -0.2481
21757W        W40611  13.178  18.179  12.262 -0.0606 -0.2989  0.0536
21758W        W40612  16.957  18.302  11.400  0.0278  0.4467  0.1165
21759W        W40613   5.004   0.664  12.466  0.2407 -0.1100 -0.1435
21760W        W40614  16.137   8.077   0.705 -0.0244 -0.0936  0.1494
21761W        W40615   1.329   0.735  11.805 -0.1702  0.2482  0.1021
21762W        W40616  12.716   6.879  12.366 -0.0108 -0.0710 -0.2550
21763W        W40617   0.811  12.063  12.207  0.0174  0.0832 -0.3395
21764W        W40618   6.967  12.014   1.907 -0.2986 -0.0913  0.4016
21765W        W40619   0.462   8.824   9.418  0.3048 -0.1252  0.0405
21766W        W40620  11.453   6.744   4.334  0.1035  0.0304 -0.0081
21767W        W40621   0.479   4.689  14.621  0.2885 -0.0300  0.1337
21768W        W40622  13.741   4.151   0.673  0.0032  0.0625 -0.0935
21769W        W40623   6.313   5.004   0.912  0.0724  0.0206 -0.1215
21770W        W40624   3.934  11.442   2.696  0.3114  0.1955  0.1772
21771W        W40625   8.998  18.808  13.216  0.1371  0.0070  0.1532
21772W        W40626   8.210  16.931   3.176 -0.0599  0.1240 -0.1024
21773W        W40627  11.612   6.223  14.636 -0.2439  0.2174  0.2308
21774W        W40628   6.599   1.636  10.356  0.4547 -0.0617 -0.4510
21775W        W40629  16.418  15.131   0.625 -0.2150 -0.2732 -0.0041
21776W        W40630   6.519  12.431  12.044  0.0857  0.0511 -0.1262
21777W        W40631   3.700   0.366   2.985 -0.3172  0.0649  0.0112
21778W        W40632   4.369  11.714  14.341  0.1852  0.0035 -0.3128
21779W        W40633   9.405  10.301   0.786 -0.1387  0.2286  0.0250
21780W        W40634  14.781  12.654   1.341  0.3626 -0.1495  0.0526
21781W        W40635  11.867  19.055   1.282 -0.1399 -0.2928  0.1006
21782W        W40636   7.453  18.543   5.626 -0.1106 -0.1877  0.2655
21783W        W40637   2.072  13.978   3.784  0.1739 -0.0073 -0.0785
21784W        W40638  16.135  16.695  11.176  0.0527 -0.0312  0.1438
21785W        W40639  11.076  11.432  12.572 -0.1442 -0.0515 -0.0609
21786W        W40640  17.390   8.143  11.997  0.1065  0.3336 -0.0873
21787W        W40641   8.394   0.720  11.268  0.1370  0.3444  0.1252
21788W        W40642  11.890  18.470  14.240 -0.3555  0.2857 -0.0695
21789W        W40643   1.420   8.103  12.946 -0.2376 -0.1219  0.3575
21790W        W40644   9.793  13.327  11.179 -0.1929 -0.0071  0.1254
21791W        W40645   9.035  14.826  12.386 -0.1716 -0.2218 -0.0910
21792W        W40646  14.181  16.003   3.826  0.5028  0.0940 -0.0877
21793W        W40647   1.511   9.449   3.126 -0.0102  0.1888 -0.0524
21794W        W40648   6.849  17.337   3.244 -0.0373 -0.0821  0.1554
21795W        W40649   9.779   3.503  13.871 -0.0662 -0.2085 -0.0562
21796W        W40650  11.950  17.106  14.327  0.0173 -0.1681  0.0954
21797W        W40651  18.191  11.260   3.965 -0.0403  0.1953  0.3976
21798W        W40652  15.405  14.163  13.909  0.0114  0.0226 -0.1281
21799W        W40653  18.622  16.408   2.263  0.2159 -0.1682  0.2978
21800W        W40654  11.115  12.302   0.223 -0.1091 -0.3059  0.1648
21801W        W40655   2.079   3.757  12.139  0.0306 -0.4749  0.2735
21802W        W40656  19.135   6.960   1.022 -0.1608  0.2163 -0.1838
21803W        W40657   4.523   5.265   3.136  0.1345  0.0121  0.0157
21804W        W40658  15.082   9.019   2.270  0.0446 -0.2710 -0.1468
21805W        W40659   2.763   3.932  12.439 -0.2723  0.0102 -0.2698
21806W        W40660  16.587  17.103   5.362 -0.2110  0.2254 -0.1722
21807W        W40661  13.804  15.992   1.979 -0.0948 -0.1552  0.4669
21808W        W40662  14.414   3.910   1.428  0.2287 -0.0759  0.3840
21809W        W40663   6.707   1.326  14.214  0.2389  0.0654  0.2004
21810W        W40664  10.053  14.020   5.391  0.1819 -0.0669  0.0022
21811W        W40665   5.076  12.734   2.789 -0.1412  0.5563  0.0846
21812W        W40666   4.663   0.714   4.162 -0.1069  0.2863  0.0988
21813W        W40667   3.432  17.128  12.131  0.3868  0.1064  0.0024
21814W        W40668   5.980  11.434   0.166 -0.1844  0.3261 -0.1326
21815W        W40669   2.492   2.508   3.495 -0.3564 -0.2623  0.0422
21816W        W40670   8.536   0.039   0.731  0.5975  0.1342 -0.2784
21817W        W40671   6.831   4.956  12.463  0.1211  0.0508  0.0434
21818W        W40672   2.419   9.358  13.304  0.1887 -0.1732 -0.3647
21819W        W40673   4.201   6.044   4.092  0.2931 -0.0663 -0.0299
21820W        W40674  12.875   9.203   0.589 -0.0857 -0.1534  0.1841
21821W        W40675  17.736   2.351  11.484  0.0420  0.0289 -0.3846
21822W        W40676  14.139   5.626  10.881 -0.0215 -0.0167  0.1753
21823W        W40677  19.178   7.056  12.084  0.1778  0.3234 -0.0294
21824W        W40678  18.192  18.299  14.577 -0.2060 -0.1503 -0.1238
21825W        W40679  17.824  11.415   4.310 -0.0332 -0.1638  0.0044
21826W        W40680  14.252  15.425   4.746 -0.1293 -0.1150  0.0821
21827W        W40681  14.327  18.178  10.862  0.1428 -0.2575  0.1234
21828W        W40682  17.407  17.707  10.974 -0.0724  0.2546  0.2717
21829W        W40683   5.542  12.578  13.464 -0.1485 -0.2489 -0.1669
21830W        W40684  14.249   3.219  13.314  0.3018  0.1057  0.2253
21831W        W40685  11.956   2.508  11.400  0.1739  0.0178 -0.2468
21832W        W40686   7.979   5.734  10.659  0.4490 -0.1369  0.1633
21833W        W40687  15.572  14.196   9.724  0.2105  0.0216  0.3333
21834W        W40688   9.251  16.641  11.824 -0.0699 -0.0574  0.0054
21835W        W40689  17.538  16.905   4.096 -0.0323  0.1277 -0.2304
21836W        W40690  15.299  15.015   1.678  0.0137 -0.0356 -0.2321
21837W        W40691  14.119  17.461   0.144  0.1061 -0.0341  0.1724
21838W        W40692   6.458   5.457  12.071  0.1598  0.0271 -0.2910
21839W        W40693  13.419   5.032  13.736 -0.2131  0.1632 -0.1276
21840W        W40694   6.977   6.065   9.809 -0.3384  0.0922  0.1121
21841W        W40695  10.427   7.878   3.002 -0.1752  0.0070  0.3065
21842W        W40696  10.741   5.288  12.394  0.0665 -0.2879 -0.0059
21843W        W40697  18.810  16.132   3.684 -0.0271  0.1325  0.0518
21844W        W40698   4.948  18.057  14.491 -0.0043 -0.2535 -0.0793
21845W        W40699   4.283   3.353  14.189 -0.0749  0.1197 -0.0974
21846W        W40700   5.484  17.295  10.475 -0.2685  0.1433 -0.4712
21847W        W40701   0.467   6.395   0.494 -0.1536  0.1686  0.1284
21848W        W40702  18.949  12.674   3.068 -0.0142  0.0245 -0.1067
21849W        W40703   2.282  11.069  11.604 -0.0301  0.0806 -0.2026
21850W        W40704  13.329  12.589   1.837 -0.0920 -0.1451 -0.2037
21851W        W40705  15.355   2.979   0.878  0.0676 -0.1260 -0.4006
21852W        W40706  13.067  18.104  11.394  0.1823 -0.0988 -0.1159
21853W        W40707   1.852  13.536   2.759 -0.0568 -0.2799  0.1770
21854W        W40708  12.498   7.872   1.529  0.2062  0.2454  0.0449
21855W        W40709  16.791   4.501  11.257 -0.2232 -0.3169  0.0174
21856W        W40710  14.574  11.069   3.526  0.0612  0.1002  0.0859
21857W        W40711   2.335   5.195  12.324 -0.1655  0.1297  0.2102
21858W        W40712   8.106   7.546   0.007  0.3291  0.3245  0.0361
21859W        W40713   6.035   0.222   1.427  0.4039 -0.0780  0.3073
21860W        W40714   1.527   7.566   2.712 -0.0028 -0.1794 -0.2844
21861W        W40715  13.611  15.600   2.917  0.2069  0.2954 -0.0881
21862W        W40716   4.468  14.954   2.799  0.0118  0.2321 -0.1264
21863W        W40717  11.803   5.656  14.021  0.0037 -0.3242 -0.0684
21864W        W40718   8.660   8.359   1.790 -0.2853 -0.2006  0.4817
21865W        W40719  14.194  16.876   4.364 -0.2755 -0.0396 -0.1989
21866W        W40720  17.795   4.756  11.633 -0.1800  0.1421  0.1322
21867W        W40721   0.549  18.146   3.196  0.0519 -0.1203  0.1092
21868W        W40722   6.780   9.535  11.095  0.2194 -0.0837 -0.1198
21869W        W40723  14.853   1.469   2.095 -0.0866 -0.2484  0.1855
21870W        W40724   4.030   5.724   1.784  0.1240  0.1714 -0.0450
21871W        W40725   5.969  10.781   3.616 -0.0234 -0.1034 -0.0405
21872W        W40726  12.386  18.390   2.700  0.0280  0.2421 -0.1088
21873W        W40727  14.527  10.109  12.980  0.2065  0.2626  0.2043
21874W        W40728  11.386   5.250  13.085 -0.0013  0.5594  0.2802
21875W        W40729   9.391   4.688  14.557  0.1084 -0.1237 -0.3576
21876W        W40730   5.294   7.538  11.618 -0.0482  0.0383 -0.1430
21877W        W40731  18.837  13.029   3.969 -0.0856  0.2112  0.2922
21878W        W40732   1.406   1.627  10.079  0.2295  0.1659  0.1250
21879W        W40733   8.841  12.337   1.783  0.0917  0.0810  0.1957
21880W        W40734   1.297   4.628   2.326  0.0305  0.1350 -0.0207
21881W        W40735   1.393   5.111  10.829  0.1551 -0.3259  0.2935
21882W        W40736   0.534   4.105  14.295  0.1109  0.0941  0.0098
21883W        W40737  13.206  10.768   4.021  0.0988  0.1293  0.1220
21884W        W40738  17.088   9.246   0.540  0.2917  0.0549 -0.3081
21885W        W40739  14.007  12.269  10.957 -0.1243  0.1523 -0.1155
21886W        W40740   1.260  11.880  10.656 -0.1748 -0.2043  0.0725
21887W        W40741  11.819   3.842   1.295 -0.0930  0.0923 -0.1594
21888W        W40742  18.981  17.556   0.445 -0.0247 -0.0043 -0.1823
21889W        W40743  18.114  18.347   0.490 -0.1743 -0.2185 -0.0522
21890W        W40744  11.731   7.929  14.257 -0.2642 -0.0990  0.0297
21891W        W40745   5.968   3.743   2.760 -0.0170  0.0270 -0.3428
21892W        W40746  16.506  15.673   0.523 -0.0929  0.3253 -0.0497
21893W        W40747  12.629  14.473  10.363  0.1906  0.2220 -0.4743
21894W        W40748  16.073   4.210  11.154 -0.1070  0.0066  0.3421
21895W        W40749   4.688   6.587  10.981  0.1011  0.2466 -0.3719
21896W        W40750  13.233  16.766   4.120  0.0808  0.3839 -0.0104
21897W        W40751  12.327  16.196   1.962  0.1154  0.0098  0.5265
21898W        W40752   0.615   1.030   2.440 -0.0519 -0.0034  0.3113
21899W        W40753  16.622  16.625  14.299  0.0905 -0.1881  0.1480
21900W        W40754   6.666   3.827  12.407  0.2738  0.0312  0.1024
21901W        W40755   7.064   1.873  10.342  0.1092 -0.0467 -0.0674
21902W        W40756   3.099   2.399   2.726  0.0720  0.1915 -0.1860
21903W        W40757   9.331   2.497  12.854 -0.0446 -0.2708  0.1788
21904W        W40758   6.294   6.145   1.155 -0.1260  0.1205  0.1137
21905W        W40759  17.797  15.792   0.861  0.4004  0.1619  0.1036
21906W        W40760   5.833  11.305   9.993 -0.0862  0.1176  0.0162
21907W        W40761  18.227  11.666  11.194  0.2578  0.1211 -0.1021
21908W        W40762  17.571   7.598  11.515  0.1336 -0.1909 -0.0332
21909W        W40763   2.864  13.652   9.703  0.0689  0.2187  0.0459
21910W        W40764  16.550  18.541  11.774  0.2035 -0.0489  0.3095
21911W        W40765  10.781   4.820   2.867 -0.0097  0.0935 -0.1751
21912W        W40766  16.276  15.925  10.742 -0.1063  0.1311  0.1440
21913W        W40767  10.402   9.229   3.963 -0.0185  0.2053 -0.0845
21914W        W40768  10.773   7.786  12.593  0.1581 -0.0340  0.2598
21915W        W40769   2.605   4.022   3.583  0.4344 -0.1151 -0.1171
21916W        W40770   6.442   9.091  12.505  0.3214 -0.3605 -0.2401
21917W        W40771   9.475  19.082  11.870  0.1598  0.3832  0.1327
21918W        W40772  15.236   2.015   4.121  0.1246 -0.0709 -0.1884
21919W        W40773   1.502   1.034   2.274  0.0510 -0.1220 -0.3211
21920W        W40774   3.379   4.515   1.147 -0.1005  0.3887  0.0012
21921W        W40775   2.604   6.074  14.458 -0.0365  0.0431 -0.0907
21922W        W40776   7.808  14.307  14.537 -0.1032 -0.0903  0.1474
21923W        W40777  12.791   3.417   2.088 -0.0097 -0.2401  0.0352
21924W        W40778   3.301   6.270   4.274  0.1385  0.4441  0.0672
21925W        W40779   4.304   6.226  11.354  0.4500  0.1504  0.1088
21926W        W40780   8.847  16.947  12.751  0.2653 -0.0588 -0.1270
21927W        W40781  14.484   0.564   4.896 -0.0198  0.0652  0.0604
21928W        W40782   1.302  14.122  11.264  0.0536  0.2184 -0.0178
21929W        W40783  12.224   6.661   9.150 -0.0679  0.2478  0.4271
21930W        W40784   1.361   1.941  12.209  0.2066  0.3463 -0.1975
21931W        W40785   8.852   1.417  10.872  0.2192  0.3502 -0.1100
21932W        W40786  13.516   6.600   0.628 -0.0195 -0.1360 -0.1474
21933W        W40787   1.380  11.082   2.887  0.0207 -0.1364  0.1858
21934W        W40788  16.229   4.707  14.267 -0.0565 -0.0775  0.0891
21935W        W40789   7.236  11.225  12.669  0.2356  0.2184  0.1192
21936W        W40790  13.415  17.970   0.627 -0.1468 -0.2209 -0.2265
21937W        W40791   5.227   1.435   1.111  0.1978 -0.0283 -0.0102
21938W        W40792  16.931   2.515  13.016  0.0387 -0.0998 -0.0417
21939W        W40793  11.621   5.840   0.825 -0.0128 -0.1703  0.0382
21940W        W40794  19.187  10.827   2.295 -0.0929  0.1445  0.2113
21941W        W40795  14.221  11.752  10.068 -0.1452 -0.1454  0.0491
21942W        W40796  15.015   1.007   0.533  0.0145  0.1587 -0.2021
21943W        W40797   0.299   1.055   2.022 -0.0817  0.0749 -0.4203
21944W        W40798   1.055   6.762  10.166 -0.0300  0.1369  0.1915
21945W        W40799  12.537   3.902  11.294  0.0581 -0.2704  0.2133
21946W        W40800   5.420  12.331   3.377 -0.3476  0.1768  0.0968
21947W        W40801   6.492   0.674   1.749  0.2298  0.2288 -0.0703
21948W        W40802   9.671   8.253   1.420  0.1775  0.0704 -0.1286
21949W        W40803  11.527   8.931  10.247 -0.0113 -0.2315 -0.4170
21950W        W40804  13.485  13.969   2.649  0.0353 -0.4746  0.0383
21951W        W40805  13.734  18.820   0.587 -0.4042  0.1830 -0.1876
21952W        W40806  18.841   0.725  11.471  0.0887  0.2737  0.1208
21953W        W40807  14.799   4.756  11.650  0.0646  0.2347 -0.2363
21954W        W40808   9.341  16.654   0.431 -0.0837 -0.2540 -0.1195
21955W        W40809  11.648   9.034   3.765  0.1566  0.0096 -0.1537
21956W        W40810   8.182   4.150  13.448  0.2555 -0.0910  0.0076
21957W        W40811   6.524  13.481  11.837  0.1400 -0.4665  0.1216
21958W        W40812  14.280  16.130  12.779 -0.0050  0.0349  0.2948
21959W        W40813  17.561   0.522  12.817  0.2580  0.0115 -0.0929
21960W        W40814  18.811   7.772  10.490 -0.0726  0.0233  0.0932
21961W        W40815  14.452   0.038  10.638 -0.0807 -0.2032 -0.0199
21962W        W40816   1.687  18.638   1.857 -0.1742  0.3770  0.1267
21963W        W40817  11.160   4.143   3.662 -0.0918 -0.1008  0.0186
21964W        W40818   7.934  18.591   2.309  0.0264  0.3584 -0.1627
21965W        W40819  17.940  11.666  12.443  0.2288  0.1584  0.0752
21966W        W40820   6.251  12.504  12.672 -0.3295 -0.2075 -0.1556
21967W        W40821   0.586   7.947  13.638  0.2102  0.2645 -0.1663
21968W        W40822   0.835  11.684  11.859  0.1898  0.1598  0.0505
21969W        W40823   6.752  11.821   2.945  0.1708  0.3358  0.1462
21970W        W40824   3.215   0.920  10.611  0.3096 -0.1104 -0.2216
21971W        W40825   8.161   2.044   2.125  0.1520  0.1092 -0.2787
21972W        W40826   5.429   4.423  12.970 -0.1175 -0.3297 -0.0257
21973W        W40827   6.803   9.150  10.664  0.4565  0.1582 -0.1147
21974W        W40828  16.865  16.138  13.752 -0.1748  0.1102 -0.0904
21975W        W40829  15.943   0.248  12.791  0.0383 -0.0080  0.0225
21976W        W40830   5.800   1.883  11.858 -0.2048 -0.0751 -0.1132
21977W        W40831  12.978  14.022   1.466 -0.2269  0.1239  0.0474
21978W        W40832   0.988   7.431  14.276  0.1957  0.0523 -0.1735
21979W        W40833   2.843   8.619   0.235 -0.0280  0.1945  0.0737
21980W        W40834   8.742  16.647  11.037  0.2254 -0.0465 -0.1888
21981W        W40835   4.172   9.395   3.017  0.0779 -0.4347 -0.1478
21982W        W40836   1.646  18.682   9.851 -0.2170  0.1157 -0.1494
21983W        W40837  14.940  11.547   4.665  0.0439  0.0127  0.1989
21984W        W40838   0.590   4.187  11.679 -0.2897 -0.1248 -0.0014
21985W        W40839  10.079  10.669   1.837  0.2819 -0.2887 -0.1783
21986W        W40840   5.738  13.869   4.163 -0.0758  0.0818  0.2236
21987W        W40841   4.835   0.341  14.161  0.0760  0.1331 -0.0890
21988W        W40842  14.573   1.557   3.848 -0.4103 -0.1459  0.2715
21989W        W40843   4.319  10.701   0.780  0.0716  0.0552  0.2404
21990W        W40844   6.030  10.049  11.965 -0.0431  0.1264  0.0050
21991W        W40845  13.571  17.119  12.330 -0.1940 -0.0425 -0.0881
21992W        W40846  17.181  10.208  12.852  0.0177  0.1187 -0.0822
21993W        W40847   5.256   1.746   0.714  0.0748 -0.0903  0.0570
21994W        W40848   7.110  10.094  11.946 -0.1537 -0.2337  0.1426
21995W        W40849   1.842   7.892  12.133  0.3607 -0.0165  0.1322
21996W        W40850   9.479  12.847   5.438 -0.0976 -0.0562 -0.2376
21997W        W40851   7.394   9.091   3.713 -0.1227 -0.0721 -0.2288
21998W        W40852  11.272  14.371   4.279 -0.0238 -0.3695 -0.1390
21999W        W40853  10.711   6.276  14.541  0.0935 -0.2699 -0.4253
22000W        W40854   1.079   5.758  11.336  0.2073 -0.0349 -0.2144
22001W        W40855  15.313   7.323  14.174 -0.1646  0.0805  0.5047
22002W        W40856   4.933   2.444   4.254 -0.1036  0.2830  0.0172
22003W        W40857  15.126   1.299   2.989 -0.2307 -0.1539  0.0121
22004W        W40858   7.516   2.676   4.848  0.1098  0.1295 -0.2012
22005W        W40859  13.862  16.022   2.872 -0.0079 -0.0384  0.3750
22006W        W40860  14.662  12.678  10.519 -0.1198  0.2978  0.1146
22007W        W40861  11.367   0.689  11.274 -0.0274  0.2298  0.2136
22008W        W40862   9.126  14.039  12.129  0.0168 -0.1682 -0.0356
22009W        W40863   9.223  11.002   4.479 -0.0725 -0.1598 -0.2134
22010W        W40864   6.440   2.058   3.851  0.0982 -0.0134  0.0832
22011W        W40865   0.984  12.237   1.399 -0.2250 -0.2509  0.0013
22012W        W40866   9.367  19.163   4.409 -0.1972  0.0586  0.1740
22013W        W40867   5.372  12.047   1.867 -0.3682 -0.1629  0.0001
22014W        W40868  16.537   9.909   4.410 -0.1483  0.2618  0.2087
22015W        W40869   0.091   3.736   3.568 -0.2342 -0.1548  0.0015
22016W        W40870  17.268   2.488  12.597  0.1204  0.1972  0.1050
22017W        W40871   1.041  13.474  11.937 -0.0766 -0.2440 -0.0862
22018W        W40872   0.507   1.786   3.879  0.1958  0.0598  0.0944
22019W        W40873  18.532   0.184   1.627 -0.0305  0.0160  0.0672
22020W        W40874   6.835   8.827  11.729  0.0225  0.1863 -0.1581
22021W        W40875  14.863   3.812  13.334 -0.0066 -0.1800  0.0253
22022W        W40876  13.575   4.061   2.559  0.1056 -0.2152  0.0809
22023W        W40877  11.367   3.763   1.115  0.1104 -0.2682  0.1673
22024W        W40878   8.852  13.426  11.656 -0.4520 -0.4096 -0.0492
22025W        W40879  15.644   1.883   1.605 -0.0666 -0.1389 -0.2104
22026W        W40880  13.860   2.784  12.148  0.0311  0.4603 -0.1259
22027W        W40881  12.470  10.650   0.074  0.0643  0.1173  0.0931
22028W        W40882  11.732  18.339  12.767 -0.2836  0.0122 -0.0899
22029W        W40883   4.829   7.343  11.860 -0.1240  0.0310 -0.1753
22030W        W40884   0.944  15.878  10.964  0.3253 -0.0260 -0.2976
22031W        W40885   4.067  10.298  12.523 -0.0285  0.1831  0.0408
22032W        W40886   0.658   1.879  11.574  0.1306  0.2182 -0.2062
22033W        W40887   4.027   4.385  13.626  0.0670 -0.0815  0.3301
22034W        W40888  15.398   3.514   3.513  0.2883  0.2194  0.1310
22035W        W40889   7.686  15.029  12.043  0.2004 -0.0403 -0.0544
22036W        W40890  10.591  14.104   3.902 -0.4071  0.2967  0.1357
22037W        W40891  14.715  16.653  11.600  0.0547  0.0392 -0.1208
22038W        W40892   0.717   2.147   1.713 -0.1142  0.2113 -0.0076
22039W        W40893  11.722   1.931   9.633 -0.1405 -0.0872 -0.0170
22040W        W40894   7.468   2.021  12.703  0.1114 -0.0068 -0.2114
22041W        W40895  12.246   7.320  13.722  0.2834 -0.0418  0.0890
22042W        W40896   7.158  15.794  12.550  0.0816  0.1512  0.0240
22043W        W40897  13.484  16.509   3.760  0.0183  0.0527  0.2168
22044W        W40898   4.086   0.153   4.282 -0.0372 -0.0482 -0.1057
22045W        W40899   3.967   2.248  14.537  0.0503 -0.0592 -0.0352
22046W        W40900   7.691   7.779  13.757  0.1461 -0.1104  0.1427
22047W        W40901   5.474  17.541   2.448  0.0687 -0.0280  0.0112
22048W        W40902   9.848  13.465  10.650 -0.1840  0.0000  0.0827
22049W        W40903  12.106   9.858   0.550 -0.1264  0.0527  0.0766
22050W        W40904   4.543   1.415  12.634  0.0733 -0.2040 -0.0596
22051W        W40905   3.485  12.351  10.220 -0.1434  0.0578  0.3441
22052W        W40906   2.951   4.414  12.565  0.0276 -0.0701  0.0514
22053W        W40907   6.546   2.751  11.303  0.0149 -0.1134  0.3065
22054W        W40908   1.442   9.384  13.141  0.0972  0.0921 -0.0164
22055W        W40909  16.667   8.931  13.088  0.3204 -0.0972  0.1267
22056W        W40910  12.016  12.577  11.767  0.1254  0.0834 -0.0346
22057W        W40911  15.989  15.425   2.005 -0.1324 -0.4583 -0.0179
22058W        W40912  13.024  18.956  13.460 -0.1088  0.1643  0.2417
22059W        W40913   5.002   7.526  14.249  0.0475 -0.0309 -0.0220
22060W        W40914   2.755  14.274   0.531  0.0147 -0.0897  0.0718
22061W        W40915   6.206   6.558   0.840 -0.0357  0.1784 -0.3763
22062W        W40916  18.562  17.744   4.626  0.2276  0.0066  0.0746
22063W        W40917   1.137   0.419  10.888  0.3208 -0.0049  0.0503
22064W        W40918   2.724  10.801   3.024 -0.0164 -0.0131 -0.2767
22065W        W40919  16.532   6.932   4.119  0.5022 -0.1715 -0.0433
22066W        W40920  10.474   7.841   0.472 -0.2295  0.4183 -0.1009
22067W        W40921   9.054   6.894   0.605  0.0897  0.0707  0.1028
22068W        W40922  15.458   2.875  13.706  0.1482 -0.1564  0.0994
22069W        W40923   6.075   4.639   3.889 -0.2110 -0.1682 -0.1012
22070W        W40924   1.567   4.654   3.603 -0.1511 -0.2017  0.2730
22071W        W40925  16.529  17.526   3.524  0.0516 -0.0389  0.4084
22072W        W40926   0.415   3.415  10.434 -0.1351  0.0655  0.3005
22073W        W40927   8.620  18.133  11.866 -0.1038  0.1504 -0.1294
22074W        W40928   7.197   5.351  10.981  0.2126  0.2915 -0.3542
22075W        W40929  19.129  12.441   2.142  0.0964  0.1430 -0.0421
22076W        W40930  14.716   2.490   2.607  0.0418  0.1172 -0.3531
22077W        W40931   2.610  15.958  12.453 -0.1979  0.0349  0.0602
22078W        W40932   0.186  15.978   2.451 -0.0980 -0.0210  0.0710
22079W        W40933   7.143   0.137   4.004 -0.1357 -0.0172 -0.0081
22080W        W40934  14.298  13.952   9.630 -0.2188  0.1193  0.1409
22081W        W40935   7.030   6.827  13.952  0.1265  0.0298 -0.1510
22082W        W40936  12.534   2.060   4.184  0.0287  0.0341 -0.0436
22083W        W40937   9.945   8.134   3.577 -0.3432 -0.0835 -0.2030
22084W        W40938   9.028   1.282  13.547  0.1808 -0.0483  0.0621
22085W        W40939   1.375  17.676   2.757  0.0078  0.0241 -0.2202
22086W        W40940  17.921   3.518   1.056 -0.3603  0.0697  0.1338
22087W        W40941   1.587   0.731   0.160  0.2112 -0.0930  0.0009
22088W        W40942   9.133  15.792   9.890  0.0895 -0.2171  0.2855
22089W        W40943  10.672  10.106   4.409 -0.4445  0.0149 -0.1447
22090W        W40944  14.923  13.023   4.513 -0.3377 -0.0862 -0.1464
22091W        W40945  16.106   5.354  12.806  0.2052 -0.1695 -0.2819
22092W        W40946   6.191   6.563   2.713 -0.2289 -0.1699  0.4298
22093W        W40947  15.498  12.485  11.157  0.2694  0.2015 -0.3013
22094W        W40948  15.887   4.714   2.824  0.2013 -0.0376 -0.2490
22095W        W40949   5.369   1.990  11.083 -0.0334  0.0784  0.0602
22096W        W40950   7.163  18.211   3.782  0.0724  0.0733  0.2034
22097W        W40951   6.598   1.520   2.717  0.0144  0.0973 -0.0110
22098W        W40952  16.540  11.469   2.567  0.1461  0.0828 -0.0937
22099W        W40953   4.716   3.730  12.825 -0.2774 -0.2857 -0.2876
22100W        W40954   3.980   1.600   2.539 -0.1487 -0.1724 -0.2958
22101W        W40955   6.059   2.133  10.547 -0.3352 -0.2739 -0.0434
22102W        W40956  18.921  12.252  13.164  0.1902 -0.0626  0.1786
22103W        W40957   5.109   7.621   0.428  0.0426 -0.3090  0.0395
22104W        W40958  18.299   3.246   0.858  0.3789  0.1861 -0.0493
22105W        W40959  12.712  14.841   5.373 -0.4237  0.3870  0.4213
22106W        W40960  12.518   6.195   2.398  0.0579  0.1119 -0.0284
22107W        W40961  11.688  15.538   2.994 -0.0355 -0.2004  0.2341
22108W        W40962  10.926  10.759   2.855  0.0546  0.1325 -0.1112
22109W        W40963   7.624   8.384  10.955 -0.1965 -0.4295  0.2514
22110W        W40964   3.553   0.055  11.397 -0.2111 -0.1981 -0.2056
22111W        W40965   5.196   4.359   4.894 -0.2129 -0.0100 -0.1566
22112W        W40966  10.093   0.460   2.294  0.0932 -0.2568  0.1401
22113W        W40967  18.226   5.699  12.059 -0.3178  0.2311 -0.2663
22114W        W40968  13.167  16.373  11.325  0.2001 -0.1567 -0.0787
22115W        W40969   1.387  16.963   3.369  0.0495  0.0231 -0.0909
22116W        W40970   8.140   7.112  12.633  0.1049 -0.0485  0.3761
22117W        W40971   6.434   1.687  11.449 -0.0138  0.1263  0.2487
22118W        W40972  18.397  11.442   2.702 -0.3462 -0.0204  0.1297
22119W        W40973   5.238  19.150   1.849 -0.0261 -0.1159 -0.2495
22120W        W40974   1.197   9.961  12.107  0.0526  0.0909  0.0623
22121W        W40975  14.072  13.357  13.101  0.2076  0.0899 -0.0280
22122W        W40976   4.789  11.177   0.249  0.3537  0.1832  0.1643
22123W        W40977   6.651   7.864   9.786  0.1194  0.0649 -0.0921
22124W        W40978   2.152  19.038  12.614  0.0742  0.0788 -0.1094
22125W        W40979   0.363   1.051  12.709  0.1818 -0.0674 -0.2483
22126W        W40980  15.789  10.560  10.094 -0.0552 -0.3058  0.2051
22127W        W40981  10.825   7.688  11.244  0.0169  0.1939 -0.0346
22128W        W40982   1.354   8.646  12.768 -0.0175  0.0935 -0.0942
22129W        W40983   7.965  15.298  13.379  0.1759 -0.1422 -0.1234
22130W        W40984   9.288  12.309   3.404  0.0009 -0.2480  0.2393
22131W        W40985   0.847   2.631   4.988  0.2113  0.0081  0.1908
22132W        W40986   5.127  12.301  14.296 -0.1867 -0.1321 -0.1224
22133W        W40987   1.287  18.635   0.269 -0.1777 -0.0478 -0.0105
22134W        W40988  14.858   8.509  13.777  0.1978  0.2650  0.0189
22135W        W40989   3.420  10.209   0.830 -0.1159 -0.0161  0.2139
22136W        W40990   7.291  13.052  11.308 -0.2216 -0.1537  0.0269
22137W        W40991  10.445  18.369  12.379  0.3722  0.1895 -0.3085
22138W        W40992   6.814   3.721   9.598 -0.2686  0.1462 -0.3624
22139W        W40993  13.041   3.250  14.558  0.5865 -0.1561 -0.2138
22140W        W40994   8.307   7.288   0.798 -0.1969 -0.0957  0.2925
22141W        W40995  11.098   1.786  13.450  0.0592 -0.1371 -0.0333
22142W        W40996   0.164   8.652  10.588  0.1209 -0.2150  0.2796
22143W        W40997  17.920   0.115  10.667  0.0229 -0.0999 -0.0982
22144W        W40998  18.756   9.371   1.571  0.1928 -0.1918  0.1555
22145W        W40999   9.656  16.727  13.906  0.2360  0.1617  0.1306
22146W        W41000  12.070   7.731  13.973  0.0173 -0.0821  0.3236
22147W        W41001  10.259  17.257   3.890  0.1324 -0.4587  0.1128
22148W        W41002  17.985  11.224  13.424  0.0191 -0.2673 -0.1496
22149W        W41003  14.102  12.518   2.837  0.1075  0.1513 -0.1586
22150W        W41004  13.456  11.078   2.257  0.0382 -0.2451 -0.0087
22151W        W41005   9.029  19.025  11.664 -0.1987 -0.1120  0.2519
22152W        W41006   5.477  16.117   1.805  0.0621 -0.3449 -0.1253
22153W        W41007   6.941  12.733  12.175  0.2037  0.1878  0.1095
22154W        W41008  11.025   2.031   3.773 -0.3024  0.1487 -0.0213
22155W        W41009   1.554   7.982   0.081 -0.3012 -0.1507  0.2039
22156W        W41010  18.692   3.596   2.756 -0.2023  0.1230 -0.0240
22157W        W41011   6.699   8.010   3.145  0.2580  0.0789 -0.2400
22158W        W41012   0.075   4.864   3.900  0.1536  0.1538  0.1942
22159W        W41013  11.579   4.717   1.080 -0.0248  0.1572 -0.2196
22160W        W41014  18.731  11.538   3.325 -0.0954  0.2002 -0.1496
22161W        W41015   0.389   7.357  14.543 -0.0385 -0.0075  0.4082
22162W        W41016   1.390   1.941   2.507 -0.0415  0.1135  0.0829
22163W        W41017  18.264   5.222  12.248  0.2491  0.0362 -0.0440
22164W        W41018  11.746   4.494   2.753 -0.2099 -0.1648  0.0669
22165W        W41019  16.610  14.349  12.973 -0.0975 -0.0400  0.0289
22166W        W41020  14.117   9.418   1.556 -0.1575  0.2911 -0.3707
22167W        W41021   0.263   5.602  14.504 -0.0230  0.0509 -0.0248
22168W        W41022  18.157  18.607  12.771  0.1613 -0.3164 -0.0491
22169W        W41023   0.910  11.808  13.576  0.1970  0.1323  0.2673
22170W        W41024  17.701   3.050   3.143 -0.0247 -0.4556 -0.0189
22171W        W41025   8.211  12.446  13.781 -0.4039  0.0438 -0.0661
22172W        W41026   4.591   7.494  13.991 -0.0493 -0.0851 -0.1671
22173W        W41027  16.208  14.459  10.425 -0.0624 -0.2005  0.2261
22174W        W41028   4.181  11.577   1.410  0.2032  0.0950 -0.0912
22175W        W41029   5.523   0.645  10.230 -0.4728  0.1508 -0.1714
22176W        W41030   3.361  11.210   2.222  0.0831  0.1434  0.1199
22177W        W41031  16.428   4.921  12.210  0.0211  0.2459  0.5046
22178W        W41032  14.269   7.810   4.087 -0.0011 -0.0491 -0.3434
22179W        W41033  11.462  15.507  13.839  0.3510 -0.0851  0.0179
22180W        W41034  10.993  18.899   1.472 -0.0347 -0.0627  0.0014
22181W        W41035   8.895  13.992   4.168 -0.0092 -0.1322 -0.1771
22182W        W41036  18.379   2.865  10.951 -0.1245  0.0809 -0.0859
22183W        W41037   9.421  16.450  12.281  0.3944 -0.3265  0.0506
22184W        W41038   2.459   0.490  12.847 -0.0488  0.2206  0.0746
22185W        W41039   2.451   3.537   3.711 -0.1894 -0.2861  0.4875
22186W        W41040   9.421   0.510  11.289  0.0180  0.0908  0.1050
22187W        W41041  19.160   1.148  14.306  0.4463  0.1579 -0.0425
22188W        W41042   4.381  17.789  12.228  0.1640 -0.1251  0.2092
22189W        W41043  15.499  19.121  14.062  0.2506  0.2293 -0.1692
22190W        W41044  10.664   6.467  13.338 -0.0093 -0.0343 -0.0384
22191W        W41045   1.885   2.625  13.471  0.1079 -0.0303 -0.0685
22192W        W41046   6.474   0.668  13.962  0.0250  0.1315  0.2331
22193W        W41047   8.323   6.481  13.904 -0.1670 -0.1147 -0.1169
22194W        W41048  18.300   5.801   1.211 -0.0581  0.2181  0.3229
22195W        W41049   7.395   9.684  11.362  0.1762 -0.0494 -0.0103
22196W        W41050   2.748  14.473   3.057  0.3002 -0.2141 -0.1181
22197W        W41051   0.679   5.444   0.407 -0.2420  0.0814  0.1635
22198W        W41052   9.127   7.711   3.867  0.0898 -0.1734 -0.2307
22199W        W41053   4.791   8.787   1.680  0.0698  0.0294  0.2623
22200W        W41054   8.981   2.401   2.460 -0.0281 -0.1889  0.1496
22201W        W41055  17.969   6.618  11.868  0.4835 -0.0346 -0.1657
22202W        W41056  16.618  18.182   4.115  0.4653 -0.0700 -0.2797
22203W        W41057   4.929  12.847  12.013 -0.1212  0.1070  0.0102
22204W        W41058  15.653  18.494   2.151  0.3134 -0.4288 -0.0157
22205W        W41059   7.717   4.105  14.689  0.0607 -0.1081 -0.0977
22206W        W41060   3.619   2.645  14.168 -0.1031  0.3390  0.1622
22207W        W41061  14.810   8.300  12.392 -0.1584 -0.0258  0.5387
22208W        W41062  17.439  14.146   1.877 -0.0459 -0.1765 -0.0729
22209W        W41063   0.185   6.008  12.740 -0.2426  0.2808 -0.1160
22210W        W41064  10.045  14.075  12.669 -0.0406 -0.0957  0.0673
22211W        W41065  15.546   2.552   2.326  0.0476 -0.1713 -0.1636
22212W        W41066   0.480   0.203   3.663 -0.0420  0.0799 -0.0143
22213W        W41067   2.732  14.887  13.966 -0.1230 -0.1547 -0.0952
22214W        W41068  15.615   3.101   3.262  0.2231  0.0873  0.0023
22215W        W41069   7.270  18.688   2.913 -0.1154  0.0339  0.0958
22216W        W41070   0.684   6.955  12.769 -0.5511  0.0538  0.2775
22217W        W41071  17.527   7.047  12.857  0.3607  0.2117 -0.1914
22218W        W41072  13.939  15.227   3.330  0.0729 -0.1332 -0.1232
22219W        W41073  16.467  12.652   1.513  0.2662 -0.1704 -0.1149
22220W        W41074   8.096   2.220   0.887  0.0751  0.0675 -0.3274
22221W        W41075   3.325   5.405   5.715 -0.1576  0.1233  0.1667
22222W        W41076   9.371  13.289   1.466 -0.0972 -0.0882 -0.1131
22223W        W41077   4.801  16.474  11.592 -0.2258  0.1560  0.1362
22224W        W41078  18.401   6.792   3.319 -0.2554  0.2604  0.2663
22225W        W41079  10.535  17.556   2.311  0.1326 -0.0764 -0.1203
22226W        W41080  17.642   3.961  14.622 -0.1421 -0.0180  0.2726
22227W        W41081   3.086  10.360   2.501  0.0079  0.2405  0.0351
22228W        W41082  16.179  14.876   3.854  0.0670 -0.1996  0.1421
22229W        W41083   2.060  17.515   0.441 -0.1906 -0.1297 -0.1417
22230W        W41084   0.459  15.187   3.821  0.1594 -0.0194 -0.2110
22231W        W41085   1.447   1.218   2.804 -0.0751 -0.1004 -0.0176
22232W        W41086   0.466   4.347  13.119  0.1108 -0.1293 -0.0639
22233W        W41087   2.230   7.986  11.823 -0.0565  0.0323  0.1603
22234W        W41088   0.636  18.896   3.564 -0.0793  0.0851 -0.1910
22235W        W41089   5.497  11.545  13.761 -0.0516 -0.0681 -0.4086
22236W        W41090   7.652   3.131   0.772 -0.1436 -0.2299 -0.0645
22237W        W41091   6.173  18.785   0.058  0.1426  0.0889  0.1531
22238W        W41092   0.153   7.135   3.252 -0.2133  0.3344  0.1314
22239W        W41093  13.927   9.179  10.859  0.3469  0.4133 -0.0139
22240W        W41094   6.738   9.889  10.701  0.1175  0.1841  0.2732
22241W        W41095   0.418   2.188   0.333 -0.1123 -0.1851  0.0933
22242W        W41096  18.748  13.258   1.337  0.1773 -0.1238  0.1479
22243W        W41097  10.879  10.206  11.243 -0.0147 -0.0018  0.0741
22244W        W41098  17.661   1.061   3.748 -0.3915 -0.1239 -0.2890
22245W        W41099   6.862   1.848   4.198 -0.0003 -0.1901  0.2100
22246W        W41100   7.702  16.753   0.409  0.2866 -0.0278  0.1182
22247W        W41101   2.926  16.454   1.853 -0.0305  0.1955 -0.1673
22248W        W41102  13.907  16.053  11.083 -0.0967  0.1185 -0.0007
22249W        W41103   2.087  13.748   4.502  0.1540 -0.0808  0.2525
22250W        W41104  18.137   0.830  12.589 -0.1117  0.1976  0.0573
22251W        W41105   9.176  15.864   2.082  0.5083 -0.4010 -0.2149
22252W        W41106   2.555  11.786   0.635 -0.5149  0.1342 -0.2121
22253W        W41107   4.070   4.191   3.412  0.1060  0.0117 -0.0034
22254W        W41108   5.993   8.534   0.260  0.1397  0.0583  0.2681
22255W        W41109   6.599   8.344   1.577  0.3458 -0.1157 -0.0277
22256W        W41110  14.823  14.311  11.117  0.2286 -0.2178 -0.1030
22257W        W41111   6.003   6.854  14.275 -0.0389 -0.0078 -0.0611
22258W        W41112  18.741  15.258   0.808  0.1403 -0.2652  0.1102
22259W        W41113   6.776  11.375   2.188 -0.0551  0.1340 -0.0720
22260W        W41114  12.065  12.436   0.039  0.3218  0.0945 -0.2013
22261W        W41115  15.235  11.590  11.147 -0.2364 -0.3458  0.3205
22262W        W41116   4.763   8.517   0.690  0.2484  0.0913  0.1071
22263W        W41117   6.980   1.383  11.985  0.0705 -0.4219 -0.1473
22264W        W41118  18.723   4.435  10.595  0.1938 -0.1229 -0.2263
22265W        W41119  14.563  13.536   2.755  0.0590 -0.0919 -0.0438
22266W        W41120  15.900   9.060  10.317 -0.2018  0.1915  0.0611
22267W        W41121  12.488  10.933  10.165 -0.1315  0.0642  0.0626
22268W        W41122   7.715  11.276  14.322 -0.0972 -0.0859 -0.0697
22269W        W41123  12.182  15.246   3.874 -0.2189  0.2060  0.0253
22270W        W41124  18.996  18.341  13.628 -0.1151  0.1362 -0.0942
22271W        W41125   6.850  18.591   3.936 -0.1561 -0.0076 -0.3173
22272W        W41126  10.172   4.012   2.264  0.3319  0.1031  0.0841
22273W        W41127  11.889   1.128  11.309  0.1583  0.0410 -0.0427
22274W        W41128  13.894   4.611  12.946  0.0423 -0.1520 -0.0590
22275W        W41129  10.236   9.120   3.514 -0.3881  0.1328  0.3676
22276W        W41130   3.850  17.894   4.113  0.1923 -0.0331 -0.2699
22277W        W41131   6.447   3.643  11.897  0.2020 -0.3311  0.1489
22278W        W41132   8.834   6.968   1.143  0.1497  0.3960  0.0586
22279W        W41133   8.532  13.967   0.898  0.1620  0.4007 -0.0080
22280W        W41134  15.551   0.715   3.067 -0.2413 -0.3460  0.1477
22281W        W41135  14.436  11.298   0.233  0.3542  0.1382  0.4273
22282W        W41136   2.497   1.697   1.251 -0.0178  0.0481 -0.0755
22283W        W41137  12.871   9.924  10.313  0.0550  0.1537  0.0767
22284W        W41138  18.302  18.335   1.337  0.1031  0.1815 -0.1504
22285W        W41139  10.280   3.090   9.704 -0.1491 -0.0213 -0.0114
22286W        W41140  11.607   1.020   3.514 -0.1839  0.0833 -0.0489
22287W        W41141   9.985  17.106   0.906 -0.0024 -0.2252  0.0324
22288W        W41142   5.930  18.863  11.459 -0.1033 -0.0040 -0.2363
22289W        W41143  16.968   3.815   0.014 -0.0808 -0.0387 -0.1411
22290W        W41144  10.177   4.276   0.207  0.1034  0.2069  0.0140
22291W        W41145  17.520   9.486   0.079  0.2664 -0.2573 -0.2461
22292W        W41146   3.008   3.247   2.558  0.3233 -0.3971 -0.3252
22293W        W41147  11.321  11.981  12.851  0.1288 -0.0105 -0.1476
22294W        W41148  16.360  18.992   4.082 -0.1237  0.3070 -0.2502
22295W        W41149  10.011   3.974   3.371 -0.1848 -0.1719 -0.0558
22296W        W41150   3.193  17.584   2.576 -0.0331  0.1332 -0.1813
22297W        W41151  17.994  15.283  13.486 -0.0113 -0.1478  0.1084
22298W        W41152  10.223   7.557   2.312  0.2371 -0.1713  0.0530
22299W        W41153  16.304   9.515  10.347 -0.0955  0.2514 -0.4647
22300W        W41154   0.532   2.961   4.161 -0.1138 -0.4204  0.1152
22301W        W41155   9.667   5.269   2.650  0.4406 -0.1313  0.1181
22302W        W41156  14.916  17.130  11.456  0.0801  0.1446 -0.1473
22303W        W41157   2.020   5.260   2.585 -0.3606 -0.0347 -0.0084
22304W        W41158  10.439   8.956  14.309  0.0900  0.1574 -0.4110
22305W        W41159  16.863  10.571  12.738 -0.0839 -0.1599  0.2632
22306W        W41160  13.883  10.449  10.112 -0.1078 -0.2353 -0.1221
22307W        W41161   1.942   8.556  11.278  0.0529  0.0632  0.0613
22308W        W41162   3.802  10.171   2.540 -0.0480 -0.0342  0.0180
22309W        W41163  15.735   7.423  10.645  0.2047 -0.0054 -0.0470
22310W        W41164   2.438   2.519   2.051 -0.0567  0.0860 -0.0516
22311W        W41165  14.437   7.282   2.393 -0.0333  0.2143 -0.1366
22312W        W41166  11.922   7.310   0.773 -0.1496  0.2583 -0.1146
22313W        W41167  17.753  15.882   2.240 -0.0902 -0.4336 -0.0476
22314W        W41168   8.007  11.678   4.435  0.0817  0.3291 -0.2363
22315W        W41169  14.905  16.771   0.119  0.0202  0.1679 -0.3725
22316W        W41170  13.347  13.558   4.821 -0.0090  0.1437 -0.3311
22317W        W41171  15.710  17.043   3.504  0.4159  0.1634 -0.1178
22318W        W41172   0.123   6.624  13.378  0.1812  0.1843 -0.2117
22319W        W41173   3.780   7.227  13.804  0.0319 -0.2573  0.2023
22320W        W41174   1.213   6.810  14.686  0.1783 -0.1214  0.1058
22321W        W41175   0.960  18.310   2.151  0.1364 -0.1816  0.3739
22322W        W41176  16.247   9.602   0.722  0.0989 -0.2011  0.4684
22323W        W41177   9.132  13.135   0.019 -0.3430  0.0897 -0.3876
22324W        W41178   4.876   4.353   1.896  0.0121 -0.0764  0.0742
22325W        W41179   6.803   2.279   2.438 -0.0235  0.0909  0.0689
22326W        W41180   9.173   3.358   0.760 -0.1324 -0.0248  0.0907
22327W        W41181  12.574  12.688  12.942  0.2267 -0.0296  0.0504
22328W        W41182  15.615   9.976  11.473 -0.1103 -0.3656 -0.0692
22329W        W41183   3.864   5.296   1.427  0.1336 -0.2297  0.3915
22330W        W41184  18.300   9.160   3.543  0.0904 -0.0745 -0.1938
22331W        W41185   0.932   2.407  13.715 -0.0773 -0.0879 -0.1554
22332W        W41186  11.903  18.361  12.109 -0.0992 -0.1514  0.1899
22333W        W41187  16.011   5.246  12.123  0.0870  0.1647  0.2387
22334W        W41188  10.766   7.171  10.876 -0.0441 -0.0807  0.0318
22335W        W41189   7.617  17.660   0.865 -0.0929 -0.1327  0.0094
22336W        W41190   6.869  10.594  11.228  0.1906  0.0698 -0.0740
22337W        W41191   9.627  15.150   0.055 -0.0862  0.0107  0.3559
22338W        W41192  12.539   1.441  12.607  0.2055 -0.0492  0.2906
22339W        W41193   6.421   4.710  12.704  0.3773 -0.1727  0.1817
22340W        W41194   0.110   5.345  11.499 -0.1374 -0.3812  0.0096
22341W        W41195   0.331  10.653   2.903 -0.0914 -0.3102 -0.2124
22342W        W41196  16.356  10.315  14.074 -0.0246 -0.2415 -0.1957
22343W        W41197  11.663  13.508  10.112  0.1232 -0.0168 -0.1290
22344W        W41198   4.610   3.373  10.836  0.0327 -0.0529  0.1209
22345W        W41199   5.187   8.302  14.147  0.0053 -0.0893 -0.2822
22346W        W41200  11.739  14.975  11.881  0.0158 -0.1433 -0.3372
22347W        W41201  16.379   2.862   3.964  0.1509  0.0884 -0.0266
22348W        W41202  15.299   4.500  13.648 -0.0473 -0.0808 -0.3164
22349W        W41203   1.346   8.167   2.014  0.0129  0.0150 -0.1722
22350W        W41204  13.593   7.513  13.019 -0.3859 -0.0839  0.0203
22351W        W41205  10.072  11.030  12.992 -0.0234  0.0876  0.1276
22352W        W41206  12.342   3.253   2.606  0.0693 -0.0491 -0.1746
22353W        W41207   5.045   1.231  14.497 -0.1192 -0.1286 -0.2762
22354W        W41208  13.158   5.036  11.817  0.1073 -0.1264  0.0542
22355W        W41209  12.651  15.053  12.139 -0.2376 -0.2025  0.0066
22356W        W41210   7.894  11.372  11.703 -0.0005  0.0316  0.3479
22357W        W41211  17.488  13.247   0.042 -0.2270  0.0484 -0.0909
22358W        W41212  12.147  11.736  10.088 -0.3568 -0.2312  0.1331
22359W        W41213   2.855  10.909  14.727 -0.1875 -0.1045  0.1051
22360W        W41214   3.995  10.439   3.630  0.1107  0.0948  0.1478
22361W        W41215  14.533  16.063  11.599 -0.0860  0.1301  0.0964
22362W        W41216  17.944   9.430  12.076  0.2120 -0.1201  0.0027
22363W        W41217  18.269   1.596   1.397 -0.0695  0.3219  0.3168
22364W        W41218  12.018   3.622  13.486  0.3190 -0.1130  0.1297
22365W        W41219   5.529   0.061  10.430  0.0003  0.0096  0.0516
22366W        W41220  18.170   9.783  11.786  0.2826  0.2362 -0.2262
22367W        W41221  11.683  18.092   1.842  0.2190 -0.3414  0.0071
22368W        W41222  13.032   7.898  12.036  0.3099  0.0270 -0.0046
22369W        W41223  11.257  11.885  11.758  0.0446  0.3503 -0.2316
22370W        W41224   4.672   5.105  13.088 -0.0569  0.1651 -0.1270
22371W        W41225   8.924  18.446   0.770 -0.0637 -0.1503  0.4052
22372W        W41226  17.273  14.665   3.266  0.2679  0.2046 -0.0710
22373W        W41227   0.673  13.052  11.443 -0.1097  0.2108  0.1643
22374W        W41228  15.987   1.467  13.024 -0.0185 -0.0129  0.0120
22375W        W41229  11.442  13.792   2.891 -0.3887 -0.0404  0.0237
22376W        W41230   9.480   0.296  12.104  0.1716  0.1571 -0.3047
22377W        W41231   8.318   6.696   3.988  0.0311 -0.3434 -0.0689
22378W        W41232  10.241  18.683   0.818 -0.0133 -0.0366  0.0427
22379W        W41233  13.138   4.716  11.420 -0.0055  0.2213 -0.0912
22380W        W41234  10.498  11.343   2.276  0.2895 -0.0234 -0.2303
22381W        W41235   3.242   5.906   2.982  0.1955  0.1096 -0.0155
22382W        W41236   5.515   2.228  10.658 -0.1539  0.0905  0.0049
22383W        W41237   6.622  14.181  11.397 -0.0737 -0.4192  0.0311
22384W        W41238  15.046   9.689  13.922  0.2611 -0.2489  0.1483
22385W        W41239  16.900  15.311  11.077  0.1727 -0.2516 -0.2732
22386W        W41240   7.661   7.931   0.151  0.4406 -0.1255  0.0270
22387W        W41241  12.163  15.534  12.660 -0.1744 -0.1713 -0.4369
22388W        W41242   7.793   0.988   1.560 -0.2643  0.0097  0.1625
22389W        W41243   2.345   4.211  13.450 -0.2410 -0.1031  0.0067
22390W        W41244   6.997   0.492   2.964  0.0971 -0.2943 -0.1033
22391W        W41245   8.919   2.121   3.188  0.1784 -0.0271 -0.0531
22392W        W41246  13.508   6.021   2.882  0.2225  0.0542 -0.1214
22393W        W41247  13.458  11.977  11.199 -0.0429  0.1360 -0.2153
22394W        W41248  13.618  10.873   0.882  0.1475  0.0270  0.4218
22395W        W41249   9.157  11.504   0.337 -0.1898  0.0981 -0.2386
22396W        W41250   5.756  15.657   4.775 -0.1161 -0.5608 -0.2220
22397W        W41251  16.540  14.037   9.709 -0.1169 -0.0398  0.0509
22398W        W41252  14.988  17.311   3.982 -0.0381  0.0205 -0.0333
22399W        W41253  16.496  10.933  11.768 -0.2143  0.0667  0.1642
22400W        W41254  10.918   7.573   0.552 -0.1657 -0.1497  0.3432
22401W        W41255  12.691  16.437   2.102 -0.3149 -0.1831  0.1192
22402W        W41256   3.849  17.748   0.080 -0.1163 -0.2182  0.2172
22403W        W41257  13.212  11.606  11.573  0.3112  0.0684  0.1620
22404W        W41258   3.556  12.283  13.311 -0.0865  0.1643 -0.0588
22405W        W41259  17.436   6.775  13.377  0.0827  0.3028 -0.1626
22406W        W41260  17.313  10.560  11.197 -0.2355 -0.2395 -0.0308
22407W        W41261   1.293  14.820   9.407  0.1230 -0.0043 -0.0015
22408W        W41262   1.681   3.785  11.814  0.0691  0.2278 -0.0255
22409W        W41263   8.944  12.063  10.930 -0.0113  0.0011 -0.1461
22410W        W41264  13.473  10.428   2.691  0.0841 -0.1546  0.0069
22411W        W41265   3.757  14.325   3.330 -0.1651 -0.2290  0.1976
22412W        W41266  10.452  17.603  12.375 -0.1139  0.1972 -0.2347
22413W        W41267   3.244  18.981   2.777  0.0852 -0.2093 -0.0840
22414W        W41268   6.063  15.520   3.998 -0.1195  0.2334  0.1456
22415W        W41269   4.477  11.971   2.123 -0.0777  0.4954  0.1406
22416W        W41270  17.729   5.896   9.616  0.0924 -0.0128 -0.2309
22417W        W41271   0.279  14.493   2.444 -0.2097 -0.0899  0.0596
22418W        W41272   9.504   7.907  13.372 -0.1730  0.0772 -0.2549
22419W        W41273   3.484  15.430   1.813 -0.2619 -0.0045 -0.0058
22420W        W41274  15.206   6.044   1.839  0.2706  0.0464  0.1572
22421W        W41275   6.912   4.957   0.774 -0.0513  0.0857  0.2971
22422W        W41276   3.188   1.233  13.131  0.2696  0.1153 -0.0531
22423W        W41277  18.229   0.258  12.173  0.0067 -0.2787 -0.1054
22424W        W41278  17.606   4.053  11.390  0.0114  0.2538 -0.0513
22425W        W41279  12.772   3.163  11.394  0.0434 -0.2886 -0.1838
22426W        W41280  16.959  17.124  13.299 -0.2338  0.2119  0.0928
22427W        W41281   4.525  18.728  12.477 -0.2271 -0.1208 -0.0447
22428W        W41282   0.688   8.329   2.931  0.2041  0.1155  0.0297
22429W        W41283   2.337   4.706   0.297 -0.1046 -0.1428  0.1630
22430W        W41284   3.465  16.253   0.665 -0.2559 -0.0722  0.1896
22431W        W41285   6.092   9.825   3.828 -0.2474 -0.2303  0.1396
22432W        W41286  14.111   4.920  11.945  0.2263 -0.1887 -0.1795
22433W        W41287  17.073  10.861  14.677 -0.1726 -0.0575  0.1005
22434W        W41288   4.842  14.598   2.890  0.2463  0.0001 -0.0923
22435W        W41289   4.870   2.057  11.025  0.0546  0.3639 -0.0908
22436W        W41290   3.282  12.677  13.185  0.2522 -0.2337  0.0938
22437W        W41291   7.260  15.588   0.839  0.3272  0.1922  0.1107
22438W        W41292  18.402   1.443  13.444 -0.1248  0.0127 -0.1142
22439W        W41293  13.521  18.649  12.178  0.0521  0.0045  0.1696
22440W        W41294  15.846  17.911  12.225  0.0479  0.1049 -0.0064
22441W        W41295  12.796  17.500   4.199  0.1416 -0.0971 -0.1806
22442W        W41296  14.374   4.703  12.961  0.0037  0.3722 -0.3001
22443W        W41297  15.511   8.685  11.940  0.0071 -0.2117 -0.1703
22444W        W41298  18.763   3.585  13.377  0.0111  0.0766 -0.2797
22445W        W41299  15.041  13.856   3.780  0.1703  0.2145 -0.0189
22446W        W41300   8.775  13.022  13.683 -0.0097  0.4290 -0.1564
22447W        W41301   3.666   2.762   2.626 -0.1775 -0.1530  0.1971
22448W        W41302   2.154   9.747  13.404  0.1016  0.1601 -0.0298
22449W        W41303  13.993  12.906   0.337 -0.3430  0.1484  0.0737
22450W        W41304   0.773   4.334  13.892 -0.1858 -0.0677 -0.0319
22451W        W41305  18.061  19.166  13.392 -0.0292 -0.0732  0.0285
22452W        W41306   1.918  12.125  14.568 -0.3316  0.0564  0.2401
22453W        W41307   1.006   7.680   1.862  0.0879 -0.0989  0.3423
22454W        W41308   7.880   1.287  13.051  0.0435 -0.0482 -0.2360
22455W        W41309  18.545   5.569   4.069  0.0253 -0.1867  0.0102
22456W        W41310  14.423  18.802  12.054 -0.0540  0.0370  0.1402
22457W        W41311  16.627   5.282   0.665  0.2096  0.4339 -0.1274
22458W        W41312   8.862  15.161  13.210 -0.2660  0.0260  0.0872
22459W        W41313   4.230  17.715   2.944 -0.0040  0.3617  0.2383
22460W        W41314   4.095   3.701   3.493 -0.1546 -0.3035  0.1840
22461W        W41315   3.401   6.575   0.734  0.2863  0.0798  0.0469
22462W        W41316   1.507   5.963   4.981 -0.0442 -0.1188 -0.1626
22463W        W41317   3.317   3.879   0.132  0.1021 -0.0910  0.0348
22464W        W41318   1.434   4.554   1.275 -0.2629  0.1220 -0.0077
22465W        W41319  11.877   8.722  14.524 -0.0877 -0.1585  0.0582
22466W        W41320  18.723  14.083  11.061  0.1284  0.1160  0.2339
22467W        W41321   5.441  16.460  12.968 -0.2078 -0.1158 -0.3419
22468W        W41322   2.656  11.715   3.288  0.1414  0.2456  0.0545
22469W        W41323   4.999  17.257  11.977  0.1066  0.4459 -0.0541
22470W        W41324   3.729   9.649  10.095 -0.1626 -0.1469  0.0018
22471W        W41325   3.416  11.187   3.780 -0.3023 -0.4961  0.0042
22472W        W41326   2.212  17.976   1.163  0.1503 -0.2083 -0.1473
22473W        W41327  18.781  18.022   3.138 -0.4697  0.0312  0.3884
22474W        W41328   1.326   2.308  11.050 -0.1656  0.0447 -0.0452
22475W        W41329   6.147  17.041  13.667 -0.1166  0.0373  0.0440
22476W        W41330   4.798   1.186  12.174 -0.2818 -0.3930 -0.0411
22477W        W41331   9.026  11.750  10.530  0.0895  0.0275  0.1567
22478W        W41332   1.799   7.827  14.245  0.0034 -0.0327  0.2844
22479W        W41333   4.184  17.729   3.782 -0.0092 -0.0232  0.0412
22480W        W41334  14.129   4.816   2.789  0.0518 -0.2791  0.0699
22481W        W41335  13.190  10.457   1.639 -0.2315  0.2163  0.0609
22482W        W41336   9.050  17.195   3.235  0.1171 -0.0134  0.1071
22483W        W41337  10.943  12.262  13.197 -0.0665  0.0787  0.1780
22484W        W41338  11.455   7.927  14.731  0.2866 -0.1096  0.1777
22485W        W41339   6.251  12.671  14.412 -0.2544 -0.0805 -0.0372
22486W        W41340  12.214   4.102  14.321  0.1642  0.3447  0.1420
22487W        W41341  17.961  10.253  12.969 -0.0143 -0.0271 -0.0609
22488W        W41342   6.322  11.970   0.217  0.1594 -0.1006  0.3461
22489W        W41343   5.473   5.278  11.080 -0.3494 -0.1323 -0.2645
22490W        W41344   6.155   1.512   0.685  0.1220  0.1213  0.2761
22491W        W41345  13.212   3.001   2.995 -0.2270  0.1727  0.3054
22492W        W41346  10.076  10.992   3.205 -0.2543  0.0076  0.1838
22493W        W41347   3.364  14.583  13.437 -0.0715  0.2212  0.2287
22494W        W41348  16.912   5.966  13.715 -0.0614 -0.2209 -0.1224
22495W        W41349   2.788   1.334   5.062  0.0507  0.4022  0.0597
22496W        W41350   8.762  14.775  11.564 -0.1565  0.0503  0.3718
22497W        W41351  11.137   3.698   3.904 -0.0468 -0.1253  0.1262
22498W        W41352   9.074   0.051   3.535 -0.2043  0.1616 -0.1345
22499W        W41353   6.113  17.613  13.791  0.0780  0.1338 -0.2341
22500W        W41354  15.131   6.432  11.136  0.0862  0.1645 -0.0734
22501W        W41355   3.034  15.599   2.081  0.0145 -0.2466 -0.2601
22502W        W41356  14.321   1.529  10.448 -0.1937 -0.2417 -0.2476
22503W        W41357   6.819   5.208   2.207  0.2535 -0.0182 -0.1597
22504W        W41358  10.914  10.931  14.573  0.0612 -0.2160  0.0468
22505W        W41359   7.133   8.537   3.783 -0.3143  0.0879  0.2580
22506W        W41360  14.246  13.145   1.951 -0.0353  0.1924 -0.0555
22507W        W41361  14.199   9.684  13.210 -0.1157 -0.3198  0.3884
22508W        W41362   4.700   7.778   1.883 -0.2353  0.2521 -0.3550
22509W        W41363  11.438   3.528  14.283 -0.0324  0.3074 -0.1505
22510W        W41364   6.556   1.750  12.319  0.2250  0.0270 -0.1746
22511W        W41365   4.083   0.874  12.163  0.2677 -0.1320 -0.3252
22512W        W41366   1.711   4.823  10.558 -0.0779 -0.1112 -0.0738
22513W        W41367  17.069   8.469   0.293  0.0574 -0.1006  0.1716
22514W        W41368   3.622   9.773  12.867 -0.1534  0.1041 -0.2293
22515W        W41369   6.788   0.421   0.096  0.3586  0.1297  0.1732
22516W        W41370   4.845  16.589  11.094 -0.3856  0.0612  0.0127
22517W        W41371  17.308  11.417   1.202 -0.1168 -0.2722 -0.0834
22518W        W41372  10.007  18.126  13.844 -0.1358 -0.0676  0.2687
22519W        W41373   5.282  10.783   1.606  0.1370  0.1813  0.0635
22520W        W41374   2.299  13.077   2.773 -0.0025  0.0220  0.2669
22521W        W41375  12.751  13.861  12.089 -0.1234 -0.3281  0.0416
22522W        W41376   6.644   0.567   3.345 -0.0420 -0.1210 -0.1428
22523W        W41377   8.231  15.857   2.776  0.1805  0.3697  0.0418
22524W        W41378  10.321  12.618  11.452 -0.0711 -0.1401  0.0081
22525W        W41379   4.978   4.844   1.717 -0.5565  0.1487 -0.1348
22526W        W41380  19.080   2.473   3.614 -0.0747  0.2377  0.1237
22527W        W41381  16.200   2.465   1.105 -0.2753  0.0581  0.0800
22528W        W41382  16.789  19.195  11.991 -0.1783  0.0673 -0.2676
22529W        W41383  12.420  17.316   3.684 -0.0983  0.2041 -0.0255
22530W        W41384  14.886   5.365   4.115  0.3480  0.0709  0.1445
22531W        W41385  13.491  15.439  10.907  0.2554  0.1415  0.0069
22532W        W41386   0.763   7.365  13.008  0.0762 -0.0810 -0.2326
22533W        W41387  13.788  14.433   1.041  0.2199 -0.0914  0.3926
22534W        W41388   9.706  11.528  14.727  0.0889 -0.2500  0.1458
22535W        W41389  10.698   8.096  10.987 -0.1385  0.2797 -0.1947
22536W        W41390  15.107  17.549  11.747 -0.0402  0.0787 -0.0507
22537W        W41391   5.941  15.045  12.977 -0.1783  0.0696  0.3920
22538W        W41392   8.675   0.279   3.599  0.1245 -0.2925 -0.0055
22539W        W41393  10.342   5.179   2.262 -0.1687  0.0385  0.3865
22540W        W41394   2.418  11.307   2.871  0.4257 -0.1694 -0.1255
22541W        W41395  17.740  10.834   1.011  0.3302 -0.2138  0.0171
22542W        W41396   9.113   7.647   1.108  0.3926 -0.0514 -0.0406
22543W        W41397  13.658   0.436  12.938 -0.0272  0.1428  0.3239
22544W        W41398   5.186  16.135  13.270  0.0625  0.0135  0.0128
22545W        W41399   4.303   4.796   5.135  0.2536  0.3766  0.2147
22546W        W41400   8.975   8.822   1.690  0.2338 -0.1967 -0.3304
22547W        W41401   4.994  14.661   0.689 -0.2519  0.1283 -0.1337
22548W        W41402   4.176   7.462  10.663  0.1829  0.2935  0.0703
22549W        W41403  11.951   8.432  11.905 -0.3736  0.1012  0.1031
22550W        W41404  16.370  11.792  11.885 -0.2026 -0.2066  0.2298
22551W        W41405  14.515  17.833  12.974  0.1004 -0.0823 -0.2481
22552W        W41406  12.749   0.861  11.273 -0.1127 -0.0443 -0.0163
22553W        W41407   2.862  18.157   0.796 -0.2398 -0.0175 -0.1814
22554W        W41408   4.668   0.239   3.275  0.3663  0.1277  0.2043
22555W        W41409  13.445   3.777   0.310  0.0711 -0.2905  0.1382
22556W        W41410  14.073   3.047   3.321  0.1514 -0.0006  0.1908
22557W        W41411  12.795  17.031  12.500  0.1850 -0.2019  0.0778
22558W        W41412   9.067   2.911   1.030 -0.1421 -0.0231  0.0660
22559W        W41413  17.633  11.933  14.004 -0.1848 -0.2643 -0.0221
22560W        W41414  17.106   4.188   1.551  0.0308 -0.3416 -0.2422
22561W        W41415  18.974   2.708  13.222 -0.1527  0.1919 -0.3723
22562W        W41416   0.589   9.868  12.826  0.2114 -0.3433 -0.0433
22563W        W41417  12.562   6.804   3.177  0.1112  0.1018  0.0044
22564W        W41418  12.959  16.340   3.574  0.0718  0.2164 -0.0466
22565W        W41419   3.091   1.436  10.691  0.0723  0.1317 -0.1982
22566W        W41420   6.819  11.726   1.328  0.0858  0.0363  0.0894
22567W        W41421   3.671   6.512   3.438  0.0656 -0.0023 -0.1403
22568W        W41422   3.187  12.331   0.220 -0.1288 -0.2255 -0.1273
22569W        W41423   5.060  10.488  11.062  0.4121  0.0620  0.1242
22570W        W41424  15.411   8.429   3.914 -0.1334 -0.0103 -0.0699
22571W        W41425   9.345  12.778   0.834  0.2494  0.0931 -0.2319
22572W        W41426   8.971   4.560   0.125  0.0778 -0.1911 -0.0243
22573W        W41427   8.182  11.561  13.352  0.0250 -0.0342 -0.0677
22574W        W41428  13.174  11.492  10.600  0.2679  0.2483  0.0551
22575W        W41429  14.065   5.748   0.273 -0.1535 -0.2187  0.1528
22576W        W41430   5.417   1.880   3.948 -0.3471 -0.2036 -0.1017
22577W        W41431  16.158   2.977  12.120 -0.0900 -0.0547 -0.0671
22578W        W41432   7.865  10.020   3.128  0.0986  0.4406  0.0719
22579W        W41433   4.647   2.464   3.445  0.2302 -0.0687 -0.2516
22580W        W41434   5.796  15.650   3.053 -0.0443  0.0452  0.0466
22581W        W41435   8.088   0.712   2.117 -0.0336  0.2716  0.3507
22582W        W41436  10.014  15.828   0.370  0.2220  0.0797 -0.0133
22583W        W41437   7.773   1.508  12.594  0.2524  0.0951  0.0851
22584W        W41438   2.101  13.416  11.538 -0.2213  0.0373 -0.1677
22585W        W41439  17.024  12.406   9.633 -0.0272  0.1099 -0.0324
22586W        W41440   0.747   3.307  12.716  0.1139 -0.2666 -0.1870
22587W        W41441   3.452   3.612   1.625 -0.3003 -0.0745  0.1258
22588W        W41442  12.900   4.175  11.538 -0.0580 -0.1151 -0.0516
22589W        W41443   7.967   5.442  14.720 -0.2366 -0.2578 -0.3287
22590W        W41444  17.795   9.669   2.420  0.0122  0.0032 -0.1430
22591W        W41445  10.339  16.348   1.512 -0.0868  0.0817  0.0918
22592W        W41446   3.630  15.586   1.344  0.0390 -0.0575 -0.2439
22593W        W41447   9.447  19.038   3.284  0.1570  0.1846 -0.0883
22594W        W41448   5.406   9.500   1.610 -0.2281 -0.0809 -0.1836
22595W        W41449   4.387  15.017   1.270 -0.0329 -0.0472 -0.0241
22596W        W41450   6.183   3.178   5.438 -0.0676  0.0179  0.1127
22597W        W41451   9.297  11.768   3.416 -0.0173 -0.1165 -0.3454
22598W        W41452  14.200  11.250   2.392  0.0975 -0.1826  0.0500
22599W        W41453   4.350   8.890   0.823 -0.0541 -0.0855  0.0891
22600W        W41454   9.550  10.285  10.950  0.0491  0.0478 -0.2339
22601W        W41455   6.433   8.242   3.957 -0.2573  0.0470  0.1590
22602W        W41456   1.898   6.088   3.019 -0.1427  0.2176  0.0751
22603W        W41457   0.236   2.173   1.792  0.2510 -0.2417  0.4212
22604W        W41458   7.226   9.239  13.836  0.2069 -0.2949  0.0995
22605W        W41459   8.882  11.621  11.418 -0.0637  0.0022  0.1911
22606W        W41460  16.179  10.813  13.407  0.0236 -0.2215  0.1062
22607W        W41461   1.135  12.565   0.969 -0.1901 -0.3236  0.2174
22608W        W41462   3.285   4.422   1.914  0.0740 -0.0507 -0.1093
22609W        W41463   3.467   8.182  14.272 -0.2861  0.0497 -0.1662
22610W        W41464  10.987   2.590   1.618 -0.7615 -0.0559  0.1884
22611W        W41465   5.277   2.907   1.572 -0.1178 -0.1922 -0.1107
22612W        W41466  14.254  14.666   4.847  0.0271 -0.1677 -0.1382
22613W        W41467   0.866   7.383   3.827  0.1665  0.0477 -0.0343
22614W        W41468  10.742  18.384   2.155 -0.0564  0.0083 -0.2778
22615W        W41469  17.195   1.028   3.658 -0.1270 -0.2675 -0.2046
22616W        W41470   5.536  16.854   4.237 -0.1120 -0.0700 -0.3988
22617W        W41471  16.650   3.327  10.889 -0.3729  0.5702 -0.1379
22618W        W41472  12.375  14.939  13.622  0.0907  0.2462  0.0106
22619W        W41473  16.907   9.179   2.502  0.3505  0.1232  0.3532
22620W        W41474  13.866   7.194  11.248 -0.2073  0.0484 -0.2232
22621W        W41475  10.525  13.117  11.585 -0.0731  0.2069  0.1694
22622W        W41476  10.811   5.418   0.046 -0.2278  0.0588  0.0581
22623W        W41477  16.788   2.593   3.319  0.1869 -0.0946  0.0939
22624W        W41478   7.946   6.554  10.672  0.0796 -0.3970 -0.0731
22625W        W41479  16.130   3.049  12.737  0.3309 -0.2666 -0.0612
22626W        W41480   8.715   8.057  11.362 -0.0238  0.1255  0.0381
22627W        W41481  18.666   3.377  13.823 -0.2193  0.2281 -0.2651
22628W        W41482  12.479  17.169  14.685 -0.0465 -0.1850 -0.1391
22629W        W41483  16.358  16.443   4.032 -0.1335  0.1110  0.0318
22630W        W41484  14.435  13.184  12.597 -0.1457 -0.1412  0.0377
22631W        W41485   9.667   4.060   3.836 -0.3296 -0.1653  0.0759
22632W        W41486   2.071   5.628  12.412  0.2195 -0.3090 -0.1374
22633W        W41487   0.520   8.775   3.685 -0.1048 -0.2915 -0.2772
22634W        W41488  16.159  18.538  10.511  0.0784 -0.0691 -0.1021
22635W        W41489  15.769  17.454   3.783 -0.0305 -0.2248 -0.0737
22636W        W41490  15.435   4.125   0.902  0.2355  0.1452 -0.1220
22637W        W41491   2.777  10.884  12.999 -0.0175 -0.2937 -0.2718
22638W        W41492  13.398  12.888  14.325 -0.0801  0.4489 -0.1151
22639W        W41493   1.650   9.725  12.469 -0.0185 -0.1319  0.1867
22640W        W41494   2.282   7.965   2.093 -0.0140  0.1975  0.1826
22641W        W41495   5.695  12.202   2.335 -0.0128  0.0800 -0.1831
22642W        W41496   2.200   2.729   4.194  0.1744 -0.1197  0.2392
22643W        W41497  14.182  15.105  10.090  0.2574 -0.1263 -0.0573
22644W        W41498   0.056   2.242   2.261 -0.0602 -0.0969  0.1499
22645W        W41499   4.524   3.046  14.546  0.0301 -0.0935  0.1342
22646W        W41500  13.741  12.895   1.853 -0.1833 -0.3652 -0.0330
22647W        W41501  13.200   0.857   3.159 -0.0907 -0.2006 -0.3429
22648W        W41502   0.140  11.343   2.306  0.0405  0.2080 -0.0293
22649W        W41503  14.331  14.413   2.525 -0.1923  0.1794  0.5985
22650W        W41504   8.949   3.261  14.205 -0.0548  0.0466 -0.1101
22651W        W41505  17.087  18.470  12.999  0.0159 -0.0704 -0.1007
22652W        W41506   8.341   7.436   3.286  0.2966  0.0916  0.0431
22653W        W41507   3.912   4.210   0.392  0.0952  0.2394 -0.1182
22654W        W41508  16.540  14.721  11.614  0.0207  0.4949 -0.1311
22655W        W41509  12.410  14.337  11.307 -0.0119 -0.0063 -0.1664
22656W        W41510   3.383   8.762   0.124  0.0654  0.0822 -0.1015
22657W        W41511  16.595   2.165  12.160  0.0189  0.3658 -0.0850
22658W        W41512  15.677  15.673  13.919  0.0688 -0.0487 -0.0623
22659W        W41513   7.454   0.401   1.790  0.1611 -0.1415 -0.1452
22660W        W41514   6.210  15.473   1.719  0.0549 -0.0160  0.0584
22661W        W41515   0.030  16.181  11.009  0.1718 -0.2070  0.0839
22662W        W41516   3.709   9.936  13.346  0.0247 -0.1155 -0.0284
22663W        W41517  10.219   8.787   3.152  0.1124 -0.2036 -0.1650
22664W        W41518   8.856  11.764   0.001 -0.1398  0.0732 -0.1663
22665W        W41519  13.261   4.437   2.487  0.0509 -0.1875  0.1630
22666W        W41520   4.144  14.537  10.765 -0.1344  0.1575  0.0158
22667W        W41521   0.687  17.099  13.299  0.0497 -0.1177 -0.2916
22668W        W41522   0.738   2.095   3.072 -0.0654  0.2599  0.0637
22669W        W41523  18.320  16.609  11.699 -0.0147  0.0904  0.1007
22670W        W41524  16.427  11.944   2.528 -0.0614  0.0964  0.0570
22671W        W41525  13.879  15.554  12.665  0.1187  0.0960 -0.0153
22672W        W41526   4.004   4.721  12.391  0.0454 -0.1195  0.0413
22673W        W41527  18.987   6.693  12.520 -0.1861 -0.0755 -0.1020
22674W        W41528   1.890   9.258  13.283 -0.4240  0.1793  0.1170
22675W        W41529   9.858  18.074   3.424  0.3271 -0.0497  0.3916
22676W        W41530   7.770  13.230  11.021  0.0147 -0.1433  0.2228
22677W        W41531   8.576   7.871  10.926 -0.0540  0.3351 -0.6226
22678W        W41532  14.887   6.158   2.548 -0.2683  0.0299 -0.0772
22679W        W41533  19.076  14.004   3.525  0.1518  0.3898 -0.2678
22680W        W41534   7.691   0.936  13.415  0.2461 -0.0231 -0.1958
22681W        W41535  17.930  13.481   4.179  0.2322 -0.0460  0.0134
22682W        W41536   2.676   8.206  11.181  0.1760  0.1197  0.1118
22683W        W41537  19.084  10.845   2.767  0.1164  0.0859  0.0417
22684W        W41538  18.401  13.380  14.600 -0.1469  0.2146  0.3194
22685W        W41539   4.413   1.924   3.802 -0.2370  0.2296 -0.0556
22686W        W41540   0.069   8.055   3.523 -0.0101 -0.0801  0.1526
22687W        W41541  15.151   5.575   1.675 -0.1358 -0.3686 -0.0281
22688W        W41542   0.618  16.619  13.409 -0.0102 -0.1477 -0.0717
22689W        W41543  12.728  10.333   1.679  0.2915 -0.1259  0.1195
22690W        W41544   0.284  17.360   1.570 -0.0954 -0.0051  0.6091
22691W        W41545  15.207   4.184  13.300  0.1163  0.2342 -0.2253
22692W        W41546   2.411   1.753   1.749  0.1606 -0.1687 -0.0034
22693W        W41547   4.221   4.214  10.786 -0.0590 -0.2939  0.1157
22694W        W41548  12.646   2.614  12.750  0.1845  0.3733 -0.1114
22695W        W41549  14.007  13.189  12.220  0.2039 -0.1889  0.2672
22696W        W41550   8.045   9.882  14.128  0.2955 -0.0327  0.1758
22697W        W41551   7.912  16.157  10.897 -0.3872 -0.1248 -0.3727
22698W        W41552  16.654   6.691   0.849 -0.0695  0.1069 -0.1023
22699W        W41553   1.946  15.989   1.894  0.1121 -0.1669 -0.4029
22700W        W41554   3.990   8.252  12.717 -0.2219  0.1475 -0.1934
22701W        W41555   2.187   7.152  13.768 -0.0719 -0.2283  0.0147
22702W        W41556  14.207  13.055   2.765 -0.1206 -0.2925  0.1768
22703W        W41557   3.387  11.753  13.317 -0.0196 -0.0778 -0.6192
22704W        W41558   2.535   1.340   0.868  0.1773  0.1697 -0.0960
22705W        W41559  16.228  15.975   4.531  0.1790 -0.0019  0.1457
22706W        W41560  11.711  18.358   0.824 -0.1056 -0.1108  0.0250
22707W        W41561  11.255  10.130   2.161 -0.0554  0.2169 -0.0519
22708W        W41562  18.435  16.374   3.960 -0.2132  0.1320 -0.2778
22709W        W41563  11.815   9.336  12.451 -0.0864  0.0876 -0.1235
22710W        W41564   8.789  18.835   0.489  0.0734  0.1215 -0.1091
22711W        W41565   7.223  10.913   3.928  0.2691 -0.0492  0.2970
22712W        W41566  16.045  14.155   4.993  0.2057 -0.0619 -0.0207
22713W        W41567  12.640  12.543   3.184 -0.1443 -0.1241 -0.0355
22714W        W41568   8.035   1.293   2.517 -0.0995  0.1432 -0.0105
22715W        W41569  12.732  16.719  11.282 -0.0263 -0.2619 -0.0042
22716W        W41570  13.378   2.422   2.193  0.3835 -0.1490  0.1912
22717W        W41571  14.816   5.656  11.470 -0.0396 -0.1584 -0.1289
22718W        W41572  10.490  13.560   2.760 -0.0593  0.3168 -0.3252
22719W        W41573   1.091   0.760   1.541 -0.0771 -0.1106  0.0428
22720W        W41574  14.844   8.559   9.307 -0.2050  0.3171 -0.3219
22721W        W41575   0.113   1.775   2.154  0.1664 -0.0723  0.1979
22722W        W41576   2.735  12.784  12.289 -0.0163 -0.0150 -0.2711
22723W        W41577   9.861  14.414   2.114  0.0859 -0.1099  0.0981
22724W        W41578  16.278   2.168   0.468  0.0246 -0.1367  0.1532
22725W        W41579   7.834  17.854   5.300 -0.1234  0.3851 -0.1700
22726W        W41580   5.054   7.879  13.855  0.0986  0.1991  0.0549
22727W        W41581  12.252  17.079   0.718 -0.4590 -0.1990  0.0710
22728W        W41582   6.438  17.629   3.451 -0.1093  0.2828 -0.0298
22729W        W41583  12.837   6.435   0.986 -0.2361  0.2013 -0.1680
22730W        W41584   2.078   1.304  12.994 -0.1351  0.0404  0.0120
22731W        W41585   9.518  13.923   0.791 -0.0548  0.3002 -0.0431
22732W        W41586   4.676   4.752   9.674  0.0371 -0.1670  0.0945
22733W        W41587   1.155   1.201   0.979 -0.1205  0.0806  0.0506
22734W        W41588   0.132  13.169  12.611 -0.3007  0.2074 -0.0009
22735W        W41589  11.363   8.671  12.776  0.0464  0.3509  0.0487
22736W        W41590   6.353  12.985   4.150 -0.0940 -0.1874 -0.0691
22737W        W41591  18.156  12.437   3.636 -0.0247  0.0379 -0.1802
22738W        W41592   7.487   6.515  10.950 -0.0208 -0.0784 -0.3178
22739W        W41593   1.889   6.554  10.573  0.2135  0.1639 -0.3385
22740W        W41594   8.907   4.351  12.340 -0.1600  0.1678  0.0518
22741W        W41595  17.035   8.742  14.577  0.1235  0.0667 -0.0953
22742W        W41596   0.924   8.304  11.091 -0.4466  0.1434 -0.0252
22743W        W41597  14.880  16.807  12.234 -0.0570 -0.0761 -0.0571
22744W        W41598   3.968   5.685   2.680  0.1376  0.1028  0.0360
22745W        W41599   0.584   9.910   0.863 -0.3417  0.0091 -0.2252
22746W        W41600   3.193  10.399   3.715 -0.0355  0.0906 -0.0498
22747W        W41601   5.069  11.834   2.249 -0.3043 -0.0388  0.3187
22748W        W41602   0.062  14.193  14.026  0.1690  0.2521  0.4601
22749W        W41603   4.035   0.312  14.360  0.0311  0.1105  0.0324
22750W        W41604  19.054  15.754  11.900 -0.1705  0.0810  0.1443
22751W        W41605   3.685  17.143   0.779 -0.1773 -0.3503  0.0861
22752W        W41606   9.978   5.460  12.338 -0.2266  0.1032  0.4311
22753W        W41607   4.851  14.442  13.095 -0.2524 -0.0362 -0.2388
22754W        W41608  14.412   9.542  12.048  0.2547  0.0748 -0.4052
22755W        W41609   4.835  15.868   1.174  0.2182  0.0083  0.0994
22756W        W41610  18.601  17.338   0.714 -0.3419  0.4781 -0.1326
22757W        W41611  16.252   5.044   1.458 -0.0618 -0.0884  0.0076
22758W        W41612  13.163  18.731   4.163 -0.3046 -0.1335 -0.0255
22759W        W41613  16.058  10.766  13.910  0.1120  0.4291  0.0488
22760W        W41614  10.156   0.051   4.272 -0.0161 -0.1295  0.0993
22761W        W41615  15.583  14.835  12.283 -0.2171 -0.0059 -0.1188
22762W        W41616  17.268  17.253   1.751 -0.0796  0.0209  0.3594
22763W        W41617  18.700  10.603   3.521 -0.0413  0.0773 -0.1572
22764W        W41618   2.751   3.675  14.141 -0.0792  0.0887  0.4691
22765W        W41619  14.931  13.909  14.581  0.2864  0.0128 -0.2271
22766W        W41620   7.702  17.600   2.092  0.0621  0.0735  0.0802
22767W        W41621  14.898   7.218   5.137  0.2006  0.0860 -0.0978
22768W        W41622  12.423   0.792   1.447  0.3948  0.2360  0.2035
22769W        W41623   9.076   4.305  11.405  0.1628  0.5301 -0.1427
22770W        W41624   0.887   1.960   2.544 -0.1201  0.0395 -0.0626
22771W        W41625  16.656   9.978   0.714 -0.0187  0.3996  0.2561
22772W        W41626   3.915   6.875  10.203  0.0731 -0.1143  0.1977
22773W        W41627  16.621   4.649  13.462  0.0232 -0.0281 -0.1613
22774W        W41628  17.662  12.667   4.689 -0.3008 -0.2568  0.0868
22775W        W41629  19.170  12.045  13.576 -0.0416 -0.2417  0.1544
22776W        W41630  14.807   5.975   0.529  0.0002 -0.2138  0.1102
22777W        W41631  18.528  14.605   0.119  0.0095  0.0258 -0.0410
22778W        W41632  15.422   5.792  12.431  0.0046 -0.1447  0.2620
22779W        W41633  13.849  17.717  13.687  0.3511 -0.0610 -0.2119
22780W        W41634  15.305   4.494   9.393  0.0332  0.2135 -0.0012
22781W        W41635   0.268   2.412   3.096  0.0383 -0.3263 -0.0450
22782W        W41636   8.953   8.199   9.299  0.0209  0.1756  0.0911
22783W        W41637  14.011   1.194   0.881  0.0887  0.2599 -0.0153
22784W        W41638  15.930  12.842   3.328 -0.2138 -0.0141  0.1340
22785W        W41639   4.543   5.568  13.363 -0.1325  0.1533 -0.2479
22786W        W41640  12.597  13.217  13.423  0.0964  0.0835 -0.1340
22787W        W41641   2.289  13.473   3.699  0.2155  0.3398  0.5128
22788W        W41642  10.174   9.762   3.038 -0.1204 -0.0334 -0.1049
22789W        W41643  14.103  15.933   2.398  0.2237 -0.3393 -0.1799
22790W        W41644  18.935  14.428   3.747 -0.0313 -0.0751  0.1870
22791W        W41645   4.870   7.812   2.711 -0.2597  0.1253 -0.0972
22792W        W41646   8.649  16.276  13.621  0.0264 -0.0682 -0.2914
22793W        W41647   4.597   8.040   4.574 -0.3339  0.2001 -0.0101
22794W        W41648   6.016   7.063  14.687 -0.0209  0.1819 -0.2451
22795W        W41649   0.734  12.769   1.584 -0.0917  0.1274  0.0317
22796W        W41650   7.137  19.095  10.262  0.2777  0.1511 -0.0213
22797W        W41651   7.964  10.809   9.708  0.1668  0.0230  0.1383
22798W        W41652   5.544  14.797   0.718  0.0507  0.2074 -0.2187
22799W        W41653   6.135   3.262   1.477 -0.1566  0.2009  0.0608
22800W        W41654   0.106  12.064   0.028 -0.1083  0.2738 -0.1337
22801W        W41655   5.614  19.091   2.409 -0.0390 -0.0072 -0.0899
22802W        W41656  17.185  13.474  11.996  0.0206  0.0308  0.1296
22803W        W41657   3.611   4.210  13.112  0.0844 -0.1367  0.0151
22804W        W41658   7.315   3.170   0.406  0.3512  0.0302  0.1538
22805W        W41659  14.991   4.156   0.723  0.2006 -0.0969  0.2316
22806W        W41660  13.079   8.220   3.430 -0.0128  0.0698  0.0716
22807W        W41661   8.718   4.946  12.078  0.0503 -0.0343 -0.0323
22808W        W41662  18.051   2.219  13.120 -0.0016  0.0875 -0.3215
22809W        W41663  15.162   1.758   1.781  0.0339  0.1097 -0.2354
22810W        W41664   3.309  10.272   3.239  0.1435  0.3114 -0.2364
22811W        W41665   3.649  16.563   4.227 -0.0201  0.0093 -0.1230
22812W        W41666   1.143  10.293   2.348  0.0964 -0.1773 -0.1793
22813W        W41667   1.660   9.802   2.225 -0.1336 -0.1221 -0.2529
22814W        W41668  11.804   6.765   3.058 -0.0970 -0.1529 -0.2005
22815W        W41669   1.791   5.523   3.852 -0.0687  0.1934  0.5097
22816W        W41670   8.375  12.848  13.503 -0.0643  0.0272 -0.2978
22817W        W41671   7.709   9.420  13.384 -0.2448 -0.1512 -0.1032
22818W        W41672   2.247   8.637   2.859  0.2775  0.1816  0.0007
22819W        W41673  10.155  11.964   0.563  0.1326 -0.2466  0.0271
22820W        W41674  12.493   1.537  11.672  0.0794  0.4370  0.3728
22821W        W41675  12.582  14.288  10.813 -0.0442 -0.3588  0.0094
22822W        W41676   1.788   7.729  11.653 -0.1772 -0.0281 -0.5556
22823W        W41677  17.672   1.013  12.986 -0.1981  0.0242  0.1374
22824W        W41678  10.395  11.990  13.198 -0.1948  0.1306 -0.0247
22825W        W41679  10.485   5.167  11.363 -0.2709 -0.2195 -0.0465
22826W        W41680  11.120   9.990   0.752  0.0053  0.0497 -0.2704
22827W        W41681   5.777  17.739  12.936 -0.1300 -0.0757  0.2408
22828W        W41682   7.045  16.285  11.607 -0.2728  0.0041  0.0252
22829W        W41683   8.593  15.987   1.153  0.0451 -0.0043 -0.2874
22830W        W41684  11.190   7.808   2.374 -0.2076  0.1639 -0.1152
22831W        W41685   9.055   5.947   0.106  0.1047  0.1876  0.1406
22832W        W41686  14.487  17.470   0.672  0.1808 -0.1066  0.0622
22833W        W41687   3.619   1.722   2.992 -0.0689 -0.0438 -0.0776
22834W        W41688  18.294  17.367   3.384  0.2096 -0.1752  0.1090
22835W        W41689   3.763   0.344  13.883 -0.1784  0.1157 -0.1230
22836W        W41690   2.084   6.085   2.213 -0.1042 -0.3618 -0.0040
22837W        W41691  16.629   2.066   1.903  0.0170 -0.1374 -0.0520
22838W        W41692   9.524  16.068   9.657 -0.4190  0.1812  0.0240
22839W        W41693  10.204  16.826   2.423 -0.2213 -0.1537 -0.1763
22840W        W41694  19.185  13.148   4.982  0.1133 -0.1458  0.1450
22841W        W41695   8.301  18.768   0.458  0.3282  0.0833 -0.0615
22842W        W41696   1.637  10.567   2.070  0.2735  0.1116  0.0665
22843W        W41697   8.345  16.803  12.129  0.1806 -0.1581 -0.2188
22844W        W41698  12.510   4.385  14.111 -0.0245  0.1055  0.0420
22845W        W41699  14.566  17.545   2.028 -0.1309  0.1641  0.3028
22846W        W41700  19.191  10.528  12.316 -0.0933  0.0558  0.0782
22847W        W41701   9.884   8.172  11.441 -0.1472 -0.1754  0.0378
22848W        W41702  15.344   7.939   3.096  0.0553  0.0259 -0.1733
22849W        W41703  14.894  13.342  13.875 -0.1258 -0.3610 -0.2381
22850W        W41704  11.421   8.871  11.780  0.2226  0.1267  0.1562
22851W        W41705  15.599  11.186   4.255 -0.0529 -0.2822 -0.1535
22852W        W41706  13.908   6.273   2.777  0.3409  0.1376  0.0858
22853W        W41707   0.585  13.268   3.083  0.0829 -0.0316  0.1262
22854W        W41708   4.265   4.381   4.704  0.3002 -0.0377 -0.0435
22855W        W41709   1.461  10.548   0.621 -0.0499 -0.2120 -0.3902
22856W        W41710   2.712   8.603   2.672 -0.1716 -0.2283 -0.2579
22857W        W41711  13.473   6.942   1.635  0.1293  0.1871  0.2146
22858W        W41712  12.345   8.964  12.554 -0.2763 -0.1484 -0.2477
22859W        W41713  15.866   2.146  10.724  0.2223  0.0259  0.0781
22860W        W41714  13.449  11.231  14.732 -0.0202  0.2816 -0.0934
22861W        W41715  11.779   6.775  13.924  0.1401 -0.2698  0.1675
22862W        W41716   5.595   1.867   4.559 -0.0020 -0.1465 -0.1514
22863W        W41717   6.286   6.673   1.301  0.0713  0.1505  0.0351
22864W        W41718   3.896  13.855  13.240  0.0756  0.2603 -0.2048
22865W        W41719   8.700  17.161  12.285  0.1537  0.1311 -0.2640
22866W        W41720  11.188  11.426  12.076 -0.1354 -0.2314 -0.1515
22867W        W41721   9.798   1.792  13.560 -0.0588 -0.0289  0.2428
22868W        W41722  15.417   0.737   2.065 -0.1264  0.0924  0.1898
22869W        W41723   7.587  11.289  13.064 -0.1257 -0.0401 -0.3427
22870W        W41724   1.861   7.592   3.080 -0.0559 -0.1305 -0.0363
22871W        W41725  19.007  10.948   3.757 -0.0305  0.1036 -0.1036
22872W        W41726  12.020  14.566  14.264 -0.3123  0.4625  0.0982
22873W        W41727   8.945  18.293   0.086 -0.0473 -0.0448  0.0204
22874W        W41728   0.792  13.561   4.427  0.3802  0.1481  0.1309
22875W        W41729  17.457  17.900  12.277 -0.0724  0.0526 -0.2019
22876W        W41730   4.288  10.199  11.723 -0.1418  0.0094 -0.0293
22877W        W41731   4.626  13.570  14.204 -0.0815  0.1522  0.0198
22878W        W41732  18.711   6.241  11.014  0.1170  0.2295  0.1017
22879W        W41733  17.177  15.384   1.527  0.4740 -0.1342  0.1060
22880W        W41734   2.275   4.308  11.006  0.1690 -0.0201 -0.3113
22881W        W41735   7.485  10.271  12.865  0.1029 -0.2459  0.5067
22882W        W41736   5.764  17.396  13.439  0.1686 -0.0601  0.1749
22883W        W41737  16.997   6.293   0.808  0.3978 -0.0239 -0.2260
22884W        W41738  14.363  15.838   2.861  0.1762  0.2337  0.0174
22885W        W41739  16.853  18.268   3.576 -0.0059 -0.2097 -0.0403
22886W        W41740  11.653  17.792   4.048 -0.0869  0.2537  0.0489
22887W        W41741  14.843  10.656   1.463  0.1989 -0.0915  0.2559
22888W        W41742   9.770  19.182   3.910  0.0433 -0.2215  0.3048
22889W        W41743   9.223  15.541  13.247 -0.2332 -0.0196 -0.0726
22890W        W41744  16.496   7.460  11.414 -0.1703 -0.0162  0.0684
22891W        W41745   8.520   1.724  11.861  0.1854 -0.2119  0.0012
22892W        W41746  12.512   7.816  13.046  0.0089 -0.2346 -0.0127
22893W        W41747  15.714  18.596   1.659 -0.0192  0.1004 -0.5035
22894W        W41748   2.097  13.896  13.349 -0.0320 -0.0275 -0.2268
22895W        W41749   8.001  14.648  10.034  0.2134  0.2099  0.0489
22896W        W41750   4.914  12.658  13.924 -0.0432  0.0598  0.0198
22897W        W41751   6.664  13.427  12.290 -0.3421 -0.0542 -0.1615
22898W        W41752   0.211  12.805   5.890  0.0864 -0.0694 -0.2339
22899W        W41753   5.874  17.894   2.713  0.1235 -0.1909  0.1304
22900W        W41754   9.411   8.229  11.460  0.2731  0.3771 -0.1350
22901W        W41755   5.583   4.214   1.179 -0.1112  0.0404  0.0411
22902W        W41756  10.789   2.456   9.437  0.3474 -0.2347  0.1790
22903W        W41757  12.895   2.955   2.164 -0.2969  0.0576 -0.1710
22904W        W41758  14.966   6.794   9.572  0.0091 -0.0566 -0.0198
22905W        W41759  15.717   9.109   3.469  0.1163 -0.0056  0.0550
22906W        W41760  13.858   9.591   1.124  0.1586  0.2612 -0.1886
22907W        W41761  14.126   5.261   4.618 -0.0445 -0.2051  0.1833
22908W        W41762  14.568   8.652   3.223  0.0362  0.0772  0.2247
22909W        W41763  17.300  19.121  14.053  0.2432 -0.3534 -0.0582
22910W        W41764  17.476   1.317   1.309 -0.2153 -0.2874  0.1052
22911W        W41765   3.659   5.094   1.861 -0.1749  0.0104 -0.2612
22912W        W41766   9.428   9.964   0.365 -0.0836  0.0877  0.0761
22913W        W41767   7.256   2.529  13.783  0.2794 -0.0377 -0.1611
22914W        W41768  16.314  11.189  13.863  0.1952  0.0967  0.0495
22915W        W41769  16.044  14.201  12.187 -0.0733  0.0387 -0.1150
22916W        W41770   4.376   2.857  11.452  0.3108  0.0978 -0.1011
22917W        W41771   9.759  14.747  13.488  0.2840  0.1079  0.0209
22918W        W41772   9.557  18.319   0.791  0.1081  0.1102 -0.0876
22919W        W41773   1.615   7.194   1.125  0.1324 -0.1839  0.0467
22920W        W41774   5.234  10.848   2.101 -0.0880 -0.2681 -0.1215
22921W        W41775   0.080   1.848  13.525  0.2285  0.0195 -0.0080
22922W        W41776   6.165  13.719   2.935 -0.0384 -0.1667  0.1028
22923W        W41777  16.432  11.120   1.445  0.2063 -0.0221 -0.0975
22924W        W41778   7.722   3.575   2.902  0.0513 -0.0390  0.1351
22925W        W41779   2.473  14.161  11.244 -0.1373 -0.1313  0.0171
22926W        W41780   2.625  11.704   0.010 -0.1780  0.1094 -0.4101
22927W        W41781   1.312  10.533  12.972  0.1149  0.2091 -0.4093
22928W        W41782   1.671  11.232   1.022 -0.1852  0.1310 -0.2225
22929W        W41783  11.047  14.312   2.584 -0.0959  0.0232  0.2447
22930W        W41784  17.568  10.910  12.222  0.0160 -0.1224  0.3034
22931W        W41785  13.663  11.523  12.650 -0.1129  0.2161 -0.1197
22932W        W41786  18.651   5.223   3.225 -0.2316  0.1227 -0.0394
22933W        W41787   2.827   0.526   0.492  0.0118 -0.0845  0.0031
22934W        W41788   7.322  17.986  10.929 -0.2737 -0.1440 -0.2253
22935W        W41789  11.946   5.615   1.102 -0.0750 -0.2024  0.1050
22936W        W41790  13.826  15.578   4.437 -0.2943  0.0123  0.1027
22937W        W41791   4.940   1.107  10.977  0.0043 -0.1030 -0.0056
22938W        W41792   0.372   3.630  14.091 -0.4064  0.0673 -0.1091
22939W        W41793  10.151   7.358  12.053  0.0682  0.0647 -0.0680
22940W        W41794  18.869  14.089   1.715  0.1117  0.0202  0.1161
22941W        W41795   7.582   2.504  12.534  0.1534  0.1106 -0.2013
22942W        W41796  19.009   8.439  13.816 -0.2057  0.0271  0.0255
22943W        W41797   5.650   1.482   4.170 -0.0939 -0.3604  0.2029
22944W        W41798  16.272  14.733   0.384 -0.1894  0.3965  0.1070
22945W        W41799   8.940   2.767  14.117 -0.0219 -0.1684 -0.1513
22946W        W41800   1.517  11.085  11.039  0.1351  0.0217  0.1616
22947W        W41801   9.872  16.240   1.244 -0.2462 -0.0407  0.1931
22948W        W41802   3.974  16.817  10.638  0.1880 -0.1112  0.1035
22949W        W41803   7.012  10.557   0.494 -0.6139  0.0964 -0.0518
22950W        W41804   2.250  17.899  13.783  0.0106  0.0130  0.2374
22951W        W41805   9.729   8.884  10.539  0.0323  0.0292 -0.2835
22952W        W41806   4.792   5.268   2.132 -0.3866  0.4044 -0.3874
22953W        W41807   6.925  18.809   0.758 -0.2428 -0.2511 -0.1763
22954W        W41808  12.219  18.004   1.749  0.1058  0.2288  0.3877
22955W        W41809   3.894  14.350  11.192 -0.1386 -0.4076 -0.0532
22956W        W41810   4.459   4.367   2.140  0.1666 -0.0633  0.1165
22957W        W41811   5.162  16.617   0.406 -0.0520  0.1014 -0.1399
22958W        W41812  10.753  15.813  11.110 -0.1574 -0.0250 -0.1831
22959W        W41813  14.483   5.804  12.673  0.0063 -0.0450 -0.0622
22960W        W41814  18.299   3.980   4.488 -0.0578  0.1695 -0.0478
22961W        W41815   6.703  16.707   3.511 -0.2422 -0.4974 -0.3516
22962W        W41816  13.435  12.823   1.084 -0.0573  0.2475 -0.1433
22963W        W41817  13.046  17.938   2.756 -0.3243  0.1215  0.4648
22964W        W41818   1.028  19.157   2.806 -0.2403  0.1159 -0.0900
22965W        W41819  17.673   5.589  10.511 -0.0663  0.2786  0.0039
22966W        W41820   8.910   0.345   2.681  0.0470 -0.2431  0.2743
22967W        W41821   8.809  14.624   0.165  0.1186 -0.1487  0.0509
22968W        W41822  15.305  10.338   2.672  0.0469  0.1904  0.0170
22969W        W41823   2.484  10.023  12.367  0.1045 -0.1443  0.1401
22970W        W41824   0.648   5.650  13.473 -0.0398 -0.1151 -0.1202
22971W        W41825   9.044  16.356  10.775  0.0508 -0.1082  0.1869
22972W        W41826  11.320  14.752  12.907  0.0984  0.2621 -0.1040
22973W        W41827   2.597  10.927  12.512 -0.0355 -0.2908 -0.0530
22974W        W41828  13.269   6.228   3.262  0.1249  0.0957 -0.1374
22975W        W41829  18.088   9.981   3.674 -0.0688  0.5065  0.0417
22976W        W41830  18.654   7.151  14.348  0.1236 -0.4234 -0.0333
22977W        W41831  15.869  14.842   1.155 -0.1163 -0.1885  0.0778
22978W        W41832   4.661   5.452   4.248  0.2516 -0.2721 -0.0215
22979W        W41833  17.330   7.906   4.636 -0.0551  0.0236 -0.1890
22980W        W41834   5.850   3.257   0.989  0.0557  0.1807  0.2158
22981W        W41835  18.606  13.167  11.311  0.0316 -0.1232  0.0862
22982W        W41836   4.297   4.748  12.017 -0.1587  0.3204 -0.1531
22983W        W41837  17.520   5.287   0.971  0.2335  0.2850 -0.0029
22984W        W41838  10.357  10.576  12.351  0.1442  0.0836  0.1001
22985W        W41839  16.808   3.288  10.441  0.2253  0.0680  0.1144
22986W        W41840  19.164   2.895  14.463 -0.2103 -0.1414 -0.0247
22987W        W41841  16.959   7.498   1.433  0.2220  0.0661 -0.1506
22988W        W41842   4.064   6.398   0.195 -0.2740 -0.0178 -0.1278
22989W        W41843   8.310   0.942   2.669 -0.0110 -0.4121  0.2130
22990W        W41844   1.571  10.071  13.053  0.1446  0.0344  0.0249
22991W        W41845   0.093  10.669   1.033 -0.0426  0.0246  0.3076
22992W        W41846   3.036   7.081   0.594  0.0018 -0.1218  0.0151
22993W        W41847   7.516  17.090   4.851 -0.2925 -0.0955 -0.0349
22994W        W41848   3.269  15.187  10.847  0.0896  0.0822  0.0765
22995W        W41849  18.868   2.021   0.615  0.2330 -0.2162  0.1780
22996W        W41850   5.224  14.938   2.165 -0.3387 -0.1224  0.1052
22997W        W41851  18.337  18.920   9.886 -0.2578  0.1464 -0.0085
22998W        W41852  13.760   2.854   3.008  0.3054  0.0296  0.0380
22999W        W41853   0.298   0.560   5.283 -0.0707  0.2381 -0.2543
23000W        W41854  18.985  12.439   3.932 -0.2752  0.0058  0.1953
23001W        W41855   0.083   1.583   9.934  0.2150  0.0862  0.0823
23002W        W41856  13.539  15.823   2.424 -0.1676  0.0179 -0.2172
23003W        W41857   7.511   9.595   3.809 -0.0734  0.2165  0.4290
23004W        W41858  15.209  16.759  11.293 -0.0899  0.4397  0.0669
23005W        W41859   4.381   2.441   0.087 -0.3462  0.1729 -0.4284
23006W        W41860  18.975  17.312   0.009 -0.0373 -0.1334  0.2798
23007W        W41861  10.488   0.042  12.273 -0.0259 -0.1975 -0.2920
23008W        W41862  17.321  18.004   0.999 -0.1834  0.1374 -0.0691
23009W        W41863  17.078  18.452   3.107 -0.0871  0.1136  0.0179
23010W        W41864  10.190  15.821  14.220 -0.1197  0.0014 -0.0018
23011W        W41865  12.432   2.177   3.420  0.2155 -0.2048 -0.3250
23012W        W41866  10.544  19.010  14.559 -0.0331  0.1265  0.0081
23013W        W41867  13.272  16.451  10.750 -0.1278  0.1923 -0.1830
23014W        W41868   4.536  17.149   2.473  0.1339 -0.2304  0.0688
23015W        W41869   0.151   7.899  14.467  0.1144 -0.1155 -0.1130
23016W        W41870  15.124  14.889  11.118  0.1540 -0.1518  0.2530
23017W        W41871   5.392   8.433  12.540 -0.2158 -0.1600 -0.2291
23018W        W41872  10.118  10.222  12.576 -0.1951  0.0852 -0.2414
23019W        W41873   3.027  15.660   2.629 -0.2436  0.1882 -0.4262
23020W        W41874   8.180  11.004   0.601 -0.0951 -0.1125 -0.3401
23021W        W41875   8.480  14.829   0.740  0.1251 -0.0444 -0.0664
23022W        W41876  13.180  15.205  11.822 -0.1406 -0.2889  0.0586
23023W        W41877   4.735  14.089   3.239  0.2650  0.2163  0.2278
23024W        W41878  16.819  17.030  14.029 -0.0979 -0.3021  0.2699
23025W        W41879  12.288   6.521  12.473  0.1588  0.2587 -0.0475
23026W        W41880  14.511   8.671   0.202  0.2013 -0.0787 -0.2430
23027W        W41881  17.593   6.226  11.014 -0.0080  0.2772  0.1843
23028W        W41882  14.061   0.133   3.000 -0.1125 -0.2100 -0.0528
23029W        W41883  15.448   0.020  10.170  0.0543 -0.0276 -0.0205
23030W        W41884   4.730   6.030  12.125 -0.0382 -0.1721 -0.1561
23031W        W41885   3.600  12.232  14.005  0.1306 -0.5009 -0.1748
23032W        W41886  14.303  17.421  12.825 -0.1528 -0.1412 -0.0276
23033W        W41887   7.083  12.629   3.363 -0.0157  0.1527  0.0182
23034W        W41888   2.067  15.449   2.863 -0.2330 -0.0079  0.4532
23035W        W41889   6.727   1.754   0.944 -0.1506  0.1154 -0.2982
23036W        W41890  18.180  18.155   3.341 -0.0196 -0.2809  0.5073
23037W        W41891  15.462  15.047   3.258  0.3175  0.2692  0.0523
23038W        W41892   9.970  12.503   1.579  0.3791  0.2408  0.3143
23039W        W41893  13.638  12.957  11.849  0.2314 -0.0680  0.1845
23040W        W41894   1.610  14.526   2.991  0.0697 -0.1575  0.1935
23041W        W41895   2.646  12.107   2.783 -0.0820 -0.0032 -0.0244
23042W        W41896   6.664   8.363  14.527  0.2197 -0.1119  0.0336
23043W        W41897   5.320  16.318  14.388 -0.0453  0.1646  0.1251
23044W        W41898  12.665  16.037   3.892  0.0614  0.1977  0.2409
23045W        W41899   7.396   0.363   4.352  0.1753  0.0170 -0.0006
23046W        W41900   4.899  14.951   3.426  0.2796 -0.0525  0.2171
23047W        W41901   4.493  14.718   3.241  0.2492  0.3161  0.0826
23048W        W41902  13.016  13.134   4.058 -0.2298  0.0890  0.0641
23049W        W41903  12.484   9.209   3.030  0.0595  0.4290  0.1358
23050W        W41904   4.001   2.547   0.632  0.3027 -0.1077 -0.0512
23051W        W41905  15.813   7.436   3.464 -0.2475  0.0603 -0.0889
23052W        W41906  17.824   3.757   1.891  0.1645  0.0468  0.0957
23053W        W41907   9.788   5.629  14.406  0.0137  0.0139 -0.0323
23054W        W41908   1.193  17.515  12.626 -0.2680  0.0397 -0.4476
23055W        W41909   3.514   0.968   9.336  0.0668 -0.2272  0.0999
23056W        W41910  15.158   4.305  11.361 -0.0133  0.2436 -0.2010
23057W        W41911  14.992   2.724  13.681 -0.1996 -0.0393  0.1664
23058W        W41912   8.184   1.741   0.891  0.2298 -0.0864 -0.3090
23059W        W41913   1.618   3.539   1.078 -0.0025  0.2503  0.1264
23060W        W41914  13.449   0.702  14.627 -0.0510  0.1476  0.1067
23061W        W41915  13.310  16.085  13.858  0.3803  0.1964 -0.2898
23062W        W41916   1.818   6.573  11.188 -0.1046  0.4723 -0.1428
23063W        W41917  10.983  18.173   2.648 -0.1226 -0.0302 -0.0399
23064W        W41918   0.268   8.166   1.899 -0.2437 -0.4279  0.0065
23065W        W41919  10.993  15.590  13.698  0.1048  0.0665 -0.1839
23066W        W41920   3.511  18.147   3.215 -0.2522 -0.0738 -0.1709
23067W        W41921  18.299   3.444   1.830  0.1203  0.0297 -0.0923
23068W        W41922  12.977  16.838  12.973  0.1803 -0.1914  0.0418
23069W        W41923   2.189  11.557   0.373  0.0969 -0.2766 -0.0774
23070W        W41924   6.194   2.361   1.912 -0.2965 -0.1908 -0.1802
23071W        W41925   3.538   5.890  14.275  0.0619 -0.2854  0.1768
23072W        W41926   4.807  16.301  14.539 -0.0299  0.0225  0.1170
23073W        W41927   0.136   5.290  12.794  0.2415 -0.2803  0.0631
23074W        W41928  16.943   3.634   0.591  0.0323  0.0152 -0.1857
23075W        W41929  18.794   1.185  11.279  0.1241 -0.2714  0.2966
23076W        W41930   8.912  12.165  14.384  0.1198 -0.0738 -0.1087
23077W        W41931  15.940   5.599  11.077 -0.4000 -0.3592 -0.0786
23078W        W41932   6.322  12.451   3.237 -0.1284 -0.1296  0.4511
23079W        W41933  15.697   1.624   3.180 -0.3088  0.0390 -0.2075
23080W        W41934   4.283  11.271   0.783  0.0662 -0.0973 -0.2335
23081W        W41935  14.068   0.672  11.494  0.3292 -0.0136 -0.0555
23082W        W41936  14.149   0.744  13.863  0.1064  0.0023 -0.2345
23083W        W41937   8.062   8.485  14.418 -0.0232 -0.1328 -0.1674
23084W        W41938  18.844  11.156  11.772 -0.3221  0.4481 -0.0098
23085W        W41939  14.364   7.059   1.881 -0.3779  0.0416 -0.0678
23086W        W41940  16.565  12.485  14.423 -0.1779 -0.1384  0.0024
23087W        W41941  10.840   9.310   1.334  0.0528  0.1951 -0.2912
23088W        W41942  18.815  12.290   2.631 -0.4645 -0.0333  0.2014
23089W        W41943   7.358   8.028  12.879  0.3282 -0.0441  0.2553
23090W        W41944   6.929   0.968   2.123  0.1959  0.1690 -0.2041
23091W        W41945   5.420   7.171  11.934 -0.2441 -0.1347  0.0196
23092W        W41946  14.219  10.681  13.940 -0.2519  0.0167 -0.0091
23093W        W41947   4.822   1.966   0.612 -0.3689  0.0017 -0.3029
23094W        W41948  15.213  18.431  12.549 -0.0865 -0.3227 -0.4638
23095W        W41949   6.647  18.476   1.998  0.0511 -0.2023 -0.1208
23096W        W41950   8.207   4.365  13.927 -0.2371 -0.4121  0.1260
23097W        W41951   6.840  17.119  11.878  0.2765  0.0153 -0.1411
23098W        W41952  17.484  14.356   4.033  0.1886 -0.0372  0.0088
23099W        W41953   3.608  10.765   3.614  0.2325  0.1417 -0.3800
23100W        W41954   3.884  17.789   1.460  0.0271 -0.2327  0.0438
23101W        W41955   7.005   5.308   2.984  0.1686 -0.1651 -0.0798
23102W        W41956   3.974   6.682  13.828  0.0120  0.1002 -0.1838
23103W        W41957   7.885   2.790   4.368  0.1346  0.0359 -0.3100
23104W        W41958   5.542  13.259  14.154 -0.1824  0.1424 -0.1103
23105W        W41959  15.041  15.644  12.591  0.1557 -0.4800 -0.2849
23106W        W41960   8.468   1.745   9.670 -0.1916 -0.0544  0.1914
23107W        W41961   0.637  12.535  13.173  0.1158 -0.1282  0.0977
23108W        W41962   4.175   0.460  13.126  0.1383 -0.0930 -0.0212
23109W        W41963  10.302  18.297   3.334 -0.1086 -0.2364 -0.0072
23110W        W41964  15.413   0.077  13.133  0.0934 -0.2082  0.1403
23111W        W41965   7.050   8.011   9.484  0.2286  0.0977 -0.4940
23112W        W41966  15.895   5.081  11.076  0.2875 -0.1134 -0.3271
23113W        W41967  13.738   0.449   0.359  0.1095  0.0859  0.2167
23114W        W41968  14.389  13.099  13.949  0.0534  0.2375 -0.2150
23115W        W41969   0.057   0.281  12.321 -0.3560  0.2390  0.4524
23116W        W41970  12.079   4.097  11.141  0.0255  0.0756  0.1795
23117W        W41971  10.154   2.982  13.055 -0.0161  0.0526  0.0163
23118W        W41972  17.250  17.980   3.333 -0.1766  0.0225  0.4036
23119W        W41973   7.445   7.629   1.767 -0.2339  0.2028  0.0169
23120W        W41974  15.841   6.428   2.566 -0.0471  0.2251  0.0365
23121W        W41975  10.933  11.608  11.538  0.0638 -0.2187 -0.2097
23122W        W41976   4.514  17.869  11.440  0.0381 -0.0441 -0.2031
23123W        W41977   2.195   2.269  11.618  0.0278 -0.2993  0.1688
23124W        W41978   4.135   5.617  10.659 -0.2505  0.2269 -0.1066
23125W        W41979  12.515  13.938   1.559  0.2243  0.1149  0.0635
23126W        W41980   9.024   3.324  12.066 -0.0653 -0.1116 -0.1295
23127W        W41981   8.166  18.921   0.930 -0.3139  0.3289  0.0221
23128W        W41982  15.215   5.518  13.223 -0.0531 -0.1995 -0.1722
23129W        W41983   8.946   3.482  11.099  0.1126 -0.2479  0.2300
23130W        W41984  13.485   4.313  10.512  0.1337 -0.1041  0.0331
23131W        W41985  11.433  15.008  14.237  0.1979 -0.1479  0.2042
23132W        W41986  19.130   8.726   3.150 -0.0184 -0.0146 -0.1298
23133W        W41987   1.261   3.933   3.427 -0.2018 -0.3474  0.4264
23134W        W41988   3.887  18.913   4.452  0.1232  0.1154 -0.1046
23135W        W41989  15.352  18.317  10.406  0.2714  0.2712  0.1848
23136W        W41990  12.930  15.197   2.836 -0.1000  0.1791  0.0215
23137W        W41991   0.204   9.557   9.946  0.2032 -0.1673 -0.0180
23138W        W41992   1.169   9.602  13.835  0.3050 -0.2454 -0.2608
23139W        W41993   8.218   0.547   3.426 -0.0642  0.2764  0.3789
23140W        W41994  12.612   0.291  11.798 -0.0569  0.0927 -0.3228
23141W        W41995  11.313   2.966  14.241  0.2441  0.3101 -0.1932
23142W        W41996   3.561  13.221  10.798  0.1465 -0.0898 -0.1516
23143W        W41997   0.372  16.616  11.194  0.1736 -0.3464  0.0200
23144W        W41998   0.597   0.065  14.606  0.1619 -0.0951  0.1039
23145W        W41999  14.728  11.925  13.590 -0.0080  0.3241  0.0105
23146W        W42000   8.925  17.433  13.327 -0.0443  0.0222  0.1698
23147W        W42001   7.957  12.244  11.680  0.3615  0.1275  0.1993
23148W        W42002  17.779  12.147  12.502  0.2639  0.3272  0.3010
23149W        W42003   8.525   1.763  11.240 -0.1641  0.1810  0.2266
23150W        W42004   5.308   8.090   1.671 -0.1058  0.1601 -0.4406
23151W        W42005   0.465  14.686   3.658 -0.0348  0.3509 -0.0029
23152W        W42006  11.590   7.158   4.757 -0.1963  0.0785  0.1070
23153W        W42007   1.192   3.403   0.886 -0.3545 -0.3323  0.0185
23154W        W42008   9.331   5.199  14.509 -0.1502 -0.0569 -0.0129
23155W        W42009   0.111   5.333   3.012 -0.1129  0.3676 -0.2907
23156W        W42010   6.054   3.964  13.598 -0.1647 -0.1477  0.4025
23157W        W42011   0.109   8.942  12.662 -0.2132 -0.3317 -0.0131
23158W        W42012   1.341  14.884  13.777 -0.1154 -0.2685  0.0893
23159W        W42013  10.564   7.700   9.775 -0.0290  0.0683 -0.0846
23160W        W42014   1.275   2.366  14.109  0.1917 -0.0834 -0.2307
23161W        W42015  16.644  16.598   5.092 -0.0577 -0.0062 -0.2521
23162W        W42016  14.198   9.282   3.951 -0.0228 -0.0379  0.0004
23163W        W42017   1.253  10.596   4.144 -0.0731 -0.1604  0.1306
23164W        W42018   9.105   4.913   1.519  0.1444 -0.1174  0.0373
23165W        W42019   9.397  15.803   3.603 -0.3512 -0.1629  0.1452
23166W        W42020   6.588  11.307  14.692 -0.4053  0.0582 -0.0600
23167W        W42021   3.536   1.338   3.269  0.2891 -0.1054  0.1561
23168W        W42022  14.408  15.946  12.053  0.3307 -0.2200 -0.4349
23169W        W42023  19.007  14.168   0.073 -0.2020  0.2086 -0.1367
23170W        W42024   3.187   3.462  11.181  0.2093 -0.3022  0.0993
23171W        W42025  12.004   9.301  11.426 -0.0431  0.1721 -0.4685
23172W        W42026   2.671  10.638   9.832 -0.4363  0.0240 -0.1379
23173W        W42027  13.691  16.642  12.083 -0.1811  0.0032  0.2522
23174W        W42028  11.905  18.064   1.313 -0.2495  0.2437  0.0464
23175W        W42029  16.409  17.192   1.450 -0.0282  0.1390 -0.1711
23176W        W42030   5.958  16.342  10.693 -0.0552 -0.1062  0.0231
23177W        W42031  18.013  14.359   3.924 -0.0764  0.1147 -0.1446
23178W        W42032   7.754   1.328  11.099 -0.2944 -0.3498  0.0213
23179W        W42033   8.790   3.315  11.610 -0.1159 -0.0846 -0.2391
23180W        W42034   9.813   1.964   3.467  0.2188 -0.1849 -0.0281
23181W        W42035   1.308  18.630   3.347  0.3710 -0.3097 -0.1430
23182W        W42036   2.933  13.080  11.919  0.1846 -0.2035 -0.0094
23183W        W42037   7.548  17.028   5.406  0.0982 -0.2367  0.0244
23184W        W42038  13.392  14.928   4.595  0.1150  0.1941 -0.1495
23185W        W42039   6.610  15.348  13.051  0.0117  0.1975 -0.0389
23186W        W42040  10.965   3.028  12.884 -0.1369  0.0359  0.2654
23187W        W42041   1.235  18.223  12.157  0.0889  0.0701  0.1989
23188W        W42042   9.131   8.142   3.612  0.3849  0.3526  0.1074
23189W        W42043   6.190  18.955   3.079  0.0887 -0.0244 -0.2066
23190W        W42044  15.652   2.672  14.193  0.1091  0.1537  0.1570
23191W        W42045  17.775  12.440   0.239  0.0784  0.1843 -0.0288
23192W        W42046   5.479   7.869  12.516  0.0063  0.1678 -0.2172
23193W        W42047   7.425  17.077  11.004  0.1018  0.1010 -0.1699
23194W        W42048   9.912   4.926  11.494 -0.1050 -0.1018  0.0544
23195W        W42049   7.070  14.782   2.980  0.0757  0.2969  0.1954
23196W        W42050  18.619   4.684  11.707 -0.1012 -0.0285  0.0930
23197W        W42051  11.352  10.567   3.106  0.1058 -0.0734  0.0918
23198W        W42052   6.001   2.707   3.410  0.0595 -0.0547  0.3831
23199W        W42053   6.677  14.371   0.431 -0.1334 -0.0844 -0.0341
23200W        W42054   9.848   3.546   3.131  0.1557 -0.0256 -0.0059
23201W        W42055   6.359   7.554  12.997  0.0883  0.3279  0.0401
23202W        W42056   0.021   4.829  11.379 -0.0386  0.0726  0.1738
23203W        W42057  10.790   2.145   4.169 -0.2707  0.0221 -0.1146
23204W        W42058  17.733  16.021   1.523 -0.1510  0.0027 -0.1718
23205W        W42059   0.832  13.985  14.084 -0.3022 -0.0347  0.2498
23206W        W42060   5.340   8.545   2.791  0.0722 -0.0085 -0.0280
23207W        W42061  12.949  14.691  12.985 -0.3389  0.1262 -0.1244
23208W        W42062   2.031   4.953   3.615 -0.2237  0.1726 -0.2370
23209W        W42063   1.313   0.441   4.472  0.0989  0.1551 -0.2168
23210W        W42064  14.966   7.150   0.491 -0.0299  0.3035  0.2381
23211W        W42065   4.078  11.624   3.126  0.2978  0.0514  0.1663
23212W        W42066   2.368  10.869   4.295 -0.1192  0.2402 -0.4166
23213W        W42067  17.727   9.969   0.047 -0.1182 -0.1396  0.2976
23214W        W42068  11.190  15.111  13.785 -0.0153  0.2447  0.0216
23215W        W42069   9.551   1.265   3.928  0.1319  0.0378  0.1832
23216W        W42070  19.044   5.969  14.559 -0.2540 -0.3498 -0.0909
23217W        W42071   2.949   4.922   2.054 -0.0421 -0.1641 -0.0171
23218W        W42072   8.640   6.570  12.430  0.1510  0.1503  0.2522
23219W        W42073  16.456  11.349  13.420 -0.1820 -0.1289  0.0165
23220W        W42074  15.358  15.720  10.634 -0.5024  0.2037  0.1825
23221W        W42075  11.685   3.152  12.139  0.1622 -0.1279 -0.1638
23222W        W42076  14.453   9.171   3.287 -0.3421  0.1180 -0.2166
23223W        W42077   7.346  15.292  10.792 -0.0416 -0.0919 -0.0790
23224W        W42078   5.849   1.955   0.854  0.2470  0.3177  0.1396
23225W        W42079   4.262  18.765  13.063  0.0780  0.0059  0.2969
23226W        W42080   0.410   4.969   4.201 -0.1692  0.3797  0.0631
23227W        W42081  14.618   5.850  11.027 -0.0871 -0.0990 -0.2048
23228W        W42082   6.267   5.464   4.124 -0.0230 -0.1894  0.2454
23229W        W42083   7.637  12.308  12.417  0.0272  0.1227  0.0943
23230W        W42084   4.112   4.433   4.231 -0.0638  0.2141 -0.0271
23231W        W42085  14.260  18.652  14.423  0.1028  0.0420  0.2933
23232W        W42086  18.742   8.893   0.075  0.0484  0.2884 -0.2695
23233W        W42087   5.473  17.267   3.955 -0.0380  0.2767 -0.0385
23234W        W42088   0.226   6.388  13.790 -0.1236  0.1748  0.0063
23235W        W42089  10.225  15.366  13.972 -0.1075 -0.0488 -0.2073
23236W        W42090   0.384   8.811  11.790 -0.2075 -0.0848 -0.3269
23237W        W42091   7.937  17.666   4.305 -0.1062 -0.2036 -0.1107
23238W        W42092  10.190   1.255   1.738  0.1377 -0.0553  0.4014
23239W        W42093  10.146   7.114   4.290 -0.1858  0.0241 -0.0644
23240W        W42094  16.504  17.587  14.119  0.0681  0.1745  0.0044
23241W        W42095   9.561   5.944   3.301 -0.1752  0.0603  0.1496
23242W        W42096  16.496   2.863  13.514  0.0279  0.1547 -0.0529
23243W        W42097   9.182  18.577  13.999  0.0492  0.1750 -0.1444
23244W        W42098   4.202  14.373   3.640  0.1372  0.1200 -0.3138
23245W        W42099  19.185  10.386  10.430 -0.1163 -0.0225 -0.0156
23246W        W42100  15.883  10.350   4.789 -0.1454  0.2336 -0.0517
23247W        W42101  14.718   6.623  13.947 -0.0191  0.0559 -0.0893
23248W        W42102   9.032   9.219   3.144 -0.0670 -0.0557 -0.1240
23249W        W42103  13.210  10.247  10.464 -0.0484 -0.1254 -0.0240
23250W        W42104   8.455  14.755  14.210  0.2707  0.2057  0.3181
23251W        W42105   0.593   2.636  12.083  0.0589  0.1694  0.1093
23252W        W42106   7.843   5.968   4.679 -0.1330  0.3671 -0.5136
23253W        W42107   4.215   3.096   1.938  0.0522 -0.2275  0.2408
23254W        W42108   9.991   4.605  10.520  0.0697 -0.1487 -0.1544
23255W        W42109  11.960   4.852   1.478 -0.1149  0.3402  0.1830
23256W        W42110   9.346  12.157  14.095  0.0266 -0.1627 -0.0729
23257W        W42111   7.654   7.268   4.075 -0.1050  0.2430  0.1632
23258W        W42112   2.657   6.396   5.089 -0.1096 -0.1797 -0.2594
23259W        W42113  11.532   5.603   1.476 -0.3206  0.3630  0.3366
23260W        W42114   3.168   6.490  13.995  0.1282 -0.4627  0.0903
23261W        W42115  12.210   3.106  12.250  0.0683  0.0239 -0.0365
23262W        W42116  18.402  15.376  14.369 -0.2335  0.0303  0.1799
23263W        W42117  10.361   4.291   9.755  0.1525  0.2358  0.2161
23264W        W42118  12.819  16.029   1.781 -0.0193  0.4342 -0.0322
23265W        W42119   8.802  18.695   3.808 -0.1916  0.2109 -0.1121
23266W        W42120  12.519  15.112   0.935 -0.0828 -0.2609 -0.1275
23267W        W42121  17.255  13.987  13.490  0.0303 -0.4592 -0.1798
23268W        W42122   7.235  10.757   1.414 -0.4539 -0.1264 -0.1308
23269W        W42123   8.905   9.822   1.128 -0.1723  0.1977 -0.0719
23270W        W42124   2.709  15.293   2.390  0.2237 -0.2052  0.0107
23271W        W42125   7.143  13.063  12.548 -0.0629 -0.1399 -0.0139
23272W        W42126   3.774   6.071  12.345  0.1180  0.1648  0.2053
23273W        W42127  17.681   7.327  14.204  0.1704 -0.0812 -0.2465
23274W        W42128   7.143   9.105  12.480  0.0517  0.1840  0.0395
23275W        W42129  10.682  18.799  12.204 -0.1999  0.1871 -0.0346
23276W        W42130   4.376   8.110   1.451  0.1297 -0.1824 -0.1081
23277W        W42131  15.725  18.348  13.259 -0.1120  0.1101 -0.0839
23278W        W42132   4.821   1.491   0.118 -0.1132  0.0957  0.1089
23279W        W42133  13.106  15.619  14.651 -0.0210  0.1363 -0.1111
23280W        W42134  18.613   4.053   0.830  0.0881 -0.1041 -0.0006
23281W        W42135   3.474  16.615   2.253 -0.0040 -0.1027 -0.0748
23282W        W42136   7.424  12.792  12.235  0.1570 -0.0212 -0.2333
23283W        W42137   3.724  12.058   3.239  0.0927  0.4007 -0.2162
23284W        W42138  12.193   6.555  14.254  0.2102  0.1484  0.0462
23285W        W42139  15.890  12.569  12.090 -0.2670 -0.1765  0.0959
23286W        W42140   1.022   2.384  12.200 -0.1524  0.1666 -0.2257
23287W        W42141  14.941   5.808  10.656 -0.1804 -0.1337  0.0395
23288W        W42142  15.579   7.182   1.645  0.0897 -0.2568  0.0068
23289W        W42143  13.016  18.928   4.898  0.0195  0.1048 -0.1717
23290W        W42144  18.376   7.944  13.339 -0.2669 -0.1275  0.0829
23291W        W42145   3.238   8.526   0.514  0.2822 -0.0460  0.4129
23292W        W42146  19.000   0.525   5.260  0.1131  0.3098  0.1122
23293W        W42147  18.186   7.302  13.787  0.1563 -0.0630 -0.0126
23294W        W42148  14.827   6.362   3.947  0.0653  0.0412  0.0239
23295W        W42149   7.159   0.990  11.517 -0.0615 -0.4895  0.0032
23296W        W42150   8.213   6.919   3.256 -0.0036  0.0904  0.0559
23297W        W42151   2.804   7.436  14.090 -0.0253 -0.1557 -0.1611
23298W        W42152   3.560  18.278  13.876 -0.0406 -0.0380 -0.0555
23299W        W42153  11.797  13.451   2.734 -0.4123  0.0576 -0.4530
23300W        W42154  14.560   5.239   9.276  0.0708  0.1392 -0.2326
23301W        W42155   3.142  10.061  14.378 -0.1822 -0.2778 -0.0048
23302W        W42156   3.825   0.216   1.508  0.0580 -0.1325 -0.3033
23303W        W42157  10.550   7.965   1.567  0.2983  0.4180  0.2665
23304W        W42158   3.396   8.010  13.752  0.0702 -0.0043  0.0062
23305W        W42159   3.875   0.586   4.438 -0.0930  0.1947 -0.2650
23306W        W42160   3.291  19.141   3.838  0.0232  0.2129  0.1282
23307W        W42161  18.141   2.430   2.070  0.0369 -0.1266  0.2775
23308W        W42162  13.910  18.151  10.614 -0.0584  0.2637  0.0517
23309W        W42163   9.439   6.486  11.563 -0.3106  0.2195  0.2064
23310W        W42164   7.882   4.601  13.464  0.0211 -0.0680  0.1670
23311W        W42165   5.829  15.180   1.572  0.0342 -0.3043  0.1331
23312W        W42166   8.807   1.122   1.159  0.2182 -0.1523 -0.0590
23313W        W42167  18.483  11.861  14.496  0.1510 -0.0050  0.8120
23314W        W42168   7.181   7.491   0.339 -0.2493 -0.2985  0.2507
23315W        W42169  19.085  11.533  12.705 -0.0475  0.2336  0.1788
23316W        W42170  17.327   0.729   1.835 -0.1697 -0.2177 -0.1209
23317W        W42171   5.444  18.761   0.988  0.0118 -0.1809  0.2170
23318W        W42172  17.620   7.294   2.090 -0.0672  0.0160  0.1176
23319W        W42173  12.909  14.743  11.478  0.3630 -0.0832  0.0593
23320W        W42174   8.640   0.142  12.584  0.0884  0.3183 -0.2187
23321W        W42175   8.915   4.383  10.506 -0.1168  0.0678 -0.0592
23322W        W42176  15.564   6.832   3.907  0.0642  0.0651  0.0693
23323W        W42177  10.014   7.863   1.615 -0.0739  0.3080  0.0980
23324W        W42178   0.264  17.740   0.618 -0.0668  0.1622  0.0270
23325W        W42179   7.496  10.482  13.714  0.2331 -0.1121 -0.2214
23326W        W42180  10.449   2.377   2.529  0.3684  0.0259  0.1603
23327W        W42181   3.079   7.309  14.545  0.2246 -0.0429  0.1126
23328W        W42182   7.644   8.938   2.486 -0.2429 -0.2280 -0.6198
23329W        W42183  13.239  17.728   4.615  0.1998  0.1738 -0.0785
23330W        W42184  17.602  13.280  11.691  0.0137  0.0205 -0.2954
23331W        W42185   6.456   7.447  12.163 -0.3630  0.0013 -0.1401
23332W        W42186  16.522  18.892   2.204 -0.1019  0.1081 -0.2096
23333W        W42187   1.951   9.379   4.125 -0.1353 -0.1044 -0.0762
23334W        W42188   1.993  14.756  11.744 -0.0467 -0.1377 -0.1968
23335W        W42189  12.075   1.008   3.871  0.0314 -0.1180  0.3059
23336W        W42190  12.129  14.777   4.077 -0.1762 -0.0839  0.1175
23337W        W42191   4.208   2.330   4.399 -0.2690 -0.0235 -0.1391
23338W        W42192   2.981   5.727  11.137 -0.2609  0.0280  0.2546
23339W        W42193  19.041   1.835   1.050 -0.2404  0.0069  0.0587
23340W        W42194   4.510  14.115   0.368  0.0756  0.1007 -0.0138
23341W        W42195   0.849  12.161   3.850  0.2427  0.1322  0.0911
23342W        W42196  17.334  17.945  11.433  0.0158  0.0417 -0.1562
23343W        W42197  11.861  18.520  14.723  0.1881 -0.1157  0.3990
23344W        W42198  12.002   8.180   2.315 -0.0871 -0.2751 -0.2720
23345W        W42199  14.418   7.739  12.465 -0.2224 -0.2010 -0.1657
23346W        W42200   4.282   3.473  13.275  0.4240 -0.0535 -0.2576
23347W        W42201  10.860   2.196   2.902  0.1640  0.3118 -0.0880
23348W        W42202   9.894   4.337  14.109  0.5273  0.0917  0.0821
23349W        W42203   9.105  12.727  13.420 -0.1574 -0.0923  0.1174
23350W        W42204  17.664  12.678  12.569 -0.1219  0.1416  0.0417
23351W        W42205   6.532  11.571  13.094 -0.1099 -0.1514  0.0715
23352W        W42206   9.493  12.752   2.207 -0.1893  0.2517 -0.0525
23353W        W42207   7.819  18.810  14.319  0.1747  0.1640  0.2247
23354W        W42208   8.462   8.804   1.976  0.2891 -0.0174  0.0673
23355W        W42209  13.068  18.340  10.901 -0.1098 -0.5383  0.0478
23356W        W42210  18.843   4.562   0.879  0.1271 -0.1722 -0.0560
23357W        W42211  12.021   9.777  12.600  0.2110 -0.0355  0.0843
23358W        W42212   4.826  10.077  12.526  0.1199 -0.0410  0.0276
23359W        W42213  17.086   8.677   2.092 -0.2582  0.1304 -0.3534
23360W        W42214   0.644   7.760  14.269 -0.1965 -0.1119 -0.0645
23361W        W42215   3.071  12.529   2.950 -0.1021  0.3526  0.0361
23362W        W42216  10.847   9.822  10.402  0.1020  0.2715  0.2446
23363W        W42217   2.233   6.037  12.668  0.1538 -0.2064  0.4490
23364W        W42218   3.727   6.716  11.264  0.1852  0.0222  0.1535
23365W        W42219  10.802  16.207   1.020 -0.1385 -0.3188 -0.0877
23366W        W42220   1.749  17.610  13.356  0.0349  0.1056  0.1981
23367W        W42221  11.465   7.934   0.489 -0.0941  0.0183 -0.1954
23368W        W42222   1.849   2.771   3.275 -0.0085 -0.3130 -0.3351
23369W        W42223   6.575   0.191   2.986  0.2499 -0.1600  0.1914
23370W        W42224  16.319   1.265  14.552  0.3489  0.0598  0.0898
23371W        W42225   9.220   7.416   0.413  0.0005  0.3038  0.1979
23372W        W42226  16.920  17.451  14.459  0.2464 -0.0998  0.0667
23373W        W42227   3.485  14.659   3.677  0.0481  0.0121  0.3307
23374W        W42228   4.868  18.462  13.517 -0.0678 -0.0460  0.0533
23375W        W42229   3.510  10.908   1.647 -0.1826  0.0921 -0.2778
23376W        W42230   5.695   3.161   1.845 -0.0805 -0.1106  0.1376
23377W        W42231  15.591   1.711  12.844  0.1793 -0.1822 -0.0408
23378W        W42232  12.259   9.550   1.061  0.1396  0.4813 -0.1090
23379W        W42233   2.924   9.672   4.577 -0.0976  0.1303 -0.0710
23380W        W42234  14.457   3.754   0.178  0.0555  0.0257  0.1369
23381W        W42235   5.586   1.366  13.053 -0.1298 -0.2543  0.1469
23382W        W42236  10.851  18.360  14.216 -0.2780  0.1820  0.3655
23383W        W42237   5.143   1.301   4.074 -0.0361 -0.2323 -0.0999
23384W        W42238   9.214   0.313  11.684 -0.0444  0.2458  0.4373
23385W        W42239  10.087   4.236  11.041  0.0093  0.0306 -0.2697
23386W        W42240   3.029   9.943  12.550 -0.0257  0.2830 -0.0205
23387W        W42241  14.362  16.055   1.940  0.4003 -0.0677  0.1583
23388W        W42242   0.183   7.295  13.418 -0.0243  0.0630 -0.0303
23389W        W42243   3.216   4.926  12.570  0.0728 -0.0973  0.3239
23390W        W42244  13.158  19.141   0.370  0.2446 -0.0842  0.1442
23391W        W42245  10.624   2.392  13.554 -0.2167 -0.0950  0.1436
23392W        W42246  14.252  18.318   1.812 -0.0692 -0.1187 -0.3042
23393W        W42247   3.562   1.542  10.511 -0.1505 -0.0938 -0.2733
23394W        W42248   1.911  10.974  13.868  0.2020  0.3075  0.0161
23395W        W42249  16.611  15.364   3.184  0.0704  0.1093 -0.0405
23396W        W42250  13.632   1.199  12.571  0.0622 -0.0222 -0.1457
23397W        W42251   5.804   3.896  11.592  0.0984 -0.0687  0.0582
23398W        W42252   8.433  15.949  14.401 -0.4172  0.1040  0.2053
23399W        W42253  14.886   5.183   1.887 -0.0970 -0.2660  0.2225
23400W        W42254  17.357  16.388  10.926  0.1809 -0.0694 -0.1785
23401W        W42255  12.093  18.214  10.765 -0.2239 -0.0101  0.0834
23402W        W42256   5.987   6.045   9.466  0.1186 -0.1689  0.2688
23403W        W42257  11.100   3.169  13.392 -0.0965 -0.1701 -0.2751
23404W        W42258   3.059   4.266  11.426  0.1665 -0.0752  0.0399
23405W        W42259  15.129   2.646  11.490 -0.0142  0.0766 -0.2149
23406W        W42260   5.441  16.243   0.479 -0.1082 -0.0729 -0.1332
23407W        W42261   2.473   2.873  14.036  0.0535  0.0741  0.0106
23408W        W42262  12.217  16.165  12.361  0.0091 -0.0138  0.0821
23409W        W42263  12.213   7.530   3.192 -0.0821  0.0772  0.0468
23410W        W42264  13.939   6.304   1.463 -0.2831  0.2621  0.0769
23411W        W42265   0.171  10.800  13.363  0.0393  0.1273 -0.4145
23412W        W42266   9.696   2.846  10.838 -0.2988  0.0527 -0.0753
23413W        W42267  17.215   3.370  11.025 -0.1611  0.1430  0.1548
23414W        W42268   1.489  16.445  13.833 -0.0393 -0.2137  0.0057
23415W        W42269  11.622  14.385   4.645 -0.2164 -0.3049  0.2863
23416W        W42270  14.708   5.573   2.598 -0.0176  0.1975  0.1154
23417W        W42271   8.640   2.819   2.400 -0.0541 -0.3419  0.0906
23418W        W42272   0.542  11.521   3.133  0.0515  0.1171 -0.2342
23419W        W42273  13.486  17.222   2.187 -0.2244  0.1380  0.1828
23420W        W42274  12.690   8.149  13.392 -0.2026 -0.2303  0.0918
23421W        W42275  10.071  15.935   2.237  0.0076  0.1003 -0.1342
23422W        W42276   3.005  12.320   2.398 -0.2519 -0.0751  0.1683
23423W        W42277  19.075   2.469   1.744 -0.1903  0.0948  0.4079
23424W        W42278  10.512  15.838   3.090 -0.2202  0.1842  0.0957
23425W        W42279  13.217  19.157   0.892 -0.2556  0.0502  0.0454
23426W        W42280   5.057  13.903   1.882  0.1514  0.1403 -0.1666
23427W        W42281   0.391  16.577  12.187  0.2143 -0.1457  0.0603
23428W        W42282  12.771   7.779   3.425 -0.2774  0.1690 -0.0462
23429W        W42283  10.614  18.816   1.162  0.1671 -0.4929 -0.2010
23430W        W42284   3.531  11.556  11.322  0.1036 -0.2291 -0.0166
23431W        W42285   1.440  16.386  12.020  0.3575  0.1123  0.0145
23432W        W42286  10.342  17.684   1.737 -0.1100  0.1998 -0.3234
23433W        W42287   5.482   1.655  10.562  0.1259  0.0621 -0.0939
23434W        W42288   0.479   8.616  11.041  0.0721 -0.1564 -0.0095
23435W        W42289   5.411   7.779   3.772  0.3819  0.1748 -0.1127
23436W        W42290  13.773   1.449  11.936 -0.1416  0.0280  0.1516
23437W        W42291  10.704   2.670   2.852  0.1779  0.0479  0.0090
23438W        W42292   1.624   0.692   2.641  0.0593 -0.0685 -0.0989
23439W        W42293   0.877  12.971   3.401 -0.0074  0.2779 -0.1321
23440W        W42294   8.041   3.724  13.258  0.0402  0.0961 -0.1531
23441W        W42295   0.077   1.425   1.011 -0.1660  0.0287  0.1237
23442W        W42296   8.611  18.167  11.376 -0.0324  0.1466 -0.1232
23443W        W42297   5.530   3.803  12.062 -0.3108 -0.1782 -0.0631
23444W        W42298  17.919   8.391   3.829 -0.0116  0.1259  0.0038
23445W        W42299   2.956  19.169  14.444 -0.0882  0.1027 -0.2560
23446W        W42300  13.756   6.187   3.294  0.1787  0.2705 -0.1200
23447W        W42301   0.377  15.491   2.551  0.0044  0.2539 -0.1108
23448W        W42302  17.800   9.067  10.472  0.0273 -0.1716  0.1372
23449W        W42303   1.762  18.136  12.407 -0.2181  0.0163  0.1245
23450W        W42304   7.679  16.326   0.714 -0.1328 -0.1634  0.0294
23451W        W42305   4.990  11.074   1.138 -0.0994  0.0677 -0.1056
23452W        W42306  12.529   0.697   4.652 -0.1389 -0.0617  0.0858
23453W        W42307  12.718  11.220  10.613  0.1349 -0.3853  0.0404
23454W        W42308  11.259  18.353   3.850 -0.1536 -0.1798  0.4628
23455W        W42309  13.343  15.159   0.637 -0.0103  0.1559 -0.3012
23456W        W42310   1.076  10.611   0.299 -0.2273  0.0031  0.1423
23457W        W42311  14.293  17.664   1.176  0.1106 -0.4411 -0.1583
23458W        W42312   0.700  10.206   0.367 -0.1941 -0.2486  0.0669
23459W        W42313   7.929  14.078   3.021 -0.2103 -0.2704 -0.0529
23460W        W42314   9.437  10.027  12.439  0.0591 -0.0787  0.1096
23461W        W42315   3.476   5.778  11.133  0.1085  0.0944  0.0102
23462W        W42316   6.362   3.040  12.663 -0.1355  0.1482  0.2780
23463W        W42317   3.724   3.560  14.640 -0.1223 -0.0362 -0.0681
23464W        W42318  13.133   7.868   3.797  0.2195 -0.2097  0.1703
23465W        W42319   0.930   4.288   2.517 -0.1436  0.0480 -0.2605
23466W        W42320  14.890   2.633  10.963  0.0238  0.1361  0.0190
23467W        W42321  13.832  12.165   1.435  0.2852 -0.0642 -0.1380
23468W        W42322   9.753  14.242   1.178 -0.0139 -0.1576  0.2789
23469W        W42323   0.340  16.560   2.489  0.1871 -0.2391  0.1042
23470W        W42324   6.195  13.844   4.460  0.1988  0.1920 -0.2040
23471W        W42325  16.286   5.290  10.793  0.1900 -0.0699 -0.0443
23472W        W42326  14.460  10.948   1.645 -0.0170  0.0898  0.0174
23473W        W42327   5.596   1.842  13.105 -0.0543  0.0860 -0.1521
23474W        W42328  12.266   5.463   3.524 -0.0173  0.5073 -0.0889
23475W        W42329  16.448  18.053   2.658 -0.1811  0.2923  0.1004
23476W        W42330   1.314   9.207   2.190  0.0354  0.2775  0.2933
23477W        W42331  13.170  17.609  11.453  0.2592  0.0019 -0.3064
23478W        W42332  13.812   2.356  12.947  0.2333 -0.2489 -0.3270
23479W        W42333  12.794   6.312   1.781 -0.2886  0.1983  0.0305
23480W        W42334  18.823  10.515  12.677 -0.1809 -0.1103 -0.0853
23481W        W42335  17.374  16.237   1.832  0.0750  0.1059  0.2724
23482W        W42336  13.304  12.757   2.682  0.2158 -0.1454 -0.1736
23483W        W42337   9.022   1.376  12.175 -0.1910 -0.1041  0.0135
23484W        W42338   5.013   8.891  11.911  0.1068 -0.0353  0.2508
23485W        W42339   2.861   0.800  11.554 -0.0815 -0.1737  0.0952
23486W        W42340  11.403  18.762  14.432 -0.0506  0.0323  0.0169
23487W        W42341  17.093   9.343   1.479  0.0868  0.2193 -0.0187
23488W        W42342   1.191  14.595   0.931 -0.0150  0.1770 -0.2128
23489W        W42343   1.227  13.941   3.395 -0.2025  0.1357 -0.0791
23490W        W42344   5.291   1.166  10.636 -0.6105 -0.2156  0.0556
23491W        W42345   6.249   5.118   0.224 -0.0438 -0.4237 -0.0383
23492W        W42346   6.029  11.532   3.415 -0.0511 -0.2933 -0.2257
23493W        W42347  13.816  11.465  11.665 -0.1126  0.0269  0.0627
23494W        W42348  12.058  15.143  10.924  0.1657 -0.1371 -0.0614
23495W        W42349  11.697   7.761   0.913 -0.3727  0.2921  0.2142
23496W        W42350  11.287   5.304  14.037 -0.2875 -0.1503 -0.0515
23497W        W42351   6.720   0.967   1.249  0.1505  0.0591  0.5239
23498W        W42352   4.617   2.013   4.282  0.2617 -0.0978 -0.1563
23499W        W42353  19.064  12.873   1.605  0.0051  0.1451 -0.2037
23500W        W42354  11.012  17.979  13.835  0.1367 -0.0155  0.2299
23501W        W42355  13.719  13.070   2.756  0.0919  0.1647  0.3253
23502W        W42356   6.563  16.537   1.876 -0.1505 -0.1990  0.1659
23503W        W42357  13.888  17.312   1.265 -0.0159  0.0779 -0.2122
23504W        W42358  16.474   2.740  14.428 -0.2830  0.2275  0.0044
23505W        W42359   4.526   1.561   3.459 -0.1173 -0.0432 -0.2803
23506W        W42360  16.522  13.009  14.330  0.0019  0.0692  0.2868
23507W        W42361   8.615   0.215   2.318  0.0076 -0.0412  0.2487
23508W        W42362   1.202  16.675   2.179 -0.0918 -0.1197 -0.1080
23509W        W42363  19.002   2.165  13.239 -0.0442 -0.0670 -0.1981
23510W        W42364   6.672   2.825   0.131 -0.1974  0.2162 -0.5918
23511W        W42365   2.363   5.623   3.761 -0.1503 -0.2630 -0.0260
23512W        W42366   4.533   9.594   2.177  0.1832  0.3796  0.1341
23513W        W42367   1.798   4.403  14.117  0.0350  0.1966  0.0515
23514W        W42368  13.242  17.732   4.074  0.0330  0.3359 -0.4085
23515W        W42369   8.938   7.267  11.936 -0.1145  0.0611 -0.2069
23516W        W42370   9.612   5.923   0.971 -0.3192 -0.1787  0.1466
23517W        W42371   2.554  13.471  11.778 -0.0359 -0.0654 -0.4271
23518W        W42372   1.031   7.739  13.904  0.0791  0.0191  0.2369
23519W        W42373   8.270  10.919  12.355  0.2597  0.1274 -0.0448
23520W        W42374  12.092  12.929  10.433  0.0124 -0.1256  0.1042
23521W        W42375   1.835  17.909  11.405  0.3979 -0.0168 -0.0414
23522W        W42376  12.326   7.144   2.430  0.1699  0.2206 -0.1604
23523W        W42377  12.110   6.684  11.234 -0.0680 -0.1014 -0.0346
23524W        W42378   0.734   6.461  13.031  0.0794 -0.1369 -0.2796
23525W        W42379   0.716   5.000  10.732 -0.1475 -0.2777  0.0006
23526W        W42380  14.518   3.158   3.599 -0.2016  0.1989 -0.1128
23527W        W42381  14.315  15.971   0.829  0.0426  0.0425 -0.0349
23528W        W42382   1.073  11.141  14.108 -0.1717 -0.2620  0.4267
23529W        W42383  17.663   2.569   0.832 -0.2762  0.1336 -0.4117
23530W        W42384   1.093   5.273   0.104  0.1048  0.2970  0.0681
23531W        W42385   7.307  18.925  12.379 -0.0460 -0.2442 -0.0343
23532W        W42386  10.087   1.702   4.688  0.1046 -0.0444 -0.1604
23533W        W42387   4.111   4.420  13.104 -0.1200  0.1794 -0.1469
23534W        W42388  15.837  15.288   1.445 -0.0147  0.3710 -0.0235
23535W        W42389  12.582  10.599   3.263  0.0946  0.2986  0.1117
23536W        W42390  17.210   2.122   1.983 -0.0831 -0.1922 -0.1398
23537W        W42391  17.765   7.645  14.582 -0.3455 -0.1385  0.1899
23538W        W42392  15.367  12.866   0.406  0.1064 -0.6066  0.2438
23539W        W42393   3.978   5.090  12.734 -0.0046  0.0332 -0.0481
23540W        W42394   3.803  12.814   4.192 -0.1062 -0.1046 -0.2655
23541W        W42395  10.730   8.508  11.375  0.0611  0.0448 -0.1432
23542W        W42396   6.549  15.001   2.490  0.2606 -0.2109  0.2202
23543W        W42397  18.126   1.957  14.341 -0.2083 -0.0704  0.0203
23544W        W42398  10.698   6.357  12.321  0.0441 -0.0761  0.2806
23545W        W42399   1.892  10.566   5.283  0.2704 -0.0929  0.2160
23546W        W42400  11.661  16.073  13.147  0.1798 -0.0291 -0.3545
23547W        W42401  14.409   9.375   1.995 -0.1266  0.0192 -0.2809
23548W        W42402   7.094  16.985  13.585  0.1633  0.3450  0.1557
23549W        W42403  16.930  10.861   0.637  0.4999 -0.1322  0.1001
23550W        W42404  11.439  17.160  11.399 -0.5016  0.0526  0.1031
23551W        W42405  17.176   2.170  13.366 -0.1201  0.0426 -0.0170
23552W        W42406  14.746   5.978   4.268 -0.1091  0.2761 -0.2575
23553W        W42407   2.382  10.005  11.507 -0.0261  0.0879  0.0319
23554W        W42408   1.776  16.135   4.594  0.0322  0.0436  0.1945
23555W        W42409  10.310   3.793   0.306  0.0109  0.3186 -0.3180
23556W        W42410   5.354   0.613  12.115  0.0160 -0.0461 -0.1798
23557W        W42411   5.313  14.211   0.013 -0.0866  0.0648  0.0031
23558W        W42412   9.503   6.371  12.411  0.0736  0.2678 -0.2095
23559W        W42413   5.333  16.552   1.537  0.2487 -0.1287  0.0596
23560W        W42414   2.804  12.167  10.936 -0.0409 -0.1372  0.0716
23561W        W42415  11.925   7.641   3.652 -0.3635 -0.2792 -0.2941
23562W        W42416   5.061  13.157  13.995  0.0948 -0.1718  0.5121
23563W        W42417  19.174  16.741   4.445  0.0136 -0.2605 -0.1415
23564W        W42418   9.406  17.228   2.392  0.1311  0.0329 -0.0067
23565W        W42419  19.196  18.919  10.500 -0.0495  0.3703  0.0488
23566W        W42420   7.708  12.422   2.474 -0.2527  0.1087  0.0100
23567W        W42421   6.702  11.625  14.277 -0.4137  0.4414 -0.0899
23568W        W42422  18.690   8.896  13.331 -0.0448 -0.0483  0.0586
23569W        W42423   9.810   5.630  11.883 -0.1701 -0.0751 -0.0430
23570W        W42424   1.383   4.905   0.409 -0.2301  0.2281 -0.1693
23571W        W42425  12.017  17.548  12.313 -0.0525 -0.2743  0.1282
23572W        W42426   1.737  10.683  14.511 -0.0945  0.1385  0.1326
23573W        W42427   6.616   7.159  12.567  0.2994  0.1692 -0.2242
23574W        W42428  11.080  13.506   3.170 -0.1631 -0.0463  0.4428
23575W        W42429   9.036   7.196  13.915 -0.1126  0.2878 -0.1708
23576W        W42430   5.474   5.788  10.055 -0.1009 -0.2691  0.0866
23577W        W42431   2.063   1.299   3.946  0.2364  0.1128 -0.0656
23578W        W42432  19.108   2.114   3.278 -0.2810 -0.0285  0.0427
23579W        W42433   9.005   4.919  13.144  0.1410  0.2003 -0.4551
23580W        W42434  14.985   2.167   3.180  0.1875 -0.1296  0.0121
23581W        W42435   7.437   8.795  10.730 -0.0423 -0.5621 -0.2227
23582W        W42436  11.232  16.750  14.476  0.1383  0.0318  0.1007
23583W        W42437   6.540  14.161   1.870  0.0159 -0.1396 -0.0109
23584W        W42438  16.530  15.628   2.734  0.0942 -0.0126  0.3057
23585W        W42439  13.448  13.675  14.205  0.1282 -0.1220 -0.0377
23586W        W42440  13.730   7.410   3.534  0.1588 -0.1750  0.2369
23587W        W42441   2.201   5.837  10.730 -0.1867 -0.2956  0.0305
23588W        W42442  15.493  16.267   0.653 -0.0533  0.1659  0.2163
23589W        W42443  17.613  14.010   4.407  0.2193 -0.1414  0.2501
23590W        W42444  18.961  13.497   3.608  0.3447  0.1672  0.0007
23591W        W42445  13.546  18.478  13.114  0.0630 -0.1355  0.3059
23592W        W42446  13.657  11.681   0.862  0.1451 -0.1566 -0.1860
23593W        W42447   5.953  17.527   3.184 -0.0708 -0.1805 -0.0101
23594W        W42448  17.426  12.912  14.350 -0.1611  0.2102  0.0428
23595W        W42449  10.298  16.172  13.434 -0.1545  0.1258  0.2282
23596W        W42450   4.542   0.910  12.505 -0.0470 -0.2474  0.0096
23597W        W42451   6.733   4.644  13.411  0.3233  0.1172  0.2466
23598W        W42452   1.888   9.651  13.008  0.2100 -0.0103  0.0120
23599W        W42453  12.445   6.053  12.404 -0.5267 -0.1742  0.1789
23600W        W42454  12.816   7.008  12.858  0.1293  0.2549 -0.2012
23601W        W42455  18.378   7.597   0.128 -0.1041 -0.0945 -0.1076
23602W        W42456  14.649   3.303   3.074 -0.1731 -0.2623 -0.2285
23603W        W42457  18.672  14.899   3.832  0.1603  0.2656  0.0803
23604W        W42458   0.160  18.982  11.090  0.0594  0.0094 -0.0410
23605W        W42459   9.104  14.272  13.844  0.4148 -0.1306 -0.2091
23606W        W42460   2.870  18.065   3.920 -0.1294 -0.0238  0.0005
23607W        W42461   0.900   5.622   1.894  0.1180  0.2515  0.3837
23608W        W42462  16.064  15.192  13.143  0.2767 -0.0664 -0.1875
23609W        W42463  10.422   9.983  11.297 -0.2198 -0.1212 -0.1699
23610W        W42464  18.581  18.406   4.805  0.2458 -0.1036  0.0666
23611W        W42465   7.247   4.581   1.045 -0.0112  0.2684 -0.0393
23612W        W42466   6.088  14.613  13.952  0.1545  0.0822 -0.1877
23613W        W42467  14.686  12.160   1.471  0.1353  0.1562  0.0970
23614W        W42468   8.345  18.222  13.317  0.3288  0.1508  0.0673
23615W        W42469  14.543  12.517   3.135 -0.0964 -0.2800 -0.1702
23616W        W42470  16.482  10.229   1.201 -0.2320 -0.0315  0.1978
23617W        W42471   6.808  10.573  12.129 -0.1780  0.2330  0.0473
23618W        W42472   1.617   2.685  13.908 -0.2240 -0.0992  0.1452
23619W        W42473   2.173   3.138   1.359 -0.0367  0.1465 -0.2147
23620W        W42474   6.850  16.264  12.886 -0.0591  0.0377  0.0403
23621W        W42475   0.709   8.559   1.963  0.1262  0.1398  0.0860
23622W        W42476   3.088   6.267  10.893 -0.0683 -0.2455 -0.2039
23623W        W42477   8.525  15.092   3.719 -0.0829 -0.1199  0.1009
23624W        W42478   1.040   9.957  14.692 -0.2373  0.1248 -0.0387
23625W        W42479  11.926  14.582  11.637 -0.3837  0.0684  0.0754
23626W        W42480  11.872   3.761   3.304  0.0868 -0.1396  0.0138
23627W        W42481   4.504   2.345   2.754  0.0330  0.1220  0.4549
23628W        W42482  18.638  13.732   2.181 -0.0765  0.2982  0.2280
23629W        W42483   1.861   0.166   3.524  0.0414 -0.0508  0.1372
23630W        W42484  13.706   2.777  14.004 -0.1518  0.1039 -0.1505
23631W        W42485   1.569   6.867  10.295 -0.1349 -0.0579  0.1232
23632W        W42486   4.238   5.325  13.063 -0.2491  0.0789 -0.1229
23633W        W42487   9.914   8.941  13.962  0.2611  0.0819  0.1129
23634W        W42488   3.345   7.024  13.579 -0.0810 -0.1820  0.2448
23635W        W42489   2.088  15.966  12.592  0.0713  0.2019 -0.0500
23636W        W42490   3.683   9.688   0.825  0.1463  0.1721  0.1646
23637W        W42491  13.867   6.530  11.305  0.1506 -0.0446 -0.1250
23638W        W42492  18.507   8.858  10.546  0.2916  0.4888  0.1812
23639W        W42493  11.454   1.000   0.473 -0.2726 -0.1230 -0.0400
23640W        W42494  14.082   6.923   2.242 -0.0809  0.0944  0.0127
23641W        W42495   6.714   3.454  10.897 -0.1142  0.1783 -0.1384
23642W        W42496  12.495  15.368  13.331 -0.2037  0.0879  0.0932
23643W        W42497   4.720  18.236   4.220  0.2275  0.1461 -0.0645
23644W        W42498  17.745   3.779   2.831  0.1424  0.0780 -0.0837
23645W        W42499   2.865  14.028   1.178  0.0853  0.1044 -0.0871
23646W        W42500   7.387  10.254   0.468  0.1931 -0.4320 -0.0502
23647W        W42501  14.562  13.865   3.596 -0.2560  0.0984 -0.1601
23648W        W42502  16.125   5.862  10.652  0.4626 -0.0583 -0.1734
23649W        W42503   5.698  17.114  10.902  0.1259  0.3183  0.0313
23650W        W42504  17.269   5.339  12.147 -0.1310 -0.0422  0.5069
23651W        W42505   9.897   7.430  11.533  0.0926  0.3678 -0.0423
23652W        W42506   1.929   7.104  14.262  0.2307 -0.1901  0.1880
23653W        W42507  13.516  16.106  11.560  0.1634  0.3321  0.0356
23654W        W42508   6.311  16.628  10.299  0.0706 -0.1922 -0.0128
23655W        W42509  18.778   5.531   1.991  0.0010 -0.0049  0.0108
23656W        W42510  14.917  14.685   4.022 -0.1265  0.1250  0.0838
23657W        W42511  15.739   5.578   3.542  0.3680  0.2110  0.0052
23658W        W42512  13.191  11.889   0.592 -0.0766 -0.0107  0.0178
23659W        W42513  17.742  10.161   2.468 -0.0542  0.0942  0.0767
23660W        W42514  18.036  14.078   0.664 -0.4900 -0.3326  0.0387
23661W        W42515   4.286   5.277   3.666  0.0286 -0.3405  0.3206
23662W        W42516  13.265   2.224   1.212 -0.0315 -0.2775 -0.1144
23663W        W42517   7.580   6.167   1.159  0.0102  0.0126  0.1580
23664W        W42518   5.972   9.491  13.396  0.0522 -0.1455 -0.0441
23665W        W42519   8.569   2.337  13.967 -0.0604  0.0643  0.0215
23666W        W42520   1.525  16.860   5.207 -0.0749  0.0423  0.0830
23667W        W42521  10.841  18.449  12.600 -0.0003 -0.2359 -0.1040
23668W        W42522  16.631  11.199   2.977  0.0911  0.1157 -0.0084
23669W        W42523   7.513   2.906  12.232 -0.1219 -0.1399  0.5519
23670W        W42524   1.294   2.397   4.097  0.0020  0.2646 -0.1512
23671W        W42525   5.969  17.390  11.613 -0.3581 -0.0978  0.1208
23672W        W42526   2.181   9.555   1.096 -0.2570  0.0812  0.0828
23673W        W42527  18.743  18.793  10.597  0.4859  0.1348  0.0063
23674W        W42528   5.021   0.936  11.750  0.0112  0.0993 -0.1248
23675W        W42529  16.826  13.186  10.621 -0.1486 -0.1535  0.1301
23676W        W42530   1.463  12.485   2.457  0.0250 -0.0857 -0.0284
23677W        W42531   9.814  13.786   0.246 -0.1131  0.0801 -0.0111
23678W        W42532  11.768  11.849  10.987 -0.0666  0.0843 -0.0000
23679W        W42533   5.884  18.234   0.191 -0.0635 -0.0571 -0.0918
23680W        W42534  12.071   0.113   3.101 -0.0225 -0.0675  0.5800
23681W        W42535   8.555   7.554  10.511 -0.3445 -0.2664  0.2947
23682W        W42536   7.681   4.050   0.893 -0.1785  0.0353  0.2010
23683W        W42537   2.262   2.657   1.512 -0.2672 -0.0691  0.0608
23684W        W42538   1.278   7.480   0.854  0.3197 -0.0755 -0.1092
23685W        W42539  10.474   8.847   0.080 -0.3892  0.2511  0.1078
23686W        W42540   3.262   5.947  13.864  0.0243 -0.1856 -0.1395
23687W        W42541   8.901   0.664  11.306 -0.1227  0.0762 -0.0590
23688W        W42542   3.759   4.432   0.815 -0.2021  0.0008  0.2563
23689W        W42543  10.614  14.596  13.445 -0.3943 -0.0673 -0.1088
23690W        W42544  14.692  17.654  12.227  0.5202 -0.3251 -0.0637
23691W        W42545   5.537   2.812   3.637  0.3119 -0.1156 -0.0477
23692W        W42546  16.615   8.051  14.663 -0.1906 -0.3380 -0.0662
23693W        W42547  12.686   5.400  10.555  0.1366  0.0537 -0.0861
23694W        W42548   0.262  10.522  11.368 -0.0833  0.0648  0.3485
23695W        W42549  14.645  16.709   2.596 -0.1099 -0.1916 -0.1008
23696W        W42550  14.407   0.791   0.885 -0.0988 -0.0384  0.2492
23697W        W42551   1.706   4.410   4.118 -0.0556 -0.1291 -0.2461
23698W        W42552  12.052  17.057   0.222 -0.0402  0.1392  0.1684
23699W        W42553   5.697   0.012  10.925 -0.1553 -0.3319 -0.0239
23700W        W42554  15.724  10.255   3.016  0.1220  0.0013 -0.2180
23701W        W42555  17.944   4.719  14.468  0.0929 -0.2238 -0.1467
23702W        W42556  13.090  10.625   2.417 -0.0139  0.1362 -0.0164
23703W        W42557  12.905  12.424   3.531  0.0444 -0.1866 -0.1732
23704W        W42558   4.161  17.850   0.441  0.1789 -0.0613  0.1394
23705W        W42559  12.828  10.225   1.209 -0.0107 -0.3204  0.0109
23706W        W42560  15.031  13.226   2.559 -0.0091  0.2547 -0.0095
23707W        W42561  13.693  15.517   2.021  0.2319 -0.0026  0.1529
23708W        W42562   4.661  17.633   1.105  0.0463  0.0294  0.1669
23709W        W42563   1.549   5.047   2.574  0.1292  0.0806  0.1868
23710W        W42564  15.408   8.743   4.322  0.1125 -0.1154  0.1359
23711W        W42565   1.073   3.552  13.014 -0.2867  0.0217  0.1857
23712W        W42566   0.136   0.840  13.165  0.2500  0.1781  0.0739
23713W        W42567   5.518   5.479  11.923  0.1056 -0.0867 -0.2589
23714W        W42568   4.639   3.984   0.864  0.2187 -0.1509  0.0066
23715W        W42569  10.829  10.453   3.219 -0.2211  0.0327  0.0143
23716W        W42570   2.559  13.595   3.235  0.1180 -0.0239 -0.0977
23717W        W42571   9.763  17.215   3.878 -0.2284  0.3105 -0.2583
23718W        W42572  12.089   6.093   1.176  0.0149 -0.2858 -0.0122
23719W        W42573   1.985  17.860   1.641 -0.1970  0.3255  0.2309
23720W        W42574  18.298  17.439   3.911 -0.0304  0.2934 -0.1191
23721W        W42575  15.572  10.076   1.500  0.5351  0.3157 -0.3422
23722W        W42576  15.269   0.868   3.429  0.0951 -0.3077 -0.1774
23723W        W42577   3.523  15.338   0.890 -0.2404  0.0297  0.1922
23724W        W42578   0.131  11.093  10.904  0.0591 -0.1680 -0.2946
23725W        W42579   1.193  18.216   4.372 -0.3076 -0.1356  0.2977
23726W        W42580   1.965   9.231  11.822  0.0246 -0.3468  0.2364
23727W        W42581  14.749   4.241  13.606 -0.0034  0.2837 -0.1542
23728W        W42582  13.180   7.189  13.202 -0.0747 -0.0633 -0.0623
23729W        W42583  12.428  11.557   1.976 -0.0398 -0.0164  0.1454
23730W        W42584   0.544  15.945   3.273 -0.0111 -0.1387 -0.0187
23731W        W42585   1.338  16.039  14.281 -0.0152 -0.1629 -0.1908
23732W        W42586  17.885  17.729   3.324  0.1166  0.2670 -0.0356
23733W        W42587   1.683   2.294   1.595 -0.0992  0.0106  0.3809
23734W        W42588  17.686   2.789   1.330  0.0424  0.0961  0.1601
23735W        W42589   5.601  11.919  10.571 -0.0877 -0.1438 -0.0882
23736W        W42590   4.391  16.626   3.526  0.1467  0.3344  0.4518
23737W        W42591  17.224  12.546   0.327 -0.0158 -0.1299 -0.2513
23738W        W42592  15.794  17.838   0.354  0.2652  0.1765 -0.1803
23739W        W42593   8.442   1.342  10.525  0.3103 -0.4094  0.3260
23740W        W42594  11.192  13.996   1.737 -0.0380 -0.0611  0.1691
23741W        W42595  14.373   6.890  13.329  0.0608  0.0111 -0.1345
23742W        W42596  17.626   5.649  14.699 -0.0972 -0.0382  0.0794
23743W        W42597   7.405  11.750  13.077 -0.1146 -0.2147 -0.3820
23744W        W42598   0.364   4.431   1.773 -0.2206  0.0060  0.1743
23745W        W42599   6.917  13.913   1.129 -0.3306 -0.0711 -0.3069
23746W        W42600   7.036  18.241   1.729 -0.3042 -0.1290  0.1288
23747W        W42601  17.251  13.141   3.997  0.1019 -0.2196 -0.0444
23748W        W42602   9.597  18.557  14.302  0.1294  0.0456  0.4416
23749W        W42603  10.154   9.804  10.597 -0.0173 -0.0644  0.0765
23750W        W42604   5.297  18.570  13.253  0.1419 -0.0358  0.2668
23751W        W42605   0.608   7.746  11.442  0.0287  0.0276  0.0165
23752W        W42606  14.962   5.279  13.726  0.3761 -0.0778 -0.0970
23753W        W42607   9.026   7.589  10.582 -0.2241 -0.1538 -0.0884
23754W        W42608   4.655  11.415  14.077  0.3435  0.2342  0.0751
23755W        W42609   6.770  16.726  13.114 -0.1872 -0.2678  0.2623
23756W        W42610  13.033  13.305   4.512  0.1694  0.0390 -0.0645
23757W        W42611   1.690  15.501   1.046  0.0439  0.0495 -0.2132
23758W        W42612  16.864   9.727  11.203  0.1177 -0.0406  0.1538
23759W        W42613   8.892  12.528  13.929  0.1153  0.0578  0.0544
23760W        W42614   6.642  15.091   2.008 -0.1792 -0.0996  0.0144
23761W        W42615   8.123   1.834  12.073  0.3142 -0.1882 -0.1929
23762W        W42616   8.850   8.017  10.323 -0.1963 -0.2586  0.2828
23763W        W42617   3.478   8.241   0.035 -0.1145 -0.2326 -0.3981
23764W        W42618  13.832  19.156   0.194  0.2378 -0.1767  0.0696
23765W        W42619   4.317   6.016  13.332  0.1970 -0.1114  0.0561
23766W        W42620   6.213  17.850   3.911 -0.1417 -0.3778 -0.0914
23767W        W42621  13.722  12.718  13.144  0.0667  0.2113 -0.1579
23768W        W42622   8.122  10.614   2.542 -0.0831 -0.3539  0.1226
23769W        W42623  12.943  19.130   3.916  0.0777  0.0758  0.0119
23770W        W42624   5.394  11.727   3.141 -0.1751  0.0126  0.0417
23771W        W42625   5.328   7.708   1.241  0.1080 -0.3475 -0.2897
23772W        W42626   7.372   3.321   1.240 -0.1431 -0.0079  0.0115
23773W        W42627  18.233   1.584  11.955  0.0713  0.0789  0.0662
23774W        W42628   7.965   6.368   3.836  0.1758 -0.1029 -0.3196
23775W        W42629  15.590  12.890  11.831  0.1574  0.3376  0.0441
23776W        W42630   2.078  19.117  10.789  0.1117  0.2352  0.0700
23777W        W42631  10.412   1.756   1.016  0.2593  0.1157  0.0367
23778W        W42632  14.403   4.308  14.289 -0.2861 -0.1784 -0.2414
23779W        W42633   2.408  18.038   3.667 -0.2427  0.3841 -0.0411
23780W        W42634  13.782   9.226   4.254 -0.3561 -0.1144  0.0586
23781W        W42635   6.975  11.293   4.131  0.0654 -0.2299  0.5779
23782W        W42636   1.332   6.352   3.658  0.1955 -0.1496  0.1291
23783W        W42637   9.018   7.470  14.664  0.2553  0.0223 -0.1808
23784W        W42638  14.398  10.223  14.092  0.1068 -0.1145 -0.0442
23785W        W42639   8.593   6.878   0.667  0.2625 -0.0386 -0.0836
23786W        W42640  15.659   2.145  14.217  0.3379  0.2714 -0.1778
23787W        W42641   6.702  10.157   1.588 -0.0039  0.3421 -0.2952
23788W        W42642   0.546   7.494   3.020  0.0326  0.0447 -0.0941
23789W        W42643   4.458  15.940  13.702  0.0546  0.1050  0.2085
23790W        W42644  13.792   3.573   4.230 -0.5026 -0.0049 -0.1074
23791W        W42645  18.822  17.525   3.145 -0.0875  0.2158  0.3002
23792W        W42646  14.889   7.141  10.466 -0.0274 -0.1542 -0.1928
23793W        W42647   6.345  13.095   1.368 -0.0463 -0.0003 -0.0780
23794W        W42648   8.189   0.838   4.321 -0.0920 -0.1317  0.0763
23795W        W42649  11.623  14.939  11.282 -0.3396 -0.2003  0.1512
23796W        W42650   9.206  13.972   1.574  0.2027 -0.0015 -0.1168
23797W        W42651   8.308  16.222  11.253 -0.2425  0.0717 -0.3385
23798W        W42652   9.118  14.407   0.575 -0.0434 -0.0695 -0.1023
23799W        W42653  17.478   5.260  12.787  0.0027 -0.2638 -0.0971
23800W        W42654   4.012   1.363   3.148 -0.1382  0.3416  0.2726
23801W        W42655   6.326   7.222  10.994  0.0336  0.1761 -0.2843
23802W        W42656  16.998   8.545  10.382 -0.0067 -0.3126  0.1225
23803W        W42657  17.470   0.225  10.402  0.0859  0.0134 -0.0400
23804W        W42658  12.634   6.985   0.283 -0.0716  0.0981  0.0240
23805W        W42659   5.692   4.555   0.254  0.2074 -0.0016  0.1831
23806W        W42660  13.949   7.863   0.086  0.1803 -0.0868 -0.0901
23807W        W42661   5.053  17.749  12.180 -0.1202 -0.0412  0.0508
23808W        W42662   6.804   7.028  11.553 -0.0836 -0.0127  0.0253
23809W        W42663  16.772   9.008   1.055 -0.1931 -0.1764 -0.1725
23810W        W42664  17.451  15.369   3.853  0.0385 -0.2548  0.1652
23811W        W42665  16.364   5.375   4.127  0.1807  0.1300 -0.0111
23812W        W42666  11.692  15.222   1.273 -0.2358 -0.1546 -0.3238
23813W        W42667   9.812   6.783   1.531  0.2139  0.0452  0.0111
23814W        W42668   4.182  18.638  11.559  0.3317  0.1989 -0.0116
23815W        W42669   2.236  13.761  12.106  0.1589  0.1632  0.0887
23816W        W42670  16.901   6.638   0.372  0.0146 -0.0162  0.1133
23817W        W42671   3.245  17.903  14.078  0.3789 -0.0090 -0.0841
23818W        W42672  13.561  10.951  11.146 -0.2720 -0.0474 -0.1450
23819W        W42673   5.590  17.035  13.739 -0.0215  0.1307 -0.2352
23820W        W42674  18.800  16.790  10.489  0.1417  0.2380  0.4383
23821W        W42675   9.051  13.953  11.578  0.3001 -0.0815 -0.0579
23822W        W42676   2.753   9.146  12.807 -0.1144  0.2584 -0.0380
23823W        W42677  12.783   0.991  13.182  0.3256 -0.0454 -0.0241
23824W        W42678   4.339   1.313  12.176  0.1366  0.1066  0.0936
23825W        W42679  13.053   8.499   4.431  0.1291 -0.4717  0.0568
23826W        W42680  18.946   8.874  10.269  0.0094  0.0898  0.1531
23827W        W42681  16.455   8.864  11.603  0.4783  0.1269  0.1027
23828W        W42682  14.010  15.353   1.587 -0.0364  0.4009  0.1667
23829W        W42683   3.200   2.773  14.491  0.2040  0.1975  0.1554
23830W        W42684   1.507  18.168   3.504 -0.4624  0.0058  0.3184
23831W        W42685  10.869  18.131   3.211 -0.0930 -0.0688  0.1431
23832W        W42686  17.752  18.403   2.656  0.1936  0.0345  0.1142
23833W        W42687  14.810   3.912  11.274  0.4507 -0.0745 -0.4756
23834W        W42688   8.969   7.860   9.784 -0.0424 -0.0063  0.1301
23835W        W42689  12.930   7.211   3.939 -0.0994 -0.5126 -0.2619
23836W        W42690   9.234  15.295  11.683  0.0931  0.1536  0.2078
23837W        W42691  11.822   5.455  13.154 -0.2727  0.0664  0.1238
23838W        W42692  17.632   2.212   1.232  0.0507  0.1235  0.3271
23839W        W42693  13.784  12.172  13.945  0.1283  0.0599  0.0397
23840W        W42694  11.203   1.966   3.329  0.0182  0.0605 -0.0181
23841W        W42695   5.877   7.296   3.003  0.0189 -0.3144  0.0497
23842W        W42696   1.803  16.933  13.936  0.4247  0.3529 -0.3038
23843W        W42697   8.548  12.411   0.789 -0.0539  0.0334  0.1982
23844W        W42698  18.210   9.339   2.466 -0.1836  0.3134 -0.2681
23845W        W42699  16.935  16.156  12.261  0.0913 -0.1961 -0.2714
23846W        W42700  16.219  13.703   5.002  0.0068  0.1876  0.1072
23847W        W42701   6.351   0.253  10.440 -0.3918  0.0794 -0.2031
23848W        W42702   6.877  18.460  11.800 -0.3602  0.1805  0.2398
23849W        W42703   6.049   3.650  14.708  0.0590 -0.0455 -0.1435
23850W        W42704   2.840  11.309   2.180 -0.0934 -0.1014 -0.6125
23851W        W42705  15.285  10.875   1.673  0.1343 -0.2549  0.0455
23852W        W42706  16.450  12.036  11.383  0.3928  0.0814 -0.1356
23853W        W42707   8.325   4.089   2.555 -0.2404 -0.1134 -0.0771
23854W        W42708  13.953  10.554   3.527  0.1682  0.1457  0.1446
23855W        W42709  15.251   6.476  14.006  0.2692 -0.0218 -0.3336
23856W        W42710   7.648   6.971  10.727  0.2447 -0.2669  0.6544
23857W        W42711   5.615  17.170   0.925  0.0855 -0.0847  0.2083
23858W        W42712   5.031   9.631  12.647  0.2091 -0.2236 -0.1357
23859W        W42713   2.390   4.722   3.276  0.1531  0.1587 -0.1230
23860W        W42714  17.874   0.587   3.328  0.1712  0.0722  0.1616
23861W        W42715   2.689   9.799   0.906 -0.0973 -0.0222 -0.0684
23862W        W42716  10.998   3.621   0.071 -0.0976  0.2466 -0.0856
23863W        W42717  11.805  14.703  13.052  0.0221 -0.1435 -0.3148
23864W        W42718   8.286   0.062  14.167 -0.0751 -0.1867 -0.1769
23865W        W42719  17.339   0.197   0.947  0.0369 -0.0493 -0.0674
23866W        W42720   7.487   9.745   0.919  0.1551  0.0642  0.2516
23867W        W42721  12.032   4.647   0.190  0.1653 -0.1370  0.2285
23868W        W42722   5.747   9.932  13.313  0.3151  0.0629 -0.2482
23869W        W42723  11.155  10.419  13.193  0.0049 -0.0190  0.1633
23870W        W42724   4.448   5.733  11.127 -0.0473  0.2451  0.0014
23871W        W42725  18.922  17.038   0.441  0.0068 -0.2679 -0.2793
23872W        W42726   9.024  11.661   2.006 -0.0058 -0.0832 -0.2479
23873W        W42727  11.539   8.443   0.281 -0.0276 -0.0546  0.2826
23874W        W42728  13.871   7.190  13.230  0.3664 -0.1437 -0.2440
23875W        W42729   7.663  12.128  12.836 -0.0872 -0.2347  0.1450
23876W        W42730   6.980   1.564  13.373 -0.0915  0.4027  0.3957
23877W        W42731  18.570  18.630  14.679 -0.2490  0.1713 -0.0776
23878W        W42732  11.674   9.128   3.030  0.0645 -0.0317 -0.0064
23879W        W42733   3.008   9.332   4.181 -0.1293  0.6948 -0.4538
23880W        W42734   2.826  13.696   4.134  0.1864  0.3043  0.0222
23881W        W42735   5.245   2.330   2.139 -0.0316 -0.1304  0.2933
23882W        W42736   1.587   3.900   4.054 -0.1454 -0.0372  0.3148
23883W        W42737  10.820  17.956  12.368  0.0064 -0.1056 -0.0257
23884W        W42738   0.411   2.136   2.623  0.4701  0.3315  0.1268
23885W        W42739  15.775   8.981  13.228  0.3440 -0.2915 -0.0568
23886W        W42740  18.596   7.455  13.496  0.2017 -0.1508  0.1307
23887W        W42741  12.728   6.744   4.096 -0.1563 -0.1607  0.0228
23888W        W42742   5.610   8.355  10.879 -0.1509  0.0395  0.1468
23889W        W42743  10.285  14.561   2.337  0.2289 -0.0117  0.1260
23890W        W42744   2.512   6.644   0.222 -0.2632 -0.1200 -0.0856
23891W        W42745  15.563  12.385   5.006  0.0725  0.1905 -0.1504
23892W        W42746  10.101   7.521   3.971 -0.0464 -0.2034 -0.0340
23893W        W42747   9.072  12.865   1.806  0.0198 -0.1097 -0.1826
23894W        W42748   2.811  12.972  14.403  0.1342  0.0813  0.2499
23895W        W42749   2.750  15.667   1.683  0.0835  0.1302  0.0717
23896W        W42750  13.466  14.416  10.655  0.1154  0.0386  0.1374
23897W        W42751  13.387   9.999   0.806  0.1349  0.0050  0.1229
23898W        W42752   4.960  13.192  14.501  0.0079  0.1768  0.4767
23899W        W42753   5.699  17.590  10.825  0.0442 -0.1935 -0.3119
23900W        W42754  10.185  10.474   3.788 -0.2446  0.2691 -0.3599
23901W        W42755  18.624   0.814  10.948  0.0332  0.4549  0.1930
23902W        W42756  15.621  13.267   3.269 -0.0493  0.0454  0.1767
23903W        W42757  16.813   7.980  13.122  0.0695  0.0243  0.0179
23904W        W42758   6.159  13.406  12.449 -0.1335 -0.1720  0.2845
23905W        W42759   8.702  10.076   4.276  0.0051  0.0119 -0.0625
23906W        W42760  13.042  14.720  12.041 -0.2195 -0.0249 -0.0968
23907W        W42761   2.302   6.917   4.214  0.1538  0.2684 -0.0905
23908W        W42762   5.167   4.828  13.789 -0.2559  0.3079 -0.0094
23909W        W42763   0.031   7.348   1.306 -0.0576 -0.0567 -0.1731
23910W        W42764   9.886  17.849   4.022  0.0416 -0.2202 -0.1102
23911W        W42765  16.211   7.994  11.962 -0.1470  0.0305 -0.1112
23912W        W42766   1.357   6.179  11.004  0.0733 -0.0215  0.1357
23913W        W42767  17.105   7.786   1.089  0.1847 -0.3023  0.3273
23914W        W42768  12.211  15.803   2.970 -0.1860 -0.1931  0.2123
23915W        W42769   6.976   0.880  11.982 -0.1881  0.4245  0.2022
23916W        W42770  18.819  13.062  11.891 -0.0760  0.1914  0.0399
23917W        W42771  14.788   5.931   3.219  0.1793  0.1903 -0.1004
23918W        W42772   7.566   3.151  14.517 -0.0129  0.2388  0.0856
23919W        W42773   9.174   3.572   9.663  0.3557 -0.0448 -0.1862
23920W        W42774   6.102  12.740  11.143  0.1220  0.0291 -0.0872
23921W        W42775  12.741   3.901   1.033  0.0260  0.2999 -0.1326
23922W        W42776   6.263   8.177   3.428  0.0632 -0.1331 -0.0876
23923W        W42777   9.504   2.428  10.790 -0.1269  0.0316 -0.3417
23924W        W42778   1.080   5.440  13.323  0.0310  0.0401  0.0239
23925W        W42779  13.966   4.343  10.266  0.1806  0.0120  0.1886
23926W        W42780  15.532   4.631   1.658  0.0909  0.0765 -0.1023
23927W        W42781  14.395   1.923  11.545 -0.3283 -0.2424 -0.0669
23928W        W42782  13.560   0.351  14.245 -0.3755 -0.0811 -0.0851
23929W        W42783  17.650  16.851  14.660  0.1093  0.0013 -0.3089
23930W        W42784  10.500   4.023  10.907  0.1630 -0.0940  0.0785
23931W        W42785   5.208   3.098   2.579  0.2342  0.1447  0.2916
23932W        W42786   3.013   3.655   3.363  0.0253 -0.1039  0.0588
23933W        W42787  15.396   9.674  11.008 -0.0139 -0.2273 -0.1999
23934W        W42788   3.426   7.586  10.915 -0.0470  0.0653  0.0965
23935W        W42789  18.324  13.289  12.224  0.0803 -0.1843  0.2665
23936W        W42790  12.289   8.548  11.338 -0.0258 -0.0796 -0.0197
23937W        W42791  12.508   1.534  13.722  0.0592  0.0043  0.4066
23938W        W42792   9.307   0.713  14.481  0.1519 -0.1925 -0.0658
23939W        W42793   5.166  11.035  14.672 -0.2395  0.0230  0.0729
23940W        W42794  17.357   3.444   0.892  0.2035 -0.0714  0.0292
23941W        W42795  11.846  18.118  13.196 -0.0957 -0.2454  0.2381
23942W        W42796  14.299  12.730  13.608 -0.0352 -0.0619 -0.4244
23943W        W42797  14.166   4.237  11.194 -0.2726  0.0356  0.1675
23944W        W42798  15.641   7.023   4.341 -0.2313 -0.2625  0.1347
23945W        W42799   0.338   7.577   3.557 -0.2977  0.3141 -0.1855
23946W        W42800   3.022  17.921   2.244 -0.0673 -0.2202  0.0834
23947W        W42801   3.318   2.770  10.964  0.1148 -0.0969  0.0166
23948W        W42802   6.528   2.472   4.647 -0.3116  0.0761 -0.2201
23949W        W42803  12.241  11.932  13.064  0.0402 -0.2033 -0.2143
23950W        W42804  15.459  19.068  11.843  0.0484 -0.3247  0.1427
23951W        W42805  10.470   1.747  11.651  0.1151 -0.3146  0.1531
23952W        W42806   2.140  11.092   1.193  0.1117 -0.0735 -0.0900
23953W        W42807   3.418   5.350   1.222 -0.0425  0.0275 -0.1283
23954W        W42808   1.800  10.559  13.002  0.1054  0.0840 -0.0227
23955W        W42809  17.595   3.262   3.591 -0.0009 -0.0184  0.0139
23956W        W42810   9.171  18.442  10.591 -0.1150  0.0966 -0.0635
23957W        W42811   1.433   2.008   0.344 -0.2532  0.1043  0.0951
23958W        W42812   7.126   8.443  13.034 -0.3007 -0.0038  0.3103
23959W        W42813   7.830   3.240   2.508  0.3524 -0.0939 -0.1389
23960W        W42814  17.184   9.904  13.607 -0.1379 -0.4461 -0.3810
23961W        W42815  10.442  18.205   1.808  0.2729  0.0667 -0.3225
23962W        W42816  13.025   5.917   3.545  0.0641 -0.0720  0.2548
23963W        W42817  18.388   5.275  13.685 -0.0992 -0.0302 -0.2556
23964W        W42818  16.878   7.505   3.352 -0.4083 -0.2279  0.3059
23965W        W42819  10.474   4.410   2.381  0.3183  0.0442 -0.0253
23966W        W42820   6.035   1.962   2.508 -0.3552 -0.1609 -0.0255
23967W        W42821   9.499  17.547   4.578 -0.2067  0.0879 -0.0296
23968W        W42822   4.156   8.559   4.094 -0.0587 -0.1859 -0.2530
23969W        W42823   3.697  19.188  10.900 -0.2084  0.2429 -0.0783
23970W        W42824   2.147  12.365   4.137  0.1504 -0.0147 -0.1081
23971W        W42825   0.705   6.161   0.955 -0.1542  0.1168  0.0154
23972W        W42826   7.144   2.894  14.691  0.1293  0.1312  0.0704
23973W        W42827  16.961   2.440  14.440 -0.0355  0.2260 -0.1252
23974W        W42828   5.588   4.709  12.580  0.0340  0.1337  0.1432
23975W        W42829  14.180   5.378   1.053  0.1848 -0.0026  0.3701
23976W        W42830  13.003  17.425  12.281 -0.0666 -0.1424 -0.3330
23977W        W42831   4.047  18.664   3.784  0.7599 -0.0530 -0.0838
23978W        W42832   7.519  17.172  12.030  0.1520  0.1700 -0.0546
23979W        W42833  17.493  11.243   0.738  0.0260  0.0908  0.0168
23980W        W42834  17.861  11.524  11.585 -0.0742  0.1537 -0.1896
23981W        W42835   5.505   4.935   2.386 -0.1176 -0.1456  0.0091
23982W        W42836   7.559   0.710  12.208  0.3921 -0.0120  0.3028
23983W        W42837   0.785  17.856   9.391  0.0314  0.1046 -0.1925
23984W        W42838   4.595   4.509  10.150  0.3164 -0.0484  0.0166
23985W        W42839  10.928  18.707  10.622  0.0596 -0.4069  0.2881
23986W        W42840   1.140  12.959  12.094 -0.3460  0.0573 -0.0136
23987W        W42841  15.759  10.546  13.436  0.3092  0.0786  0.0119
23988W        W42842   4.237  18.786   2.853 -0.0282  0.0489 -0.1174
23989W        W42843   0.648  12.973   2.647  0.1187 -0.2404 -0.2779
23990W        W42844  10.175  16.514   2.032 -0.1405 -0.4535 -0.1097
23991W        W42845  13.382  11.069   9.208 -0.1500 -0.1517  0.3738
23992W        W42846   7.227  14.911   3.458  0.1062  0.1638  0.0974
23993W        W42847   7.775   9.055  11.936  0.1877  0.1679 -0.0594
23994W        W42848   9.554   3.366  14.360 -0.0576 -0.1888  0.0470
23995W        W42849  16.435  18.131   1.112  0.4538 -0.1097 -0.0386
23996W        W42850  18.004   1.025  13.432  0.4481 -0.1672  0.1554
23997W        W42851   3.095  11.870   0.529  0.1491  0.0957  0.2921
23998W        W42852   1.294  10.659   1.126  0.0485 -0.0055 -0.2526
23999W        W42853  16.596  10.627   4.227  0.0625 -0.2263  0.1435
24000W        W42854   3.364   0.616   2.697 -0.0106  0.1976  0.2619
24001W        W42855   7.393  15.891   4.349 -0.2667 -0.0656  0.1643
24002W        W42856  15.186  17.200  13.514  0.1253 -0.1481 -0.3714
24003W        W42857   3.927   2.590  13.774  0.1265  0.0827 -0.0224
24004W        W42858   7.491  18.492  10.970 -0.2667 -0.1344 -0.0388
24005W        W42859   1.000  15.423  13.016 -0.0763  0.2913  0.0738
24006W        W42860  12.542   6.246  13.291  0.1866 -0.2666 -0.0485
24007W        W42861   8.600   6.958  14.058  0.2338 -0.0568  0.0769
24008W        W42862  13.562  13.347  14.482  0.0680  0.1567 -0.1659
24009W        W42863   2.587   2.546   0.190 -0.2068  0.2258 -0.1351
24010W        W42864   4.633   6.305   3.854 -0.2911  0.0265  0.1813
24011W        W42865   6.139   9.822   2.410  0.0022 -0.2381  0.0132
24012W        W42866   4.647  13.202  11.451  0.2870  0.0614 -0.0837
24013W        W42867   5.670   2.211  12.266 -0.2087 -0.0303 -0.2668
24014W        W42868   6.997   7.146  13.443  0.0369 -0.1788  0.0173
24015W        W42869  12.559   0.879   1.899 -0.0357 -0.1310 -0.0115
24016W        W42870  18.578   9.403  12.335  0.2399  0.0063  0.3485
24017W        W42871  15.867   8.355  11.995 -0.0982  0.1897  0.0768
24018W        W42872  14.864   1.258   3.516 -0.1510 -0.0459  0.1848
24019W        W42873   3.965   7.802  11.452 -0.4511 -0.0184  0.1501
24020W        W42874  16.619  14.448  10.061 -0.1608  0.0515 -0.1872
24021W        W42875   9.604  13.057  13.302  0.3202  0.1218 -0.0217
24022W        W42876  18.016   9.569   9.888 -0.0557  0.0822 -0.0246
24023W        W42877   3.684  17.902  12.717 -0.0068 -0.0736  0.2235
24024W        W42878   3.848   2.101   0.839  0.1284  0.2662  0.1095
24025W        W42879  15.387   3.594  10.246 -0.3719  0.0117  0.2951
24026W        W42880   1.090   2.213   2.194 -0.1309  0.1446 -0.0995
24027W        W42881  14.990   5.313  11.048  0.0395 -0.2476  0.6077
24028W        W42882  16.380   0.644  13.898  0.0256 -0.2020  0.1216
24029W        W42883   1.711  13.583   0.285  0.0873 -0.2640 -0.1580
24030W        W42884   0.125  10.059  14.450 -0.1150 -0.1072  0.0796
24031W        W42885   2.134  11.781   4.127  0.1812  0.1904  0.5259
24032W        W42886  16.141   1.860  11.223 -0.1012  0.2418 -0.2195
24033W        W42887   9.079   3.959   2.900  0.0636 -0.3220  0.3620
24034W        W42888   8.270   3.958  12.890 -0.2021  0.0557  0.4005
24035W        W42889   2.779  13.412   3.675 -0.1958 -0.0957  0.1491
24036W        W42890  14.591  18.450   0.817 -0.0567  0.0564  0.2505
24037W        W42891  15.890   4.125   3.539  0.0890 -0.0147 -0.1217
24038W        W42892   3.909  13.655   2.590  0.0039 -0.0188  0.2610
24039W        W42893   5.411  10.174   0.295 -0.2170 -0.3276 -0.0333
24040W        W42894   2.553   4.937   9.554  0.1750 -0.1619  0.5002
24041W        W42895  16.325  14.373  11.319 -0.0832 -0.2546  0.3380
24042W        W42896   5.869   9.192  12.718  0.2680  0.2004 -0.3254
24043W        W42897   9.573   1.333  13.448 -0.1344 -0.1898  0.0907
24044W        W42898   8.227  13.321  14.351  0.0660  0.0974 -0.0405
24045W        W42899  17.419  16.180  13.558  0.4795 -0.0228 -0.2570
24046W        W42900   0.407  11.725  13.455  0.0756  0.0235  0.1845
24047W        W42901   2.425  11.740   4.521  0.2325 -0.2317 -0.3401
24048W        W42902  18.939   0.756  14.614  0.1815  0.0221  0.1714
24049W        W42903   5.427   5.767  12.739  0.0715 -0.3239 -0.2018
24050W        W42904   1.364  14.594   3.842 -0.3320  0.0752  0.0253
24051W        W42905  19.163   9.426   2.445 -0.1740  0.0800  0.3186
24052W        W42906   1.688  14.748   1.377 -0.1365  0.0317  0.0119
24053W        W42907   2.872  11.190   2.773  0.1342 -0.0824  0.0077
24054W        W42908   4.944  12.331   0.560 -0.3562 -0.3285  0.1478
24055W        W42909  15.693  10.028   3.540  0.1619 -0.0514  0.1324
24056W        W42910   6.731   7.146   2.481 -0.0919  0.1229 -0.1804
24057W        W42911  10.350  17.261  14.579 -0.0188  0.2023 -0.2804
24058W        W42912   2.557  12.981   1.533 -0.1575 -0.0146 -0.2109
24059W        W42913  11.945  17.389   0.951 -0.0349  0.2762 -0.0645
24060W        W42914   0.408   2.420  13.733 -0.1586 -0.2641  0.0522
24061W        W42915  10.748  10.772  14.050 -0.2413 -0.1094  0.2457
24062W        W42916   1.179   3.545  11.096  0.4177 -0.1698  0.2879
24063W        W42917  10.284   0.978  12.640 -0.0930 -0.0837  0.1802
24064W        W42918   1.842   8.429   3.158  0.3327 -0.1695  0.1229
24065W        W42919   1.422   5.651  10.930 -0.0232 -0.1746  0.0754
24066W        W42920   4.957   8.648  12.379 -0.1012 -0.2701 -0.0478
24067W        W42921   1.556  17.190   3.761 -0.0805  0.3280 -0.3995
24068W        W42922   1.993  10.695   1.801 -0.3834 -0.1587  0.0395
24069W        W42923   7.053  17.932  14.187  0.0170 -0.1927  0.1883
24070W        W42924   5.276   7.309   2.351 -0.2538 -0.0381 -0.1341
24071W        W42925  17.749   2.771   4.347  0.2236  0.1065  0.1868
24072W        W42926  19.082   2.493   0.873  0.4242 -0.2482  0.3357
24073W        W42927  18.816   6.611   1.588 -0.4103  0.3022 -0.0797
24074W        W42928  17.037  14.343   1.614  0.2746  0.1985  0.0795
24075W        W42929  13.052   8.908  13.333  0.1178 -0.0663 -0.1412
24076W        W42930   1.449   6.611  12.985  0.2327 -0.1292  0.1400
24077W        W42931   6.287  10.622  10.382  0.2371  0.2387 -0.1901
24078W        W42932   5.634  18.489  12.232  0.1055 -0.0737 -0.1492
24079W        W42933  10.675  11.738  13.543 -0.0104  0.0166  0.0274
24080W        W42934   0.709  16.674   2.235  0.1801 -0.1669  0.2224
24081W        W42935  14.208  17.022  13.439  0.0729  0.1570  0.0185
24082W        W42936  17.869  12.144   1.778 -0.0233 -0.2479 -0.2512
24083W        W42937  14.511  18.513   3.331 -0.2088  0.0207  0.0914
24084W        W42938  17.093  14.504   0.469  0.1685  0.0476  0.1087
24085W        W42939  16.838  19.180   3.883  0.0092  0.1519 -0.0336
24086W        W42940   1.862  10.432   4.483 -0.3249  0.1244  0.2495
24087W        W42941   1.723  15.790   1.450  0.2188  0.1270 -0.0235
24088W        W42942   2.665  16.735   4.052  0.3362 -0.3961 -0.1919
24089W        W42943  17.390  13.420  14.203  0.0103 -0.0265  0.0481
24090W        W42944   4.373   6.748  14.562  0.0002 -0.0088 -0.1271
24091W        W42945   1.271   9.256   0.875  0.2706  0.3355  0.0643
24092W        W42946   0.735  18.127   4.114 -0.2915  0.0953 -0.1864
24093W        W42947  18.468   2.822   0.260  0.3142  0.2773 -0.0104
24094W        W42948   3.183   6.350   3.252  0.0982  0.1119 -0.2287
24095W        W42949  17.401   3.912  11.826  0.0916 -0.1393  0.0949
24096W        W42950  10.168  17.400  14.061 -0.3551 -0.2140 -0.0404
24097W        W42951  14.599  12.811  11.048  0.2435  0.0235  0.1622
24098W        W42952   8.429   7.827  13.221 -0.3871 -0.0272 -0.2515
24099W        W42953   0.711  11.397   2.070  0.1271 -0.2934 -0.0084
24100W        W42954   5.193  13.987   0.939 -0.0787 -0.0726  0.0144
24101W        W42955  17.653   2.275   2.196  0.2545 -0.1438 -0.3361
24102W        W42956  17.766   1.911   2.525 -0.0396 -0.0514 -0.2257
24103W        W42957  10.312  18.736  13.712  0.0864  0.0096  0.0505
24104W        W42958  17.136  18.264  12.530  0.2948  0.1122  0.3049
24105W        W42959  13.563   8.614   2.319  0.0928 -0.4803 -0.2244
24106W        W42960   0.076  14.779  12.412  0.1092  0.2122  0.2831
24107W        W42961   3.317  14.748  12.956 -0.0571 -0.0066  0.0751
24108W        W42962   4.710   5.968  13.634 -0.0992  0.0217 -0.0031
24109W        W42963   7.733  18.841  13.137 -0.1074  0.3289  0.1778
24110W        W42964   9.988  10.210  10.745 -0.3832 -0.2990 -0.0005
24111W        W42965   2.659   8.277   4.292  0.1804 -0.3249 -0.1833
24112W        W42966  17.478   0.558   2.688 -0.2216  0.3101 -0.0191
24113W        W42967  17.188  16.926   1.331  0.1027  0.4026 -0.0467
24114W        W42968  18.321   7.568  12.061  0.0281 -0.1953 -0.2641
24115W        W42969  15.484  10.168   2.020 -0.1441  0.2257  0.1208
24116W        W42970   2.050  19.022  11.872  0.1785  0.0970  0.2922
24117W        W42971   0.989   6.505  11.223 -0.3205  0.1658  0.1759
24118W        W42972   4.656  14.213   1.330  0.1660  0.0898  0.2839
24119W        W42973   7.571   1.634  10.728 -0.2167 -0.0076  0.2376
24120W        W42974  14.420   6.202  14.112  0.1075  0.0944 -0.2714
24121W        W42975   9.833   2.504   1.084 -0.0104 -0.2530  0.0934
24122W        W42976  11.460  14.235  13.877 -0.1093 -0.0683 -0.0209
24123W        W42977   7.257   4.809   2.212  0.1340  0.0560  0.1297
24124W        W42978   1.411  16.675   3.817  0.0619  0.2632 -0.1815
24125W        W42979  10.843  11.153  11.748  0.1479  0.0281 -0.1209
24126W        W42980   4.927  14.308   4.176 -0.2167 -0.1068  0.3368
24127W        W42981   9.832   9.160   3.829  0.2630 -0.2356 -0.0517
24128W        W42982  17.123  14.462   2.092 -0.3144 -0.2333  0.1163
24129W        W42983   5.982   1.941  11.410  0.0956  0.2184 -0.0167
24130W        W42984   8.291   2.792  11.112  0.0084 -0.4087 -0.1385
24131W        W42985   6.066  15.112   2.546 -0.0599  0.3537 -0.1390
24132W        W42986   8.879   2.150   0.448  0.1490  0.1072 -0.2815
24133W        W42987   8.636   6.035  14.014 -0.0340 -0.1832 -0.2229
24134W        W42988  15.835   6.029  10.296  0.0610  0.1486  0.5083
24135W        W42989   8.040  16.798   2.277  0.0845 -0.1693 -0.2749
24136W        W42990  14.801   1.901  12.393 -0.1318  0.1283 -0.1488
24137W        W42991   3.797  18.948  10.504  0.0302  0.2701 -0.2031
24138W        W42992   3.262   7.956   9.758  0.0234 -0.0560  0.1181
24139W        W42993   5.685   5.124   0.134 -0.2851  0.1278 -0.0044
24140W        W42994  10.393   2.288  10.614 -0.0387  0.0178 -0.0472
24141W        W42995  11.132  10.305   2.735  0.0970 -0.0856  0.2280
24142W        W42996   8.231   1.969  13.839 -0.1026 -0.2173  0.4244
24143W        W42997   5.645  11.106  12.237 -0.1345 -0.1738 -0.2572
24144W        W42998   2.061  12.517  14.297  0.1001  0.1401 -0.1457
24145W        W42999  11.675  15.866  10.776  0.2563 -0.0937  0.0650
24146W        W43000  15.890   3.646   3.637 -0.3005 -0.4292 -0.1209
24147W        W43001   7.402  17.328   0.507  0.1253 -0.1542  0.0095
24148W        W43002   7.127   6.971   2.835  0.3195  0.0213  0.0624
24149W        W43003   6.515   7.415   2.098 -0.1477  0.0941 -0.0930
24150W        W43004   8.724  10.605  14.667 -0.7155 -0.2938 -0.0561
24151W        W43005  10.193   4.296   1.485  0.1338  0.0411  0.0418
24152W        W43006   5.537   5.646   4.744 -0.1189  0.0742 -0.1222
24153W        W43007   8.053   3.882  12.434 -0.0849 -0.1200 -0.1600
24154W        W43008   1.740   4.899  13.329  0.1940  0.3322  0.1172
24155W        W43009   2.993   3.527   9.604 -0.0461 -0.1280  0.2125
24156W        W43010  16.635  12.691  11.802  0.0357 -0.3484 -0.2149
24157W        W43011   2.432  18.503  11.922 -0.1732 -0.2123  0.1594
24158W        W43012  17.870   5.881  11.557  0.1227  0.1688  0.1706
24159W        W43013  16.482  18.956   0.641  0.1395 -0.2627  0.0433
24160W        W43014   4.616  15.578  13.435 -0.1977  0.0106 -0.2314
24161W        W43015   1.468  16.237   2.783  0.2041  0.1054 -0.1974
24162W        W43016   0.376  16.731   3.340 -0.0725 -0.2232 -0.1385
24163W        W43017  15.552  16.225   1.673  0.0128 -0.1139  0.0171
24164W        W43018   5.409  13.593   1.235 -0.0744  0.2470 -0.1651
24165W        W43019   1.242  12.211  12.793  0.2258  0.0295 -0.0377
24166W        W43020   6.566   7.957   1.958 -0.2410 -0.0432  0.1112
24167W        W43021   3.583  12.075   1.710 -0.2677  0.0577  0.3428
24168W        W43022  17.903   9.716  10.370  0.2922  0.0066 -0.1065
24169W        W43023   1.936   6.866   9.784 -0.0633 -0.0676  0.2272
24170W        W43024   5.225   5.710  11.508  0.0575 -0.0621  0.0549
24171W        W43025  12.763  15.514   0.674  0.0145  0.1610  0.1946
24172W        W43026   5.884  16.017  13.821 -0.1275 -0.2860 -0.0877
24173W        W43027  15.448  12.489   3.228  0.1028  0.4812 -0.2155
24174W        W43028   1.134   7.188  12.732 -0.0952  0.3901 -0.1218
24175W        W43029  10.038  15.757  12.045  0.0695 -0.0063 -0.0106
24176W        W43030  11.287   9.683   0.365 -0.0998  0.0068 -0.0775
24177W        W43031  14.425   0.447  12.396 -0.0199 -0.3337  0.0720
24178W        W43032   9.385  15.492   3.976  0.0031  0.1793  0.1191
24179W        W43033  17.617  14.625  12.915 -0.1283  0.1874 -0.1033
24180W        W43034   7.435  10.341   1.211 -0.1957 -0.0045 -0.3322
24181W        W43035   7.152  16.894  12.260 -0.1030  0.0608 -0.4230
24182W        W43036   3.613   8.934  13.487 -0.2688 -0.3491  0.3066
24183W        W43037  17.689   1.085  12.490 -0.0108 -0.0250 -0.0339
24184W        W43038  10.028  11.502   0.433  0.0508  0.0927  0.2516
24185W        W43039   2.206   4.686  13.141 -0.1456  0.0649  0.0643
24186W        W43040   8.244   2.158  10.599 -0.0583 -0.1601 -0.2459
24187W        W43041   5.994  14.943  11.628 -0.1306  0.0400 -0.1254
24188W        W43042  18.022  10.991  10.544 -0.1610  0.2353  0.0143
24189W        W43043  10.893   8.925  13.827 -0.0037  0.1040  0.0645
24190W        W43044   9.866   8.657   4.103  0.1257 -0.1707 -0.0889
24191W        W43045  13.335  11.906   0.063 -0.1158  0.1578 -0.1301
24192W        W43046   3.608  18.219   0.102 -0.0080  0.0270  0.1139
24193W        W43047   9.435   3.731   1.640 -0.0395 -0.0372 -0.0508
24194W        W43048   3.469  16.939  14.182  0.0561  0.1578  0.3093
24195W        W43049  13.938   5.375  12.096  0.0595 -0.1484 -0.1571
24196W        W43050  14.471   8.642  12.167 -0.2061  0.2211  0.1573
24197W        W43051   8.896   9.399   3.656  0.2104 -0.0011 -0.2849
24198W        W43052   8.936   8.207  14.031 -0.1653  0.1736 -0.3645
24199W        W43053   5.884  11.511  14.058 -0.1887  0.0658  0.0783
24200W        W43054   3.971  18.982  11.301 -0.0589  0.1185 -0.1289
24201W        W43055   1.973  15.747  11.139  0.5580  0.1070  0.1852
24202W        W43056  11.896   1.000  11.822  0.0528 -0.0666 -0.0533
24203W        W43057   0.371   5.349   3.457  0.0151 -0.0122 -0.0665
24204W        W43058  19.086   4.607  12.111 -0.1947  0.6131  0.0434
24205W        W43059  12.028  13.206  11.186 -0.0879 -0.1244  0.2582
24206W        W43060  17.364   5.350  11.017  0.3640  0.0095  0.0185
24207W        W43061  10.081  12.861   2.139 -0.1365  0.0688  0.1659
24208W        W43062  16.812  18.684   0.070  0.1710  0.0009  0.0679
24209W        W43063   5.337   8.186   1.128 -0.1316  0.0290  0.0312
24210W        W43064  15.529  15.863   9.628  0.0574  0.0836  0.0823
24211W        W43065  18.252  10.150  11.032  0.0286 -0.4150 -0.1675
24212W        W43066  11.459   8.882   1.783  0.1198 -0.1716 -0.0898
24213W        W43067  14.500  18.076  11.945 -0.0778 -0.0805 -0.0657
24214W        W43068  16.723   9.203   5.161  0.0281 -0.0607 -0.1639
24215W        W43069   2.389  10.198  13.461  0.0790  0.0895  0.1382
24216W        W43070  18.957  18.946  11.377  0.0635 -0.2679 -0.0059
24217W        W43071   0.149  13.557   2.863  0.1732  0.1776 -0.0095
24218W        W43072   3.358  15.298   2.903 -0.0699  0.1227 -0.0438
24219W        W43073   5.605  11.508  13.206 -0.0807 -0.3811  0.4805
24220W        W43074  18.690  13.779  11.505  0.1411 -0.0720  0.0040
24221W        W43075   7.905   2.851  10.271  0.1267 -0.0946 -0.0175
24222W        W43076  12.117  10.044  13.956  0.2691  0.1712 -0.2165
24223W        W43077  14.190  14.594   3.067  0.1685 -0.0027 -0.3820
24224W        W43078   9.213   2.866   2.630 -0.0069 -0.2158  0.3379
24225W        W43079   4.141   3.695   1.992  0.0421 -0.1808  0.0053
24226W        W43080   7.003   4.871  14.338  0.3372  0.0339 -0.0344
24227W        W43081   5.984  18.993   4.702 -0.0957 -0.0809 -0.2088
24228W        W43082   9.215   4.084   4.664  0.0720  0.4409 -0.0680
24229W        W43083   8.438   3.752  14.449 -0.1711  0.1747  0.0311
24230W        W43084   6.769   7.301   1.706 -0.0874  0.0705  0.3630
24231W        W43085  17.004   7.920   3.563  0.2685 -0.0092  0.0995
24232W        W43086  13.299   0.893   2.606  0.3772 -0.4236 -0.1305
24233W        W43087   8.014   4.979  13.153  0.0098 -0.1105 -0.0593
24234W        W43088   2.370  15.467   1.374 -0.0282 -0.0358 -0.2018
24235W        W43089  11.011   9.938   4.088  0.0007  0.0492  0.3148
24236W        W43090  15.685  17.314  13.479 -0.0030 -0.0715  0.0778
24237W        W43091   9.095  15.830   0.607 -0.0206 -0.1639 -0.0324
24238W        W43092  16.754   7.420   2.034 -0.2849 -0.0882 -0.2568
24239W        W43093   6.915   2.570   3.497 -0.2310  0.0370  0.1807
24240W        W43094   2.428   8.491   3.282  0.0726  0.0375 -0.3037
24241W        W43095  10.280  18.971  13.275 -0.1929  0.1689 -0.0466
24242W        W43096   7.716  17.209   2.471  0.1228  0.0555  0.1517
24243W        W43097   5.728   7.083  10.967  0.3020 -0.0381 -0.1367
24244W        W43098   5.600   3.943   4.029 -0.2153  0.0598  0.1786
24245W        W43099  11.983  14.606  13.563  0.1125  0.2299 -0.1665
24246W        W43100   6.065   1.876   0.311  0.0559 -0.0247 -0.2182
24247W        W43101   5.888   8.952  10.755 -0.0166 -0.0748  0.1253
24248W        W43102  18.763   4.776   1.426 -0.1293 -0.3090 -0.0569
24249W        W43103   8.967   2.447  12.162 -0.0826  0.0874 -0.2788
24250W        W43104  18.501   1.178   2.458  0.0275 -0.2862  0.0191
24251W        W43105   8.165   5.317  12.853 -0.1099 -0.0151  0.0326
24252W        W43106  19.061   8.400  14.729 -0.0431  0.0192 -0.2309
24253W        W43107  10.316   1.787   1.689  0.0079  0.1190 -0.0521
24254W        W43108  19.114  16.631  12.082 -0.0148 -0.1720  0.4723
24255W        W43109   4.305  18.317  13.282  0.2464  0.1453  0.1090
24256W        W43110   9.742  17.615   1.634  0.3386  0.0108 -0.1550
24257W        W43111  12.964   9.201   2.035  0.1996 -0.3432  0.2042
24258W        W43112   6.267   7.781   2.641 -0.0611  0.1489 -0.1313
24259W        W43113   9.581   7.205  11.158  0.0478 -0.2182 -0.2326
24260W        W43114  17.196   8.400   3.367 -0.1354  0.0512 -0.1366
24261W        W43115  16.398   3.348   2.725  0.2369  0.1360  0.3028
24262W        W43116  15.054   3.339   2.475 -0.1108 -0.0922 -0.2626
24263W        W43117  15.496  17.976   0.798  0.1182  0.2265  0.3730
24264W        W43118   2.875   1.888  10.907  0.1907 -0.1044 -0.1980
24265W        W43119   6.492  14.852  14.328 -0.1959  0.1298  0.1720
24266W        W43120   3.330   0.125   1.379 -0.0632 -0.0099 -0.2437
24267W        W43121   9.889   5.327   3.806  0.1970  0.1989  0.1138
24268W        W43122   6.564   1.832   2.323  0.1672 -0.0774  0.1377
24269W        W43123   1.458   9.772   3.487  0.0942 -0.0439 -0.0766
24270W        W43124   6.539   0.709   0.812 -0.1654  0.2817 -0.2269
24271W        W43125  17.045  19.064   1.372 -0.2604  0.1746 -0.2201
24272W        W43126  11.329  12.120   3.301  0.4561  0.0236 -0.0079
24273W        W43127  11.140   1.702   4.170  0.3779  0.1799 -0.4139
24274W        W43128   4.919   0.221   0.085 -0.2704  0.1407  0.1757
24275W        W43129  13.132   2.195  11.111  0.0432  0.2733 -0.2460
24276W        W43130   1.108  11.094  13.177  0.2648  0.1615 -0.0747
24277W        W43131  18.933  12.003  14.445 -0.1097  0.0921  0.0196
24278W        W43132  14.372   6.263   2.322  0.1389 -0.2920 -0.3672
24279W        W43133   7.289  12.769  11.734  0.0347  0.1174  0.1930
24280W        W43134  11.761  11.285   0.022  0.1727  0.2005  0.1258
24281W        W43135  11.321   4.388  13.318 -0.1199  0.0280 -0.0569
24282W        W43136  14.427   0.192   3.480 -0.0603  0.3910 -0.1232
24283W        W43137  10.546   7.743  12.157  0.5028  0.0206  0.1089
24284W        W43138  12.186   9.089  13.450 -0.1200 -0.3497  0.1829
24285W        W43139   9.860  17.689   3.070 -0.0182  0.3500 -0.3196
24286W        W43140   6.754  12.359   0.266  0.0051  0.0942  0.1923
24287W        W43141  14.924   9.003   0.414  0.3162 -0.0638  0.3844
24288W        W43142  14.235   9.109  11.875 -0.0896 -0.0439 -0.2021
24289W        W43143   3.420  18.677  13.520 -0.0870 -0.0064  0.2012
24290W        W43144  13.023  10.649  12.928 -0.0204 -0.1250 -0.0199
24291W        W43145   2.158   0.903   3.399 -0.2425  0.0937 -0.0508
24292W        W43146   9.013   1.202  14.111  0.0745 -0.0560 -0.2123
24293W        W43147  17.321  14.529  14.412  0.0239  0.3566  0.3126
24294W        W43148   5.082   2.700   3.415  0.0771 -0.0973  0.0318
24295W        W43149  10.157  12.573   3.723  0.0561 -0.0620  0.1157
24296W        W43150   2.403  16.489  11.772  0.2363 -0.1641 -0.1065
24297W        W43151   3.611   1.683  13.831  0.0921 -0.0095 -0.0849
24298W        W43152   8.215   5.291  10.897 -0.1401  0.2187  0.0624
24299W        W43153  16.385   8.452  11.894  0.2402  0.2013 -0.3313
24300W        W43154   9.562  16.765  14.376  0.0291  0.0814 -0.1758
24301W        W43155   4.377   3.555   1.567 -0.2517 -0.4318  0.0049
24302W        W43156   6.785  11.946  14.711 -0.1193  0.0470 -0.0236
24303W        W43157  16.897   6.627  13.528 -0.0801  0.1881 -0.0686
24304W        W43158  10.777   9.230   3.442  0.0871  0.3310  0.0099
24305W        W43159   8.278   9.027  13.648 -0.0691  0.0736 -0.0230
24306W        W43160  17.772   9.160   3.283 -0.3925  0.5201 -0.3849
24307W        W43161   3.883  10.928   9.444  0.0131  0.0787  0.0163
24308W        W43162  18.523   0.890  13.547  0.2430 -0.1118  0.4309
24309W        W43163   7.098   1.347   3.596 -0.3597  0.0578  0.2122
24310W        W43164  12.579  17.878  10.677  0.1899 -0.1081 -0.0142
24311W        W43165   0.051   8.875  11.356 -0.1404 -0.0631 -0.1540
24312W        W43166  17.499  18.313  13.277 -0.0575 -0.0304  0.0329
24313W        W43167   9.454   1.644  12.090 -0.3166 -0.1650 -0.0103
24314W        W43168   5.490   2.819   4.741  0.1039 -0.1300  0.1277
24315W        W43169  18.338   6.332  14.345  0.1807 -0.0565 -0.2522
24316W        W43170  16.649  10.302   2.459  0.0370  0.1642  0.0766
24317W        W43171   5.892  10.856  11.336  0.2102 -0.1774  0.4082
24318W        W43172   6.446   4.379   1.203 -0.2330  0.0069 -0.0989
24319W        W43173   7.435   3.639   2.244 -0.1632  0.0210  0.2246
24320W        W43174   5.949  15.625  14.201 -0.2737  0.1837  0.2691
24321W        W43175   0.218  11.204   2.979  0.2393  0.1518 -0.0095
24322W        W43176  10.432  15.582   3.614 -0.1057 -0.3214  0.3457
24323W        W43177   2.730  13.762  11.444 -0.3563  0.3480 -0.3810
24324W        W43178   1.188   6.055  14.706  0.1611 -0.0195  0.0472
24325W        W43179   8.602  12.676   1.554 -0.2387 -0.1741 -0.1013
24326W        W43180   6.324  18.091   2.048 -0.1369  0.1390  0.0664
24327W        W43181   2.476  12.365   2.418  0.0865 -0.0342 -0.1049
24328W        W43182   7.338  18.871   4.084 -0.0833 -0.1452 -0.0323
24329W        W43183  11.920   7.097  12.501  0.1547  0.0369  0.0034
24330W        W43184   3.860   2.618   3.503  0.0099 -0.0750 -0.1819
24331W        W43185   8.610   9.403   2.731  0.3227  0.2232  0.1374
24332W        W43186  12.834  14.577  14.191  0.2505 -0.0176 -0.0748
24333W        W43187  15.674   5.843   3.099  0.1387 -0.4030 -0.0887
24334W        W43188  16.064  18.604   4.229  0.0404  0.3508 -0.1800
24335W        W43189   1.095   7.890  11.448 -0.0305  0.2188 -0.0787
24336W        W43190   2.230  19.036   2.375  0.0577 -0.0302  0.0193
24337W        W43191  12.028  16.138  12.804 -0.0910  0.2549 -0.1307
24338W        W43192   6.093  10.274  12.457  0.0783 -0.0549  0.2430
24339W        W43193  10.121  14.191   0.084  0.3254  0.3012 -0.1493
24340W        W43194  17.112  11.009   2.644  0.0490 -0.4245 -0.0850
24341W        W43195   1.617   1.418   1.127 -0.6137  0.0592  0.1046
24342W        W43196  13.923   7.393   1.756  0.1683 -0.2515 -0.1076
24343W        W43197   3.445  13.973   0.365 -0.0185 -0.5602  0.2469
24344W        W43198   0.373  16.897  14.324  0.2495  0.0068 -0.0791
24345W        W43199   3.314   6.805   1.886 -0.0699 -0.0851 -0.2812
24346W        W43200   9.399   8.460   0.071  0.0853 -0.1914 -0.0414
24347W        W43201   6.484  11.725   1.927 -0.0171  0.0898 -0.1934
24348W        W43202   3.606  14.757  10.998 -0.3926  0.2055  0.0767
24349W        W43203   2.462   6.124   1.362 -0.3336  0.3512 -0.0930
24350W        W43204   6.037  16.422   4.052 -0.0965  0.0628 -0.1607
24351W        W43205  16.452  11.360   0.873 -0.3465 -0.0972  0.2289
24352W        W43206   7.680  11.781  14.403 -0.1806  0.1393 -0.0954
24353W        W43207   3.094   3.949  12.814 -0.1244  0.1610  0.2101
24354W        W43208   7.664  15.361  14.450  0.0384  0.0073 -0.2870
24355W        W43209  18.205   3.650  12.398  0.0150 -0.1509 -0.1860
24356W        W43210  17.855  16.119  13.213 -0.1157 -0.0463 -0.0716
24357W        W43211   6.014  17.719   0.917 -0.0905 -0.0349  0.0883
24358W        W43212   3.610  15.949   0.218 -0.0054  0.0997  0.0636
24359W        W43213  12.354  17.256   4.206  0.4539  0.1456  0.1638
24360W        W43214  18.101   9.554  11.003 -0.3136  0.0814 -0.2352
24361W        W43215  18.289  11.186  13.042 -0.1613 -0.2176 -0.1607
24362W        W43216  18.602   5.983   3.767 -0.0394  0.1178  0.2579
24363W        W43217  18.984  18.302  11.850  0.1989  0.0344  0.3053
24364W        W43218  18.090   9.388  14.526 -0.1755 -0.0474 -0.0896
24365W        W43219  11.092   1.333  10.654  0.1564  0.2588 -0.0872
24366W        W43220   6.794  17.220  13.131  0.3667 -0.3571 -0.2588
24367W        W43221   5.511  16.826  14.160 -0.0225  0.0691 -0.1784
24368W        W43222   4.719  15.672   4.544  0.0801 -0.0703  0.0948
24369W        W43223   4.626   9.280   1.200 -0.5058 -0.0465 -0.0243
24370W        W43224  10.970   9.395  14.172 -0.3017  0.0466  0.2635
24371W        W43225  17.876   3.886  12.762 -0.0685  0.0236 -0.4538
24372W        W43226   4.783  16.620   4.851 -0.5591 -0.0589 -0.0356
24373W        W43227   0.527  12.955  10.923 -0.3101  0.3668 -0.0283
24374W        W43228  15.768  17.166   0.366 -0.0772  0.1419  0.3361
24375W        W43229   3.203  15.892  14.155  0.0637 -0.1317  0.2700
24376W        W43230   0.328  15.595  11.722 -0.3443  0.0115  0.0813
24377W        W43231   5.794  15.049  11.191  0.2287  0.2793 -0.0216
24378W        W43232  18.047   5.646   2.125 -0.1853  0.1981  0.3478
24379W        W43233  12.824  11.764  11.042  0.0622 -0.0007  0.0598
24380W        W43234   4.781   9.912   4.415 -0.2543  0.2688  0.0390
24381W        W43235   0.113  19.099   2.782 -0.0248  0.2103 -0.2271
24382W        W43236  11.053   6.582   2.464  0.1311  0.0949 -0.1449
24383W        W43237  17.987  17.048   2.522  0.0931  0.0964  0.1849
24384W        W43238  13.769   4.570  12.478  0.1445 -0.0892  0.1380
24385W        W43239   3.492  17.588   4.168 -0.4199 -0.2078  0.2868
24386W        W43240  18.422   7.003   2.303  0.2687 -0.1639  0.5312
24387W        W43241  13.502   1.974   2.401 -0.0825 -0.1315  0.0701
24388W        W43242  15.385   9.694   0.716 -0.0504 -0.1119  0.1654
24389W        W43243  12.505  14.713   4.892  0.0733 -0.0437 -0.3026
24390W        W43244   6.429  18.942   0.657  0.1028 -0.0171  0.1127
24391W        W43245  18.848  14.511  12.657  0.4124  0.1888  0.0331
24392W        W43246  10.956   6.880   4.153 -0.0838 -0.1500 -0.1898
24393W        W43247   4.457   5.714   3.405 -0.0314 -0.0586  0.1067
24394W        W43248  17.055   0.529   3.856 -0.1199  0.0088 -0.2617
24395W        W43249  15.340   1.462  14.256  0.0548 -0.3496  0.0538
24396W        W43250   0.859  14.859   0.672  0.1666  0.0897  0.0135
24397W        W43251   7.234  10.608  10.312  0.4092  0.2474  0.1942
24398W        W43252   6.319   1.909  12.754 -0.1347 -0.0674 -0.1596
24399W        W43253  18.544   5.643  13.060  0.2124  0.0345  0.3808
24400W        W43254  17.641   4.374  14.244  0.1098 -0.1848  0.0450
24401W        W43255   3.930  15.500  11.542 -0.4564  0.0464  0.0817
24402W        W43256   6.507   5.338   4.877 -0.2937  0.2332  0.3138
24403W        W43257   7.490  16.328   3.261 -0.0435  0.0491 -0.1714
24404W        W43258  16.315  14.545   3.452 -0.0560  0.1018 -0.0958
24405W        W43259   4.459   1.039   3.196  0.0819 -0.1461 -0.1594
24406W        W43260   7.652   8.878   1.132 -0.0111  0.1064  0.1051
24407W        W43261   9.825   3.543   2.597  0.0415 -0.3442 -0.0387
24408W        W43262   6.815  12.691  14.038  0.2550  0.1673 -0.1595
24409W        W43263   7.341  13.592  12.545 -0.0909 -0.6746 -0.1484
24410W        W43264   5.009  17.576   0.733 -0.2657  0.0511  0.0343
24411W        W43265   1.233  16.225   9.638 -0.0131 -0.0295  0.0528
24412W        W43266   5.716   9.677  11.114 -0.0224 -0.0069  0.0705
24413W        W43267   1.458   2.530   3.111 -0.2493  0.3480 -0.0941
24414W        W43268   0.829   6.532  10.733  0.3296 -0.1111  0.5363
24415W        W43269   4.086   6.065  10.474 -0.0702 -0.0567  0.1846
24416W        W43270   4.154  17.884   1.049  0.0329 -0.2126 -0.0729
24417W        W43271   7.095   0.209  13.204  0.0760  0.2517  0.1122
24418W        W43272  12.466  17.559   2.352  0.0704 -0.2970  0.0458
24419W        W43273   8.166  16.134   3.671 -0.0217 -0.2956 -0.0177
24420W        W43274   7.443  12.806   9.933 -0.0450 -0.0635 -0.3170
24421W        W43275   0.519  15.029   2.519  0.0043 -0.0538 -0.2372
24422W        W43276   6.351  15.096  13.875 -0.1106  0.0322 -0.1994
24423W        W43277  18.609   8.683  13.798 -0.3284  0.0995 -0.0016
24424W        W43278   8.480  10.442  10.960  0.1992 -0.0874  0.0470
24425W        W43279   6.807  13.124   4.366  0.2004 -0.1471  0.0029
24426W        W43280  14.146  13.985   2.766 -0.2297  0.2474  0.0747
24427W        W43281  16.357   4.837   4.813  0.2948  0.0777 -0.0640
24428W        W43282   5.410   0.813   2.863 -0.1089  0.0575  0.0490
24429W        W43283  12.497  18.418   1.525 -0.1528  0.3012 -0.1355
24430W        W43284  15.816  18.189  11.563 -0.1657 -0.1286  0.2193
24431W        W43285  11.573  11.915   3.771 -0.1843 -0.1043  0.3223
24432W        W43286   1.650   7.022   2.049 -0.0540 -0.1140 -0.3122
24433W        W43287  13.450   7.343   4.511 -0.1393  0.2765 -0.0693
24434W        W43288  14.194  18.595   0.620  0.0437  0.0539 -0.1016
24435W        W43289   6.305   6.591  14.532 -0.1449  0.3289 -0.0226
24436W        W43290  12.771  16.623   3.181  0.1453 -0.0748  0.1886
24437W        W43291  14.313   1.790   0.031 -0.3875  0.0314  0.1863
24438W        W43292   6.136  16.637   3.372 -0.0789  0.0882 -0.0444
24439W        W43293  13.957   8.529  10.001  0.3090 -0.3890 -0.2224
24440W        W43294   5.339   3.568   3.446 -0.2078  0.0432  0.1684
24441W        W43295   0.357   9.602  11.965  0.5041 -0.2593  0.0258
24442W        W43296   3.159   3.213  13.439 -0.1024  0.0469 -0.2818
24443W        W43297   4.509   9.705  12.618  0.1311 -0.0747 -0.0832
24444W        W43298   0.518   1.561   2.352 -0.2191  0.2181  0.0447
24445W        W43299  14.580  10.386   1.914 -0.0556  0.0864  0.3087
24446W        W43300  11.697   3.841  11.930  0.0804 -0.0710  0.1048
24447W        W43301   4.035  12.939  10.646  0.3699 -0.1660 -0.0836
24448W        W43302   6.107   7.551  10.585 -0.1772 -0.2523  0.1276
24449W        W43303   9.984   9.932  11.132  0.0433 -0.1626  0.2821
24450W        W43304   5.807   6.180  12.588 -0.2048 -0.1800 -0.0869
24451W        W43305  11.388  17.415   0.969 -0.0257  0.1437 -0.2751
24452W        W43306   6.918   8.866  13.150 -0.2087  0.0547 -0.1386
24453W        W43307  11.998  16.088  11.410 -0.1065 -0.3414  0.3000
24454W        W43308   5.606  16.598   3.180 -0.0735  0.2883 -0.0465
24455W        W43309  15.204  18.325   2.439  0.0016  0.1745  0.1567
24456W        W43310   0.934   1.672   3.301  0.0185 -0.2794  0.3550
24457W        W43311   6.435  10.610  12.494 -0.0820  0.1112 -0.0650
24458W        W43312  16.161  10.840  12.169  0.0417 -0.0626  0.3068
24459W        W43313   3.310   8.901   1.910  0.1863  0.0255 -0.2408
24460W        W43314   9.438  19.119  11.363  0.2622 -0.3614 -0.1104
24461W        W43315   7.453  10.649  14.215 -0.0232 -0.2644  0.1006
24462W        W43316   4.677  11.372  11.008  0.0709 -0.1267 -0.3694
24463W        W43317   4.125  12.919  13.708  0.5619  0.2357  0.3183
24464W        W43318   2.791   9.908   2.556 -0.1916 -0.0231 -0.2978
24465W        W43319  17.774  13.530   1.198  0.0268 -0.3966  0.0606
24466W        W43320   8.572  10.224   0.220  0.2517 -0.1139  0.0565
24467W        W43321  14.681  11.995  14.210 -0.0319 -0.2615  0.3775
24468W        W43322   5.118   1.741   4.316 -0.1351  0.2947  0.0444
24469W        W43323  19.056   8.604  13.198 -0.1860  0.0796 -0.0796
24470W        W43324  17.024  15.580   3.477 -0.2914 -0.0539  0.1023
24471W        W43325   2.173  13.465   0.419 -0.0909 -0.1927 -0.5035
24472W        W43326   5.214   9.464   3.788 -0.0881 -0.1815 -0.2298
24473W        W43327  14.778   7.207   1.436  0.0668  0.0846  0.2839
24474W        W43328  18.858   1.715  12.036  0.1022 -0.0277  0.2362
24475W        W43329   3.574  18.501   2.728  0.2103 -0.0264 -0.0582
24476W        W43330   1.661  15.334   5.184 -0.0292  0.3276 -0.1266
24477W        W43331   6.730  15.161   3.461  0.2094 -0.1985  0.0566
24478W        W43332  18.505  10.461   1.350  0.0041 -0.2297 -0.3251
24479W        W43333  13.810  10.431   3.045  0.1371  0.1162  0.1272
24480W        W43334  12.075   8.035  12.923 -0.0202 -0.1053  0.0802
24481W        W43335   3.286  19.101  12.374  0.0246  0.0538 -0.0752
24482W        W43336  17.757  12.310  10.529  0.0958  0.0903 -0.1352
24483W        W43337  18.020   4.650   4.327  0.2566  0.1079 -0.1552
24484W        W43338   0.847  11.611   3.489 -0.2426  0.0236  0.0983
24485W        W43339  11.629   4.445   4.019  0.0594  0.4578  0.1934
24486W        W43340   0.213   9.759  14.060 -0.0118  0.1121  0.1238
24487W        W43341   8.338  10.388  11.657 -0.2900 -0.0333 -0.1148
24488W        W43342  17.134  10.513   0.266  0.0736  0.0110 -0.3980
24489W        W43343   9.658  17.751  10.360 -0.1428  0.1942 -0.1923
24490W        W43344   3.076  17.474   2.099  0.2114  0.2150 -0.2562
24491W        W43345  14.643   0.738   3.463 -0.0698 -0.0337  0.1511
24492W        W43346  14.719  19.004  13.913  0.0804  0.0580 -0.0920
24493W        W43347  10.186   2.097   3.119 -0.1242  0.2634 -0.3899
24494W        W43348   1.669  12.203  14.095 -0.3168 -0.0600 -0.0641
24495W        W43349  13.759   0.350   2.165  0.1162  0.0762 -0.3650
24496W        W43350   6.848  17.805  11.093  0.1954 -0.0415 -0.3199
24497W        W43351  13.169   9.126  13.809 -0.0577 -0.2509  0.0032
24498W        W43352  10.676   0.619  14.278  0.2326  0.0678 -0.0327
24499W        W43353  10.315  12.396   2.068 -0.3968 -0.2473  0.0784
24500W        W43354  17.360  17.100   0.775  0.1493  0.2015 -0.1033
24501W        W43355  17.080   7.125  13.643 -0.2943  0.0817  0.0351
24502W        W43356   5.913   1.098   1.996 -0.2245 -0.0166  0.0111
24503W        W43357   6.490  11.848  13.832 -0.1549 -0.2989  0.0318
24504W        W43358   5.508  17.645   0.872 -0.1955  0.2523  0.1636
24505W        W43359   0.908  15.333  12.519  0.1719  0.1616 -0.0689
24506W        W43360   1.856  14.486   3.813  0.3579 -0.0030 -0.1357
24507W        W43361   5.048  17.265  11.388 -0.2060  0.0945 -0.0662
24508W        W43362   4.392  10.454  13.753  0.1119  0.2011 -0.1233
24509W        W43363  18.016   5.248   1.809 -0.1804 -0.0815 -0.0982
24510W        W43364  15.569  14.625   2.917  0.1777  0.1853 -0.1572
24511W        W43365  17.778  18.494   0.849 -0.2649  0.3303  0.1265
24512W        W43366  19.057   9.409  14.149  0.0756 -0.5357 -0.2928
24513W        W43367  11.716   1.944  13.228 -0.2418 -0.0406 -0.1636
24514W        W43368   0.039   1.226  12.271  0.0546 -0.3067 -0.0437
24515W        W43369   6.697  19.000   1.526  0.2281 -0.1452  0.1841
24516W        W43370   9.667  12.492   3.670  0.0640 -0.2126  0.0687
24517W        W43371   2.112   9.106   3.732 -0.1637  0.3294  0.3253
24518W        W43372  11.110   1.469  13.948 -0.3930  0.1214 -0.0150
24519W        W43373   5.711  10.936   0.624  0.1354  0.1632 -0.0948
24520W        W43374   6.380   8.886  12.933 -0.2007  0.2076  0.0828
24521W        W43375   3.426   0.872  12.872 -0.0439 -0.3242  0.0114
24522W        W43376   9.257  16.057   3.159 -0.1775  0.0056  0.1550
24523W        W43377   3.186   4.065   4.221 -0.0676  0.0055 -0.3900
24524W        W43378  18.499   2.845  13.698 -0.0957  0.1468 -0.3957
24525W        W43379   5.850   5.605  10.283  0.0151 -0.3818  0.0746
24526W        W43380   0.932  13.348   2.363  0.0953  0.0717  0.1901
24527W        W43381  17.672  17.358  14.399  0.0548  0.0718 -0.2250
24528W        W43382   1.927  10.150  12.666 -0.2634 -0.1149 -0.3460
24529W        W43383  16.363  15.593  11.596 -0.1518 -0.0428 -0.3302
24530W        W43384   0.816   3.362  13.726 -0.0844  0.3007  0.0090
24531W        W43385   3.043   6.907  13.131  0.0518 -0.0488 -0.0366
24532W        W43386   1.978  12.388   2.539  0.0989  0.0847  0.1812
24533W        W43387   0.671  16.325   3.978 -0.1344  0.1320  0.0005
24534W        W43388   5.927   9.498  10.726  0.0317 -0.0503  0.0464
24535W        W43389   4.607  17.395  13.743 -0.0650  0.0979  0.2515
24536W        W43390   8.386   7.621   3.747 -0.1746 -0.0601  0.1662
24537W        W43391  14.799   9.579   9.541  0.1143  0.0010  0.0341
24538W        W43392   2.371  10.683   0.075 -0.0424 -0.3008  0.0438
24539W        W43393  15.958   5.548  10.045 -0.3469 -0.2404  0.0513
24540W        W43394   3.621  19.101  12.747  0.1252 -0.0374  0.2460
24541W        W43395  13.964   3.107   4.442  0.1376 -0.1621  0.1591
24542W        W43396  15.842   1.391   1.709  0.2572 -0.2279 -0.2021
24543W        W43397  10.312  16.408   3.002  0.0222  0.2821 -0.0427
24544W        W43398   0.514   8.214  14.510  0.2514  0.1892 -0.1685
24545W        W43399  16.246  16.928   2.732  0.0801 -0.1754 -0.1433
24546W        W43400   5.448   1.869   2.350  0.2395  0.4058 -0.0686
24547W        W43401  12.217  18.868  12.403  0.0981 -0.0756  0.0489
24548W        W43402   0.770  17.968   4.721  0.1189  0.0296  0.0277
24549W        W43403   5.344  13.347   3.547  0.1128 -0.3762 -0.0331
24550W        W43404  16.329   7.491   1.797  0.0802  0.4317 -0.1103
24551W        W43405  17.036  12.576   2.618  0.0384  0.3036 -0.0413
24552W        W43406  18.057   7.084   1.861  0.0493  0.1451 -0.1709
24553W        W43407   1.807   8.864   2.882 -0.2205 -0.0653  0.0746
24554W        W43408  11.014  18.888  11.080 -0.0726 -0.0289 -0.0357
24555W        W43409   6.433  16.723  14.475  0.0007  0.1446 -0.1891
24556W        W43410  13.712   1.981   2.892  0.0973 -0.0325 -0.0251
24557W        W43411  15.087  10.426  12.829 -0.1750 -0.1016  0.1682
24558W        W43412  16.390   3.882   1.816 -0.0559  0.1225  0.2081
24559W        W43413   7.007  11.222  13.909 -0.0312  0.0569  0.0950
24560W        W43414  10.280   5.693  13.537 -0.1762  0.0805 -0.1757
24561W        W43415  10.880  10.129   1.272  0.1275 -0.1356  0.3314
24562W        W43416  18.755   5.100  14.672  0.0745  0.1470  0.0594
24563W        W43417  16.181   3.353   4.074 -0.1824 -0.0957 -0.4285
24564W        W43418  15.644  15.873  12.456 -0.0400 -0.0734 -0.1035
24565W        W43419  14.086   6.504   1.992  0.2700  0.2344 -0.4576
24566W        W43420  14.751   2.014   3.978  0.0797 -0.1489  0.1046
24567W        W43421  17.914  17.975   2.835 -0.0758 -0.1802  0.0967
24568W        W43422  15.823   2.183   0.831 -0.0111 -0.1478 -0.3260
24569W        W43423  16.162   4.074  10.623 -0.2917  0.2013 -0.0950
24570W        W43424   5.180   8.220  13.530 -0.2085 -0.1301 -0.0927
24571W        W43425   7.633  15.026   4.146  0.0580 -0.1121 -0.1761
24572W        W43426  14.773   5.728  13.948 -0.3835 -0.0116 -0.3287
24573W        W43427  17.876   1.957  11.769 -0.0053 -0.4188 -0.1680
24574W        W43428  11.128  11.499  14.277 -0.2269 -0.1971 -0.0102
24575W        W43429  16.241  15.608   1.465 -0.0054 -0.0244 -0.0620
24576W        W43430   9.793  17.214   3.118  0.0107 -0.1033  0.0308
24577W        W43431  16.180   9.437   3.544 -0.1905  0.0209 -0.1967
24578W        W43432  15.917   6.503   3.379 -0.0596 -0.0709  0.0635
24579W        W43433  17.298  16.741   1.796 -0.0541  0.1234 -0.0863
24580W        W43434  19.138   4.921  14.200 -0.2727  0.0413 -0.1998
24581W        W43435  17.084   4.459  14.219 -0.2821  0.0291 -0.2377
24582W        W43436  12.974   0.460  13.203 -0.1737 -0.4204 -0.1042
24583W        W43437   9.847  13.613  11.964 -0.0014 -0.1471 -0.0417
24584W        W43438  12.022  13.128  11.666  0.0442  0.0278 -0.0067
24585W        W43439   1.676  17.108  11.341 -0.1716  0.3472 -0.1845
24586W        W43440  11.039   2.605  10.790  0.2014 -0.2645 -0.0516
24587W        W43441  13.274   1.651   3.267 -0.1390  0.1713 -0.1436
24588W        W43442  16.363   0.688   2.406 -0.3956  0.0352  0.3216
24589W        W43443   9.393  14.810  10.816  0.2783  0.1357  0.0997
24590W        W43444   4.624  16.903  11.380 -0.3696  0.0620 -0.0465
24591W        W43445   2.117  17.252  14.200 -0.3319  0.0938 -0.2202
24592W        W43446   8.894  13.021   9.660  0.1233 -0.2807 -0.0543
24593W        W43447   1.880  14.464   2.591  0.1824  0.1326 -0.0833
24594W        W43448   6.488   1.751  14.154  0.0027 -0.1335 -0.0353
24595W        W43449  15.207   9.274  10.765  0.0756 -0.0225 -0.2907
24596W        W43450   8.108  10.120  10.333  0.1645 -0.1869  0.0080
24597W        W43451   5.559  12.610   0.165 -0.1655 -0.1251  0.0798
24598W        W43452  17.954  13.546   0.734  0.1361  0.4312 -0.1467
24599W        W43453   2.329   1.922  11.935  0.1527  0.0564  0.2492
24600W        W43454  10.512  11.867   0.871  0.2120  0.1086 -0.0826
24601W        W43455  17.394   0.886   2.319  0.3786  0.1815  0.0150
24602W        W43456  14.985  12.622   3.315 -0.0506  0.1894 -0.2424
24603W        W43457   6.123  13.144  11.853  0.1270  0.1323  0.0591
24604W        W43458   2.986  14.075   2.500 -0.1974 -0.2511  0.0667
24605W        W43459  15.808  18.272  10.592  0.3436  0.3019 -0.1409
24606W        W43460   2.931  17.360  12.061  0.2362  0.2378  0.3554
24607W        W43461   6.440   5.772   4.486 -0.0178  0.2983  0.1060
24608W        W43462  14.294  17.416  11.923 -0.2543 -0.0402 -0.1564
24609W        W43463  11.912   1.591  12.966 -0.0005 -0.3668 -0.1903
24610W        W43464  17.823  14.901   3.047 -0.1513 -0.0940  0.1801
24611W        W43465  13.729  11.363   2.601 -0.4592 -0.1659  0.1770
24612W        W43466   4.884   4.939  10.136  0.0769  0.3097 -0.1140
24613W        W43467  16.499  11.699  13.800  0.2614 -0.4031 -0.0444
24614W        W43468   2.615   7.185  10.655 -0.2449  0.4033 -0.2430
24615W        W43469  14.980  17.703   4.415 -0.0465 -0.1548  0.3140
24616W        W43470   7.775  17.699   0.391  0.2075 -0.1828 -0.1117
24617W        W43471  11.814  14.717   1.559 -0.1772 -0.0428 -0.1708
24618W        W43472   5.072   6.347  14.011  0.2279 -0.1999  0.0737
24619W        W43473  13.492   7.146   0.717  0.0406  0.0797  0.0906
24620W        W43474  17.646   7.392   0.545 -0.1038  0.1971  0.2139
24621W        W43475   9.218   4.428   1.002 -0.0863 -0.0899  0.1309
24622W        W43476   9.533  16.230  13.641  0.0273  0.1325  0.0557
24623W        W43477   8.366   8.408   2.267 -0.1101  0.0143  0.0402
24624W        W43478   2.490  16.322   3.811 -0.2586  0.0414 -0.0675
24625W        W43479   2.941  13.523   0.966 -0.3871  0.2459 -0.2178
24626W        W43480  10.696  15.109   3.761 -0.3041  0.2257  0.0591
24627W        W43481   6.131   6.009  10.807 -0.1625  0.2447  0.1347
24628W        W43482  18.380  10.599   1.862 -0.0027  0.1482 -0.1290
24629W        W43483   4.152  15.542   1.489 -0.1638 -0.1622 -0.0976
24630W        W43484   2.168  13.309   2.306 -0.0119  0.0246 -0.2072
24631W        W43485   0.571   4.308  12.646  0.0413  0.1496  0.2355
24632W        W43486   7.045  16.967  12.801  0.0470  0.1515 -0.0173
24633W        W43487   3.780  13.706  11.933  0.2064  0.0209 -0.2033
24634W        W43488  11.499   4.672  11.418  0.0005 -0.0052  0.0804
24635W        W43489  18.161  19.173  11.714 -0.3835 -0.0277 -0.2354
24636W        W43490   3.470  15.774  13.706 -0.1062  0.0605  0.0584
24637W        W43491  10.717  17.160   1.647 -0.3058 -0.2107  0.2674
24638W        W43492   9.003   1.055  12.582  0.0818 -0.2698 -0.1734
24639W        W43493  16.754   1.945  10.922 -0.1009 -0.1071  0.1652
24640W        W43494  14.886   7.681   0.202 -0.0105 -0.0585  0.0184
24641W        W43495  10.105  15.940   3.373 -0.2478 -0.2460 -0.0906
24642W        W43496   8.343   4.710  11.777  0.2065  0.1683  0.0782
24643W        W43497  18.701   5.480  12.161 -0.1506  0.2305 -0.0552
24644W        W43498  10.585   6.144   9.305  0.0290  0.1757 -0.0247
24645W        W43499  15.828   0.221  12.032  0.3533  0.0652  0.5455
24646W        W43500  12.053   7.639  13.309 -0.1499 -0.0846  0.0989
24647W        W43501  16.458   2.120   2.603  0.0149 -0.2043  0.0818
24648W        W43502  17.976  16.272  12.733  0.3287 -0.0670 -0.2798
24649W        W43503   6.945   4.170  13.911 -0.3235  0.0926  0.0380
24650W        W43504   8.334  17.826  11.039 -0.1172  0.0859 -0.2577
24651W        W43505  13.323   0.124  13.344  0.1431  0.2222  0.0562
24652W        W43506   8.993  17.829   3.995 -0.1404 -0.2244 -0.2855
24653W        W43507   2.083  10.535   3.960 -0.0022  0.0865  0.0482
24654W        W43508   5.855  13.447   1.971 -0.0072  0.2552 -0.1897
24655W        W43509   7.678  10.945   2.297 -0.0205 -0.1718  0.2483
24656W        W43510   5.679   9.401   3.115 -0.0448  0.0348 -0.1374
24657W        W43511   4.938   8.445  11.671  0.2018  0.1413  0.3185
24658W        W43512  18.936   1.999   1.942 -0.3186  0.2620  0.1878
24659W        W43513  16.484  15.033   2.820  0.3352  0.1297 -0.0775
24660W        W43514   3.559   2.078  14.216  0.1790 -0.0784  0.1670
24661W        W43515   4.017  11.031   3.522  0.0723 -0.0800  0.1723
24662W        W43516  16.469  10.696  10.974 -0.1527  0.0141  0.1004
24663W        W43517   2.190  13.780  12.624  0.0313  0.0730 -0.2376
24664W        W43518   5.151  11.312  12.852  0.4062  0.1063  0.3791
24665W        W43519   0.257   9.052  10.922 -0.0511 -0.0536  0.1623
24666W        W43520   4.687   0.796   4.771  0.2759 -0.3643 -0.0535
24667W        W43521   0.819   5.852   3.757 -0.1903 -0.1333 -0.0241
24668W        W43522   6.337  11.809  11.438 -0.0602 -0.0777  0.0602
24669W        W43523   5.805  10.771  10.300 -0.2965 -0.0174  0.3156
24670W        W43524   6.096   3.756   1.738 -0.2055  0.3238  0.0260
24671W        W43525  18.234  16.115   1.867 -0.1189 -0.1743 -0.1723
24672W        W43526   3.843  11.042   2.058  0.0427 -0.0930 -0.0289
24673W        W43527   1.962   4.270  12.840  0.3060  0.2896  0.0488
24674W        W43528  12.131   0.945   2.700  0.1783  0.0043  0.0360
24675W        W43529   7.441  14.841   2.624 -0.1798  0.0546 -0.0009
24676W        W43530  15.995  16.395   0.800 -0.2579  0.0535  0.0388
24677W        W43531   3.474  13.904   2.534 -0.2697  0.2176  0.1315
24678W        W43532  15.809   2.897   1.140 -0.1470  0.1779  0.2467
24679W        W43533  11.054   8.482   0.992  0.0805 -0.2576  0.2356
24680W        W43534   2.541  15.165   1.884  0.0559 -0.3144 -0.4044
24681W        W43535  17.272   0.677  12.210  0.3453  0.0710 -0.3061
24682W        W43536   9.052   4.763   0.594  0.1017 -0.0214 -0.0019
24683W        W43537  11.479  14.248  12.993 -0.2126 -0.0067 -0.3276
24684W        W43538  14.155  12.825  11.795 -0.0941  0.1414 -0.0506
24685W        W43539  11.430  18.150   2.432  0.0579  0.1765  0.1306
24686W        W43540  12.810   2.408   5.054  0.0337  0.1458  0.0147
24687W        W43541  18.773   7.577  11.238  0.1387  0.2608  0.0740
24688W        W43542   0.643   9.390  12.445  0.1025 -0.1425  0.2007
24689W        W43543  14.288  10.713   3.235 -0.1781 -0.3608  0.2330
24690W        W43544   7.218   7.455  13.978 -0.1287 -0.2600  0.2078
24691W        W43545   9.495   7.675  11.341 -0.0194  0.2099 -0.0113
24692W        W43546  15.638   0.278  13.623 -0.0625  0.0020  0.2264
24693W        W43547   7.203   9.932  13.238  0.0238  0.0310 -0.1256
24694W        W43548  11.212   3.718  11.599 -0.2277  0.4070 -0.0011
24695W        W43549   2.734   4.483  10.388 -0.2305 -0.3147 -0.0827
24696W        W43550  14.288   6.768   0.067 -0.3428 -0.0384  0.1393
24697W        W43551  11.324  17.813  12.572 -0.0898  0.0262 -0.2018
24698W        W43552   7.425   0.584  14.597 -0.2674 -0.1559 -0.0456
24699W        W43553  18.812  15.439   2.094  0.1030 -0.0813  0.1034
24700W        W43554   0.127   3.872   1.959 -0.0555  0.3446 -0.2076
24701W        W43555   5.906   7.987   0.442  0.0976 -0.1195 -0.1422
24702W        W43556  16.589  13.210   0.872 -0.0356  0.2449  0.1047
24703W        W43557  12.093   5.449  11.309  0.0384  0.1685 -0.1628
24704W        W43558   7.928  15.678   3.587 -0.1196  0.0529 -0.1067
24705W        W43559   2.460   7.363   4.101 -0.1445 -0.1302 -0.0008
24706W        W43560  10.653   1.377  12.606  0.0986  0.0720 -0.4835
24707W        W43561   8.054  10.676   2.039  0.2356  0.1435 -0.1446
24708W        W43562  17.049   8.450  13.447  0.0824  0.2664  0.1873
24709W        W43563   6.361  19.046  13.813  0.0807  0.0164 -0.0142
24710W        W43564  10.221   7.411   0.354 -0.1416  0.1453 -0.1169
24711W        W43565  12.154   0.444  13.556  0.1468 -0.1273 -0.1872
24712W        W43566   0.353   2.585   1.538  0.0897 -0.0848 -0.1206
24713W        W43567  18.067   8.676  10.750  0.0431 -0.1215 -0.2516
24714W        W43568   5.895   2.030   2.998  0.0464 -0.0881 -0.2503
24715W        W43569   7.801  11.874  10.850  0.1089 -0.1712  0.1367
24716W        W43570  14.480  16.573  12.532  0.1239  0.0805 -0.2149
24717W        W43571  11.661   9.584  13.499 -0.2961  0.0486 -0.0872
24718W        W43572  17.632   1.333   4.193  0.0596  0.2012  0.3767
24719W        W43573  16.390  13.586   2.646  0.0265 -0.2167  0.3898
24720W        W43574  15.652   3.414  12.197 -0.0393  0.1931  0.1106
24721W        W43575  18.123  18.811   0.022 -0.1595 -0.0748 -0.1794
24722W        W43576  19.107   4.677   0.079 -0.1717 -0.0151  0.2374
24723W        W43577  14.688  17.088  13.706 -0.0478  0.5400  0.2274
24724W        W43578  13.813  11.117   9.414  0.1041  0.0988  0.1938
24725W        W43579  10.347  18.688   3.614  0.0684 -0.1970 -0.2560
24726W        W43580  14.492  11.922  10.425 -0.0927 -0.1153  0.1589
24727W        W43581  16.690   0.797   1.650  0.2533  0.1029 -0.1954
24728W        W43582  12.374   1.497   4.559  0.0342 -0.0357  0.1647
24729W        W43583   4.052  13.262   1.361  0.1121 -0.4203  0.0750
24730W        W43584   5.819   4.255  12.497  0.0278  0.0390 -0.1867
24731W        W43585   0.199  15.756   2.976 -0.0434  0.1095  0.2218
24732W        W43586  17.656  14.221  14.691 -0.2797 -0.2363 -0.1053
24733W        W43587   4.346  19.155  14.172  0.0607 -0.0540 -0.0614
24734W        W43588  18.851  13.715   4.480 -0.4654 -0.0117  0.1276
24735W        W43589   2.083   9.422   3.027  0.3051  0.1993 -0.0734
24736W        W43590   6.631  14.533   2.712 -0.1448  0.0055 -0.1642
24737W        W43591  15.371   6.837  12.342  0.0165 -0.1724 -0.1356
24738W        W43592   4.917  18.035  10.814  0.2669  0.2123  0.0414
24739W        W43593   4.071  15.709   0.937  0.1858 -0.1304  0.0721
24740W        W43594  15.158  15.880   3.830  0.2020 -0.0536 -0.0795
24741W        W43595   9.778  11.647  14.200  0.2616 -0.2048  0.2026
24742W        W43596  14.386   5.653   4.404  0.0417  0.0512 -0.0674
24743W        W43597  19.180   2.127  12.745 -0.1975 -0.1087  0.1431
24744W        W43598   8.957  12.481   0.555  0.5187 -0.0144  0.1228
24745W        W43599   1.525  15.393  10.631 -0.1347 -0.0369  0.5650
24746W        W43600   5.283   5.741   3.305 -0.2170  0.4478  0.2660
24747W        W43601  16.949   1.575   3.645 -0.3957 -0.4098  0.2448
24748W        W43602  15.853  10.431   1.154 -0.0538  0.1300 -0.2239
24749W        W43603  15.584   3.614   4.833  0.3719  0.0661 -0.0798
24750W        W43604  15.296   9.241  14.687  0.0801 -0.0381  0.0862
24751W        W43605   0.022  10.437  13.713  0.2480  0.0817  0.0447
24752W        W43606   0.858  17.433   5.482 -0.0052 -0.0754  0.2621
24753W        W43607   8.317   0.647  14.175  0.4628 -0.2373  0.0806
24754W        W43608  18.551  17.519  10.025  0.0020  0.0604 -0.0229
24755W        W43609  18.701   7.129  13.830 -0.2446  0.2982 -0.0311
24756W        W43610   6.639   3.138   2.254  0.1579 -0.0125  0.1339
24757W        W43611  17.842   7.059   1.392  0.0005 -0.0014 -0.1788
24758W        W43612  19.112  16.046  13.219  0.2658 -0.0025  0.3957
24759W        W43613   9.761   4.111   1.763 -0.1219 -0.1536 -0.1993
24760W        W43614  12.774   9.276  11.591 -0.1553 -0.0163  0.1243
24761W        W43615  13.759   4.412   4.191 -0.1197  0.2868 -0.2354
24762W        W43616   3.646  18.768  13.086 -0.1125  0.0101  0.0634
24763W        W43617  11.108   7.413  10.349 -0.2698  0.1790  0.0618
24764W        W43618  11.251  14.050  13.477 -0.3874  0.1702 -0.2461
24765W        W43619  12.284  13.938  12.768 -0.1181 -0.3824  0.2789
24766W        W43620   8.205   2.823   5.198 -0.2360  0.2470 -0.1401
24767W        W43621  17.495  14.109  13.074  0.2386 -0.1521 -0.1323
24768W        W43622  13.982   4.861   1.342  0.0654  0.0607  0.0336
24769W        W43623   5.873  18.057  12.531  0.3278 -0.1424 -0.4667
24770W        W43624   5.459   1.040   0.057  0.6216  0.0037 -0.1144
24771W        W43625   7.971   0.890  10.896 -0.4848 -0.0301  0.0017
24772W        W43626   1.939  18.121  13.454 -0.0825 -0.0144 -0.2814
24773W        W43627  16.132  18.654  11.538  0.1576 -0.2395  0.0399
24774W        W43628  12.868  11.390   1.167  0.1527 -0.1441  0.3170
24775W        W43629  14.595   1.396   1.236 -0.4618 -0.1680 -0.2250
24776W        W43630  15.905   7.620   9.790  0.1227  0.0798  0.1003
24777W        W43631  13.610  15.464  13.091  0.1835  0.2316  0.0137
24778W        W43632   7.364  11.559  11.632  0.4903  0.0677  0.1082
24779W        W43633  15.616  16.253  12.064 -0.1329 -0.0060 -0.0716
24780W        W43634  18.913  17.762   2.097 -0.1318 -0.2643 -0.1833
24781W        W43635  11.896  14.267  12.224  0.4144 -0.3187 -0.0956
24782W        W43636  10.764  13.947   1.485  0.2811  0.4002 -0.0584
24783W        W43637   3.210   3.146  12.046 -0.0267  0.1342 -0.0714
24784W        W43638   4.350  12.459  13.620  0.2307  0.2924  0.1930
24785W        W43639  13.855  14.425  11.950  0.0964  0.0584  0.1751
24786W        W43640  12.593  15.578   1.187  0.0385 -0.0249 -0.1373
24787W        W43641   1.053  11.208  11.778  0.2901  0.1134 -0.0015
24788W        W43642  12.374  12.737  11.356 -0.2025 -0.3415 -0.0153
24789W        W43643   3.048   8.859   0.942 -0.1055  0.2574 -0.4921
24790W        W43644  18.879   0.131  12.738  0.2595 -0.0817  0.0178
24791W        W43645  18.409   1.873  10.927 -0.0432 -0.0942 -0.0826
24792W        W43646  18.464  14.370  12.291  0.0997  0.0028 -0.2375
24793W        W43647   9.937   0.874   2.647 -0.1077 -0.0110  0.2072
24794W        W43648   7.303   0.072  10.784 -0.0238  0.0772  0.0034
24795W        W43649  14.098  16.270   4.418  0.2469  0.2893 -0.1481
24796W        W43650   0.866   7.795  13.276 -0.1381 -0.0105 -0.0033
24797W        W43651   8.294  14.842  13.416  0.0802  0.0762  0.1912
24798W        W43652   5.649   7.061   0.624  0.0006  0.0614 -0.0097
24799W        W43653  11.629  17.231   1.445  0.1472 -0.0197 -0.2041
24800W        W43654  18.484  12.126   0.647  0.0471 -0.0310  0.0370
24801W        W43655   0.433   6.697   2.944  0.1689 -0.0182 -0.0587
24802W        W43656  15.639  18.566  11.783 -0.3640  0.5385 -0.2811
24803W        W43657  17.167  14.154   0.056  0.1226  0.1529 -0.1234
24804W        W43658  18.996   0.273  11.342  0.0835  0.2047 -0.1120
24805W        W43659  10.853   5.876   3.679 -0.1618  0.0727  0.0610
24806W        W43660  10.323   6.439  14.174 -0.1314 -0.3765 -0.2389
24807W        W43661   2.477   6.907   3.150 -0.1617  0.0991 -0.1707
24808W        W43662  17.902   0.225   2.842  0.1063  0.1778 -0.0789
24809W        W43663  11.722   0.685  14.449 -0.0560 -0.1758 -0.0596
24810W        W43664   4.155  12.856   0.371 -0.0079 -0.0772  0.1210
24811W        W43665   5.727   9.884   0.679  0.0433 -0.1527 -0.0580
24812W        W43666  16.188   3.871  14.401 -0.1552  0.1317  0.1138
24813W        W43667   8.708  18.240   1.135 -0.1612  0.1130  0.2537
24814W        W43668  14.075  16.556  10.887 -0.0742  0.1165 -0.1798
24815W        W43669  15.022  15.688  14.685  0.2512  0.1407 -0.0781
24816W        W43670   5.136   1.990  12.984 -0.2788 -0.0304 -0.1877
24817W        W43671   5.691  10.057   1.661  0.1166 -0.1259 -0.2846
24818W        W43672  15.994   8.778   2.761  0.2359  0.0436 -0.0276
24819W        W43673   8.264   3.450   2.705  0.1587 -0.1115  0.0223
24820W        W43674  16.727  11.294   0.200 -0.1356  0.1368  0.1511
24821W        W43675  14.251   1.035   1.315 -0.0748  0.0613  0.1051
24822W        W43676  18.004  12.465  12.110  0.0230 -0.1436 -0.1187
24823W        W43677  11.905   7.135   4.361  0.2133 -0.3153  0.2660
24824W        W43678   1.674   1.536  11.470 -0.1547 -0.0838 -0.1343
24825W        W43679  18.036   3.488   2.328 -0.1525  0.2425  0.2201
24826W        W43680   7.693   5.172  13.648 -0.4184 -0.3273  0.0720
24827W        W43681  10.368   6.707  12.498  0.2489  0.0783 -0.0941
24828W        W43682   9.098   4.746   4.023 -0.0047 -0.0755 -0.1381
24829W        W43683  11.866  17.612   3.350 -0.2618 -0.0188 -0.1296
24830W        W43684   5.541  13.829  13.493  0.0985  0.0659  0.0522
24831W        W43685   0.682   7.154   2.651  0.0577 -0.2803  0.1349
24832W        W43686   3.061   9.044   0.425  0.0449 -0.2884 -0.0083
24833W        W43687   2.883  12.784   2.127 -0.0639  0.2273  0.2769
24834W        W43688   1.888   4.626   3.235 -0.0503 -0.3930  0.2289
24835W        W43689  17.589  16.473  13.003 -0.1226  0.0455 -0.1504
24836W        W43690  11.156   5.815   1.085  0.1120 -0.1787 -0.0701
24837W        W43691   9.242  12.789   3.559 -0.0006 -0.1612  0.0971
24838W        W43692   6.784   5.257  14.558  0.3687  0.0078 -0.1426
24839W        W43693   4.076  13.965  10.854 -0.0552 -0.2864  0.0139
24840W        W43694  19.155   8.614   3.649  0.1326  0.1435  0.2416
24841W        W43695   0.234  13.159   4.559 -0.2848  0.1129 -0.1853
24842W        W43696   1.279  11.547   2.098  0.0043  0.2742 -0.2763
24843W        W43697  10.405   4.557  10.754 -0.2829 -0.0383  0.3066
24844W        W43698  15.854   8.397  13.432  0.0413 -0.0501  0.2354
24845W        W43699  16.010   5.423   0.087 -0.1517  0.0158 -0.0408
24846W        W43700   1.661   8.013   2.909  0.2472 -0.3358  0.0754
24847W        W43701   0.025  16.475   1.631  0.0458 -0.0422 -0.2236
24848W        W43702   6.936  17.651  13.340  0.2530  0.2675  0.1558
24849W        W43703  10.349  12.623   2.644  0.0355  0.1993 -0.2655
24850W        W43704  10.393  14.494  11.517  0.0264 -0.1203 -0.0367
24851W        W43705   0.604  18.151  12.603 -0.1474  0.1021  0.0684
24852W        W43706   3.145   0.370  11.566  0.3893  0.0547 -0.3865
24853W        W43707   0.797  18.951  13.300 -0.0531 -0.1289 -0.3562
24854W        W43708   7.498  13.238  11.735 -0.0705 -0.2370 -0.0715
24855W        W43709  19.003   4.916   3.018  0.3363 -0.1026 -0.2490
24856W        W43710   0.813   1.024   3.428  0.0149 -0.0059 -0.0630
24857W        W43711  11.106  17.094  10.822 -0.1469 -0.1388 -0.2483
24858W        W43712  11.777  12.192  13.018  0.0496 -0.3784 -0.3064
24859W        W43713  14.556   2.550  13.501  0.0794 -0.1575  0.0401
24860W        W43714   0.083  18.276  14.418  0.0684 -0.3103 -0.1439
24861W        W43715  18.899  17.234  11.082 -0.2917  0.0735  0.0861
24862W        W43716  13.882   8.636   1.067  0.0664  0.2138 -0.1344
24863W        W43717  11.670   1.079   1.349  0.0107  0.1833  0.2147
24864W        W43718  17.988  17.071  13.368  0.2075 -0.2337  0.1484
24865W        W43719  15.159  14.926   2.277 -0.1184 -0.0218 -0.1222
24866W        W43720   2.673  13.835  14.341  0.1989 -0.1115  0.0189
24867W        W43721  17.891   4.156   3.586 -0.3273 -0.0894  0.2169
24868W        W43722   2.963  11.416   3.663 -0.5965  0.0522  0.2549
24869W        W43723   2.133  14.975  13.460 -0.3200  0.0904 -0.0988
24870W        W43724   3.369   0.984   0.223  0.4003 -0.1155  0.2319
24871W        W43725  11.479  13.396  14.192  0.1008 -0.4784  0.0328
24872W        W43726   7.216   6.503  12.428 -0.0756  0.0137  0.1582
24873W        W43727   6.952  16.142   4.434 -0.1712 -0.1241  0.1411
24874W        W43728  17.608   4.362   2.221  0.0996 -0.2067  0.0016
24875W        W43729   1.923   3.452   2.932  0.0590  0.1592  0.2045
24876W        W43730   1.366  13.704  11.559 -0.0213  0.0296  0.2816
24877W        W43731   3.424  13.682   1.158 -0.0516  0.1701 -0.1643
24878W        W43732  12.440  17.701   0.147 -0.4328  0.1402 -0.0181
24879W        W43733   5.263  17.374  13.489  0.0847  0.0052 -0.2725
24880W        W43734  17.948  15.728  10.418  0.0241  0.0492 -0.2909
24881W        W43735  10.617   7.334   3.221  0.0488  0.2408  0.0001
24882W        W43736   9.128  10.213   0.035  0.0795  0.2723  0.0415
24883W        W43737   5.591   2.384   3.195 -0.2224 -0.0945 -0.3095
24884W        W43738  16.521   4.350  13.056  0.2486 -0.1085 -0.1090
24885W        W43739  11.077   7.082   2.281  0.1383  0.0057 -0.2984
24886W        W43740   5.512  16.630   0.086 -0.1283  0.1489 -0.0722
24887W        W43741   3.026   0.548  10.384 -0.0649  0.2310 -0.1831
24888W        W43742  11.770   2.961  14.004 -0.1591 -0.3000 -0.3016
24889W        W43743  11.811   3.243  12.676 -0.0356  0.5226  0.0057
24890W        W43744  15.965   7.150   3.877  0.1532 -0.1031  0.0444
24891W        W43745  13.297  16.780  12.559  0.3989  0.0714  0.2568
24892W        W43746   3.752   3.570  11.306 -0.1535 -0.2534  0.1623
24893W        W43747   3.623   0.321   2.008 -0.1848 -0.2005 -0.2765
24894W        W43748  14.630   4.263   0.376  0.0788  0.0090  0.0078
24895W        W43749  13.984  13.881   3.762 -0.0053  0.4288  0.0634
24896W        W43750   5.628   2.035  10.221  0.1447 -0.0636 -0.2035
24897W        W43751   3.369   2.982   2.318  0.2733  0.0053  0.2246
24898W        W43752  14.706  12.549  11.645 -0.0481  0.0555  0.3477
24899W        W43753  18.546  12.037   5.778  0.1768 -0.1503 -0.2786
24900W        W43754   8.058  10.678  10.627  0.1773 -0.3707 -0.0057
24901W        W43755  16.927  13.543   4.017  0.0270  0.4387 -0.2373
24902W        W43756  15.596   7.885   2.637  0.0073 -0.3353  0.1951
24903W        W43757   3.803  18.309  12.358 -0.1179  0.0286 -0.0471
24904W        W43758  18.494   9.800   3.061  0.1612 -0.2946 -0.0074
24905W        W43759  14.968   5.047   3.762 -0.2516 -0.2441 -0.4155
24906W        W43760   4.954   3.177  12.094 -0.0414  0.1237 -0.1729
24907W        W43761   5.825   1.486   1.176  0.1478 -0.1460  0.0001
24908W        W43762  10.717   1.003   3.209  0.1755 -0.0773 -0.1737
24909W        W43763  18.088  10.388   0.317 -0.0057  0.2029 -0.2651
24910W        W43764  10.981   2.656   4.213 -0.0017 -0.1585 -0.1289
24911W        W43765  15.750   7.914  13.316 -0.0292  0.1792 -0.1514
24912W        W43766   8.988   0.282  14.588  0.0681 -0.2924 -0.0013
24913W        W43767   5.450   1.020   9.920  0.0716 -0.1540 -0.0072
24914W        W43768   6.351  16.061   2.924  0.1540 -0.1246 -0.1643
24915W        W43769   5.291   0.587   1.167 -0.0227 -0.2530 -0.1420
24916W        W43770   5.589  14.655  10.762 -0.0188 -0.2364  0.0749
24917W        W43771   9.489   9.883  14.599 -0.0400 -0.2027  0.1390
24918W        W43772   3.707   5.759  11.619  0.3712  0.1203 -0.0579
24919W        W43773   4.441   1.580  11.742 -0.0118 -0.0504 -0.1320
24920W        W43774   9.245   2.415  14.462 -0.0886  0.3082  0.2271
24921W        W43775   3.344  17.426  11.002  0.0413 -0.2641  0.5931
24922W        W43776   1.966  11.115   0.060  0.0846 -0.2744  0.1786
24923W        W43777   3.752  13.619   1.562 -0.0764  0.0059 -0.0099
24924W        W43778  17.327   2.223   2.707  0.0377  0.1043  0.1193
24925W        W43779  10.855  16.074   2.709 -0.2939 -0.0996 -0.0243
24926W        W43780   0.640   1.138   0.152 -0.2567  0.0399  0.0726
24927W        W43781  16.144  15.508  13.557  0.1228 -0.1846 -0.1267
24928W        W43782  13.719   1.222  14.519 -0.0491  0.0646  0.2559
24929W        W43783  15.027   8.018   2.105  0.0946  0.0025 -0.0431
24930W        W43784  13.971   7.664   1.348  0.1551 -0.2714  0.3299
24931W        W43785   1.723   0.278  11.011 -0.2350 -0.0234  0.0507
24932W        W43786   4.150  16.267  13.498 -0.0735 -0.3586  0.1404
24933W        W43787  13.348  15.884  12.958  0.2385 -0.0374 -0.0535
24934W        W43788  14.521   3.649   3.789 -0.2052  0.0445  0.0598
24935W        W43789   8.027  16.002   0.530 -0.0552  0.1227 -0.2752
24936W        W43790   2.531  17.422  13.588 -0.1332  0.1943  0.3376
24937W        W43791  11.034   2.157  10.498 -0.0839  0.3386  0.0271
24938W        W43792  14.509  10.623   0.973  0.4046 -0.0022 -0.4229
24939W        W43793  15.581   6.081  13.761 -0.0935 -0.2043  0.0293
24940W        W43794   6.116  13.028   1.769 -0.0030 -0.0740 -0.0171
24941W        W43795  18.316   2.329   0.085 -0.1063 -0.1447 -0.1365
24942W        W43796  13.202   4.947   2.831  0.0157 -0.3328 -0.0863
24943W        W43797  10.537  13.114   4.613 -0.1215 -0.1914  0.2612
24944W        W43798  16.413   7.050  11.069 -0.3196  0.1184  0.2130
24945W        W43799  19.192   7.693   9.163  0.0046  0.2011  0.2341
24946W        W43800   8.700  12.638  13.048  0.0537  0.2568  0.2223
24947W        W43801  16.910  17.430   2.076  0.0645  0.2539 -0.1481
24948W        W43802  17.581  12.344   0.719 -0.0864 -0.1557 -0.1586
24949W        W43803   3.480  11.107  11.930 -0.1542  0.0049  0.2690
24950W        W43804   3.930  13.332   9.836  0.1613 -0.0674  0.1999
24951W        W43805   8.327  11.836   0.864  0.1092 -0.0547 -0.3261
24952W        W43806   3.705   3.028   3.042 -0.0419  0.1587 -0.0781
24953W        W43807  18.327   2.283  12.641  0.0651 -0.0052  0.1775
24954W        W43808  19.145  11.774   1.420  0.1535 -0.2911  0.1430
24955W        W43809  11.570  18.642   2.069  0.0574 -0.3553 -0.1060
24956W        W43810  14.727  15.404  11.953  0.0882 -0.1429 -0.2028
24957W        W43811  18.242  13.817   3.920  0.0681 -0.0561 -0.1308
24958W        W43812  13.119  13.546  13.120  0.2388  0.2598  0.0426
24959W        W43813   9.487  13.438   3.334 -0.0577  0.1193 -0.1522
24960W        W43814  11.737  17.307  11.823  0.0974 -0.0473 -0.1247
24961W        W43815   1.048   3.454   3.598 -0.2530 -0.0446  0.0757
24962W        W43816  12.658  17.739  11.246  0.4291  0.0371  0.4336
24963W        W43817   0.185   6.976   2.146 -0.0782 -0.2024 -0.2509
24964W        W43818  10.403  16.667  13.363 -0.1203 -0.0836 -0.2770
24965W        W43819  10.301  13.429   3.179  0.0929  0.1564  0.3961
24966W        W43820   7.064  14.860  13.178 -0.2800 -0.0839 -0.0332
24967W        W43821   0.212   6.725   1.508  0.0651 -0.0942  0.3229
24968W        W43822  10.186  18.590   1.586 -0.1025 -0.0578  0.1131
24969W        W43823   6.080   8.192  11.664 -0.1182  0.1637  0.1253
24970W        W43824   9.561  10.577   1.325  0.0958  0.2501  0.0341
24971W        W43825  15.448   7.645   0.950 -0.0078 -0.0462  0.0219
24972W        W43826  14.197  16.238  13.581  0.2304 -0.1253  0.0086
24973W        W43827  15.424  17.043   3.915  0.0447  0.1207  0.4557
24974W        W43828   1.267  10.101   3.183 -0.0567 -0.0673 -0.1290
24975W        W43829  16.406   9.163   2.667  0.0056  0.4273  0.1217
24976W        W43830  16.377  10.307  13.484 -0.2044  0.1246  0.0109
24977W        W43831  11.223  10.603   3.629  0.0368  0.1873  0.0609
24978W        W43832   6.355   5.070  12.330 -0.1336 -0.0092 -0.2106
24979W        W43833   3.802   5.267  11.679 -0.0432 -0.1615  0.0834
24980W        W43834  16.456   5.557  10.405  0.0628 -0.1657  0.3278
24981W        W43835   6.654  14.965   5.091 -0.0741 -0.1363 -0.0207
24982W        W43836   1.756   0.413   3.047 -0.0820 -0.1779 -0.1043
24983W        W43837   5.209   9.891  11.116 -0.0465  0.1447  0.2725
24984W        W43838  17.013  12.624   3.893 -0.0288  0.2850  0.3346
24985W        W43839   8.130   8.822   2.566  0.2043  0.2530  0.0050
24986W        W43840   1.161  15.411  14.629 -0.0219  0.0154 -0.1863
24987W        W43841  13.148   1.139   9.797 -0.1373  0.0926  0.2858
24988W        W43842  17.169   4.985  10.204 -0.2444 -0.0027 -0.1082
24989W        W43843   1.147   4.134  14.263 -0.0449 -0.0740 -0.0099
24990W        W43844   8.843  17.265   2.758 -0.1427 -0.0169  0.1390
24991W        W43845   9.268   9.368  14.713  0.2582  0.2066 -0.3861
24992W        W43846   1.798   9.879  11.175 -0.1907 -0.1260 -0.0825
24993W        W43847   4.250  11.131  14.219 -0.0677  0.4348  0.2575
24994W        W43848  16.296   9.154   0.989 -0.0860 -0.2695  0.2212
24995W        W43849   0.732  15.505   3.549 -0.1767  0.0698 -0.2952
24996W        W43850   3.626  10.674  12.120 -0.4043  0.1157 -0.0128
24997W        W43851   3.661   7.651  13.521 -0.0698  0.0076  0.0092
24998W        W43852  18.108  15.495  10.919 -0.3668 -0.0996 -0.3532
24999W        W43853  13.784   6.424  13.975 -0.0627  0.1217 -0.1072
25000W        W43854  10.750  19.081   3.542  0.1193  0.0869  0.0088
25001W        W43855   8.468  11.379   0.754  0.3081 -0.4189  0.0781
25002W        W43856   6.930  13.854  11.643  0.0482 -0.2126  0.2885
25003W        W43857   3.901   4.624  14.677 -0.0541 -0.0546 -0.2480
25004W        W43858   9.852   5.401   2.068 -0.1570  0.0078 -0.3443
25005W        W43859   8.991  15.503  13.638 -0.1330 -0.2170 -0.4080
25006W        W43860   3.279   5.297   3.960  0.1675 -0.0366  0.0672
25007W        W43861   4.883   7.054  14.024  0.1490  0.1910 -0.3551
25008W        W43862  13.307   5.900  11.878 -0.1708  0.0076 -0.0276
25009W        W43863   2.841  14.897   5.287  0.1348  0.1300  0.1526
25010W        W43864  18.814  15.584   1.592  0.1957  0.0988 -0.1500
25011W        W43865   2.117  12.685  12.789  0.0816  0.0053  0.0662
25012W        W43866  15.588  15.822   4.619 -0.1646  0.1499  0.2069
25013W        W43867   0.911   3.501   2.762  0.0053 -0.0019  0.2583
25014W        W43868   1.191  10.364  11.601  0.1939  0.0122  0.0919
25015W        W43869   9.535  14.564   0.773 -0.2045 -0.0996 -0.2012
25016W        W43870   3.364   1.036  14.423  0.2822 -0.0654  0.0796
25017W        W43871   5.787  16.448  11.211 -0.1524  0.2439 -0.0856
25018W        W43872   2.485  12.469   1.466 -0.0963 -0.1203  0.2261
25019W        W43873   4.786  10.721   4.109  0.0905 -0.0986 -0.4035
25020W        W43874   1.688  17.182  10.840 -0.2245  0.0777 -0.1574
25021W        W43875   2.778  15.055   3.709 -0.0565  0.1741  0.1366
25022W        W43876   5.242   8.780  13.334 -0.2663  0.1020 -0.1635
25023W        W43877   9.634  14.673  11.304 -0.1785 -0.1568  0.1349
25024W        W43878   5.016   0.618  13.337  0.0808  0.4561 -0.1458
25025W        W43879   8.719   4.851  10.737 -0.0157 -0.0661  0.0508
25026W        W43880  18.631   6.722  11.792  0.0041  0.2854  0.1659
25027W        W43881  14.204   5.018  11.061 -0.3450  0.0480 -0.2199
25028W        W43882  16.134   8.560  12.997  0.3312  0.1172 -0.4245
25029W        W43883  16.256   4.822  13.133  0.0793 -0.1041 -0.0584
25030W        W43884  16.557   3.570  11.752 -0.2544 -0.3338  0.3200
25031W        W43885  10.547  13.395   3.574  0.2308  0.1252 -0.1136
25032W        W43886   1.652  11.745   0.709 -0.2918 -0.1131 -0.0166
25033W        W43887  17.986   5.234  12.735 -0.2117 -0.0883  0.0698
25034W        W43888   5.923  15.510  13.306 -0.1579 -0.0265  0.0710
25035W        W43889  14.523   4.207   3.600  0.0952 -0.4042  0.2330
25036W        W43890   7.301   9.736  13.685  0.1155 -0.0204 -0.0647
25037W        W43891   9.133  11.017  13.056  0.0027 -0.4674 -0.0591
25038W        W43892  11.847   0.209   4.195 -0.3593  0.4138  0.0054
25039W        W43893   7.550  14.829  10.685  0.1166 -0.0271  0.3521
25040W        W43894   3.678  11.598   2.305 -0.0260 -0.2394 -0.1328
25041W        W43895   6.301   5.870   3.559  0.0943  0.1982  0.2251
25042W        W43896   5.380  13.330   3.009 -0.0006 -0.3717  0.0741
25043W        W43897   3.617  13.922  11.022 -0.0754  0.1417 -0.4620
25044W        W43898   7.517   6.836  12.122  0.1075 -0.0838  0.0091
25045W        W43899   3.792  10.804  13.688 -0.1074  0.0341 -0.3642
25046W        W43900   9.886   3.871   1.332  0.0335  0.3262  0.2902
25047W        W43901  13.283   7.413   5.059 -0.1503  0.2599 -0.1960
25048W        W43902  18.386   8.113  12.131  0.1475  0.0352  0.3194
25049W        W43903  11.164  17.409   1.494  0.0076  0.0395 -0.0649
25050W        W43904   0.459  10.314  12.368 -0.0739 -0.0203 -0.0857
25051W        W43905  13.785  10.940  12.470 -0.3011  0.2634 -0.0941
25052W        W43906  17.247   0.666  14.498 -0.0585 -0.4139  0.0706
25053W        W43907   0.893  14.723   3.163  0.1453 -0.0215  0.2531
25054W        W43908  17.877  14.804   1.215 -0.3031  0.0547  0.1949
25055W        W43909  18.585   6.586   0.735 -0.0858  0.4079  0.0379
25056W        W43910  16.860   6.138  11.797  0.1277  0.1246  0.3271
25057W        W43911   7.144   5.635  11.371 -0.3509 -0.2639 -0.0494
25058W        W43912   8.204   4.905   3.656 -0.0036 -0.0425 -0.2143
25059W        W43913   5.540   7.520  10.665 -0.0392  0.3182  0.3619
25060W        W43914   0.499  15.593  12.522 -0.1199  0.2354 -0.1231
25061W        W43915  13.779  16.736   1.285  0.1146  0.1942 -0.1161
25062W        W43916   4.393   0.428   1.664  0.2915 -0.0930  0.0990
25063W        W43917  13.136   9.194   9.440  0.1684  0.0601 -0.1007
25064W        W43918   6.372  18.062   0.658  0.0149  0.0950 -0.1670
25065W        W43919   3.459   1.596   0.883  0.3833  0.1552 -0.2899
25066W        W43920   0.666  15.535  11.146  0.0891 -0.0079 -0.0110
25067W        W43921   2.872   2.026   3.472  0.0415  0.3288 -0.0874
25068W        W43922   9.837   7.017  10.710  0.3820  0.2700 -0.0459
25069W        W43923  17.528   7.262  13.334  0.1526  0.0778  0.1501
25070W        W43924   5.820   0.643   9.850  0.0553 -0.2076  0.2165
25071W        W43925  11.711   9.213  11.909  0.0260 -0.3002  0.2275
25072W        W43926  16.686   7.024  11.599  0.1257 -0.3089 -0.2458
25073W        W43927  15.334   6.804   1.830 -0.1260  0.2035  0.0005
25074W        W43928   2.320   0.167  13.842 -0.1345 -0.0369 -0.1513
25075W        W43929   6.301   8.948   3.386  0.0022 -0.2234  0.0879
25076W        W43930   5.795   5.062   3.465  0.3461  0.0158  0.0972
25077W        W43931  10.224  14.936  11.611  0.0759 -0.1582 -0.1037
25078W        W43932  13.300  11.069  12.776 -0.1574  0.7195 -0.3505
25079W        W43933   1.379   4.654  14.250  0.2398 -0.2631 -0.0601
25080W        W43934  12.641  11.111   3.973  0.0798  0.4004  0.0693
25081W        W43935  14.723   1.689   0.827 -0.0052  0.2209  0.0261
25082W        W43936  14.499  12.334  10.951 -0.0449 -0.0893 -0.0507
25083W        W43937   4.559   1.542   1.002  0.0604 -0.3838 -0.1790
25084W        W43938  13.403   7.028   3.560  0.1409  0.0050  0.3880
25085W        W43939  10.608  15.528  11.511 -0.1698  0.4389  0.0315
25086W        W43940   8.562   4.371   0.453 -0.1783  0.5950  0.0619
25087W        W43941   9.787  15.588  14.150  0.2447  0.0070 -0.0969
25088W        W43942  14.183   5.396   2.587 -0.0544  0.1307  0.1265
25089W        W43943   2.121   3.892  10.531 -0.1255 -0.1281  0.2180
25090W        W43944  11.441   9.907   2.648  0.0330  0.0291 -0.1093
25091W        W43945   1.808   2.300  12.559  0.0175 -0.0407  0.1412
25092W        W43946  13.839   2.677  11.631  0.1799  0.0693 -0.1371
25093W        W43947   6.297   8.059  10.718  0.0877  0.2473 -0.1399
25094W        W43948  16.404   8.373   1.722 -0.0880 -0.0422  0.2013
25095W        W43949  17.363   7.029  10.746  0.0566 -0.2080 -0.1331
25096W        W43950  15.729   1.044  11.632  0.1245  0.0221  0.1333
25097W        W43951   0.483   3.105   2.259  0.1927 -0.0505 -0.3323
25098W        W43952  11.750   2.133  10.486  0.0433  0.1508  0.1877
25099W        W43953  16.723  15.995   0.142 -0.3022 -0.0007 -0.0701
25100W        W43954   0.448  18.272  13.609  0.0539  0.3318  0.0721
25101W        W43955   2.767   7.658  10.521  0.1184 -0.2071  0.1333
25102W        W43956  14.822   3.602   0.552 -0.0590 -0.0664  0.1376
25103W        W43957   9.946   4.550  11.956  0.0346  0.1480 -0.0646
25104W        W43958  15.827   3.986   0.111 -0.1289  0.2732  0.0290
25105W        W43959  13.995  14.641   2.193  0.0067  0.0059  0.0137
25106W        W43960   3.278   2.200  12.422 -0.0293 -0.0049  0.1811
25107W        W43961  12.421  11.759   4.823 -0.1881  0.1680  0.1032
25108W        W43962   1.869  14.595  13.882 -0.2272  0.1103  0.1276
25109W        W43963   3.819  11.288  12.930  0.3085  0.0989 -0.1564
25110W        W43964   8.248   7.118  11.242  0.1166  0.0242 -0.2377
25111W        W43965  15.280  14.645  11.582  0.3009  0.0714 -0.1658
25112W        W43966   5.515   3.852   3.034  0.2063 -0.1587  0.3114
25113W        W43967   0.105  12.387   3.526  0.2130  0.0304  0.0571
25114W        W43968  16.614  13.885  12.767 -0.2458 -0.2038 -0.1633
25115W        W43969   3.853  14.582   0.490 -0.4837 -0.2229  0.1805
25116W        W43970   1.050   1.969   4.038  0.0322  0.0041  0.0464
25117W        W43971   5.219  14.516  10.440  0.1494 -0.0541 -0.3193
25118W        W43972  11.514  18.769   4.244 -0.0123 -0.0199  0.1683
25119W        W43973   5.694  13.327  12.690 -0.0153  0.1478 -0.0043
25120W        W43974  18.088   8.349  13.360  0.0776 -0.0266  0.0217
25121W        W43975  11.026  16.961  14.042  0.3502  0.0568 -0.1929
25122W        W43976  16.531  12.755  10.902 -0.3645  0.3706  0.3532
25123W        W43977   5.024   8.781   2.370 -0.1951  0.0879 -0.0873
25124W        W43978  18.073  18.919   3.840 -0.2003 -0.0031 -0.2515
25125W        W43979  11.651  10.956   0.941 -0.0199 -0.4859  0.0742
25126W        W43980   9.003   5.294  13.624  0.3498  0.3393 -0.2923
25127W        W43981   8.249  16.712  11.055  0.2905  0.0449  0.2168
25128W        W43982  18.237   7.356  12.920 -0.1130 -0.2044  0.1735
25129W        W43983   5.593   3.285   2.855  0.0533 -0.0920 -0.2748
25130W        W43984   2.923  12.185  13.953  0.0416 -0.1726  0.1008
25131W        W43985   2.830   4.414   2.222  0.3169 -0.1839  0.1211
25132W        W43986  15.885  14.222   3.545 -0.0868  0.1435  0.3976
25133W        W43987   2.066   8.363   0.028  0.0693  0.0137  0.0771
25134W        W43988  12.727  14.352   1.707  0.2743  0.2492  0.2392
25135W        W43989   7.080   4.315  11.384 -0.0876 -0.1771 -0.2348
25136W        W43990   5.061  10.365   0.665  0.1990 -0.0031  0.1043
25137W        W43991  13.231  18.536  14.443 -0.0159  0.0402 -0.1290
25138W        W43992  14.995  15.512   4.117  0.1183 -0.0414  0.1009
25139W        W43993  13.312  10.328  14.074 -0.1556  0.3811 -0.0076
25140W        W43994  12.528   0.372  10.992  0.0311 -0.0270  0.2155
25141W        W43995  10.203   1.627   0.156 -0.2396  0.4589 -0.3034
25142W        W43996  14.022   9.062  12.296 -0.0774 -0.2437  0.2490
25143W        W43997   6.468   8.727  13.408 -0.2124 -0.0266 -0.0026
25144W        W43998  11.603  11.851   1.564 -0.3010  0.1646 -0.0052
25145W        W43999  15.357   1.779  13.833  0.0882  0.3852  0.2710
25146W        W44000  19.038   2.427  14.177  0.2657 -0.1529 -0.2120
25147W        W44001  19.159  14.601  13.542 -0.1031  0.2093 -0.0430
25148W        W44002   6.132   9.775   1.773 -0.3804  0.0020 -0.0302
25149W        W44003   9.731  18.838  11.057 -0.0920  0.2289 -0.1545
25150W        W44004  10.085  16.294   2.561 -0.0084  0.3429 -0.0909
25151W        W44005  11.200  13.524   1.467  0.0472 -0.0527  0.1296
25152W        W44006   9.691   9.552  11.841  0.0052 -0.2975  0.1594
25153W        W44007   1.193  17.802   1.624 -0.0628 -0.1585 -0.3205
25154W        W44008   0.030  14.920   2.523 -0.1392 -0.0266  0.0766
25155W        W44009  11.304   3.135   0.982 -0.0616 -0.4362 -0.2282
25156W        W44010  19.007  14.958  11.217  0.3181  0.1701 -0.0428
25157W        W44011  16.309   8.228   1.209 -0.1148  0.0190  0.2060
25158W        W44012   4.532  13.430   4.049 -0.3003 -0.1747 -0.1454
25159W        W44013   0.067   8.805  13.942  0.0316 -0.0869 -0.0056
25160W        W44014  14.790   8.118  12.844  0.0270  0.1770 -0.0736
25161W        W44015   3.763  15.510  13.396  0.2978 -0.1932  0.1047
25162W        W44016   4.755  12.603   2.233 -0.3666  0.4573 -0.1343
25163W        W44017   5.535  10.800   3.324  0.0511  0.0465 -0.2370
25164W        W44018   5.855   3.284   0.266  0.1015  0.0754 -0.2586
25165W        W44019  12.143   0.722  10.602  0.1889 -0.0358  0.1393
25166W        W44020  12.863  16.352  12.403  0.2986  0.0407 -0.0777
25167W        W44021  18.272  11.013   2.164 -0.3319  0.2545 -0.1725
25168W        W44022  18.269   1.253  11.203  0.0539 -0.1498  0.2456
25169W        W44023   0.308   6.597  10.468 -0.0403  0.0363 -0.0898
25170W        W44024  18.097  19.137   2.419  0.1367 -0.3251 -0.2426
25171W        W44025  18.720  16.663   0.086  0.0652 -0.1630  0.2113
25172W        W44026   3.390  12.445   3.383  0.1304  0.0879  0.0030
25173W        W44027   7.565   1.871  11.249 -0.1522  0.1242 -0.0984
25174W        W44028  16.569  13.408   3.686 -0.1518  0.0644 -0.0967
25175W        W44029  13.136  12.696  13.882  0.0275 -0.0728 -0.0431
25176W        W44030  18.611  18.662  13.659 -0.1932 -0.0715 -0.1723
25177W        W44031  12.071   3.058   9.870  0.0927  0.1297  0.1836
25178W        W44032  10.968  17.026   5.229  0.0578  0.0498  0.1941
25179W        W44033  18.547   5.592   0.745 -0.2519  0.1349  0.1132
25180W        W44034  12.591   7.109  11.894 -0.0047 -0.1143 -0.3867
25181W        W44035   1.471  16.669  13.434 -0.0881 -0.0466  0.2260
25182W        W44036  10.604   8.706  12.351  0.0609  0.3167  0.1262
25183W        W44037   6.505  17.017  12.273 -0.0030 -0.0027 -0.2943
25184W        W44038  15.728   5.588   4.066 -0.0486  0.0443  0.2351
25185W        W44039   0.069  15.080  13.773  0.2324 -0.0781  0.2757
25186W        W44040   5.462  14.643  14.518 -0.1549  0.0626 -0.0453
25187W        W44041  17.949  14.218   2.025 -0.0943 -0.0274 -0.1402
25188W        W44042   8.689   4.377   3.294  0.0828  0.3852 -0.1358
25189W        W44043  13.815  15.490  11.327  0.2313 -0.0573  0.0335
25190W        W44044   4.391  17.321  12.898  0.1118  0.0506 -0.1630
25191W        W44045  13.085  13.813  13.544  0.1236  0.2012 -0.1854
25192W        W44046  15.943  13.216  11.970  0.3807  0.0032 -0.0547
25193W        W44047   2.811  10.403   3.337  0.1448  0.3963 -0.2969
25194W        W44048  10.845  13.049  13.930 -0.0821  0.1203  0.2117
25195W        W44049  11.790   8.859   1.165 -0.1702 -0.0143  0.0851
25196W        W44050   7.775   2.317   2.110  0.1929  0.3424 -0.1902
25197W        W44051  14.473   4.862   1.578 -0.0718  0.0775 -0.1615
25198W        W44052  19.028  18.809  11.890 -0.2353 -0.1324 -0.0325
25199W        W44053  10.452   2.542   4.244 -0.6419 -0.1142  0.0602
25200W        W44054   4.157  17.242   2.784  0.0103 -0.0992 -0.2475
25201W        W44055  16.746   8.774   3.366 -0.1795  0.0657  0.1751
25202W        W44056   2.975  17.102  14.353 -0.3769  0.0238 -0.1392
25203W        W44057   7.050  15.118   0.963 -0.0947  0.1266 -0.2930
25204W        W44058   0.889   2.171   1.185  0.0281 -0.1677 -0.2011
25205W        W44059  16.488  15.265   1.723  0.0808  0.1514  0.4079
25206W        W44060   9.886   6.085  12.755 -0.1540 -0.1824  0.0695
25207W        W44061  12.773   7.558  13.947  0.1047 -0.2669 -0.1105
25208W        W44062   5.191  16.036   0.033  0.0506 -0.1210  0.3545
25209W        W44063   0.594  16.607  14.704 -0.3870  0.0624  0.3850
25210W        W44064  18.411  16.270  13.105  0.2915  0.0397 -0.0269
25211W        W44065  10.811   3.117   1.793 -0.3049 -0.1365  0.1999
25212W        W44066   2.912   0.151   0.148  0.2578 -0.1016  0.0809
25213W        W44067   4.553  10.283  14.587  0.1003  0.0005  0.3102
25214W        W44068   9.426  15.864   0.077 -0.0370 -0.2986  0.1862
25215W        W44069   4.276   7.147  13.808 -0.0881  0.2609  0.0111
25216W        W44070   4.442   8.530   2.379  0.0548  0.4673  0.2347
25217W        W44071   6.387  12.634  13.199 -0.1894  0.0705 -0.0725
25218W        W44072  10.115  11.202  11.286  0.0707  0.2627 -0.3409
25219W        W44073  15.846   6.196   1.816  0.1671  0.0859  0.1075
25220W        W44074  10.612  10.729   1.637 -0.0241  0.0514  0.0783
25221W        W44075   7.905  14.767  12.543 -0.2349 -0.0403 -0.4748
25222W        W44076   4.864  19.057  12.628  0.1595 -0.3085  0.1899
25223W        W44077  12.756  14.087   4.099  0.0408  0.2359 -0.1373
25224W        W44078   8.688   0.858   3.418  0.0200  0.0897  0.0669
25225W        W44079  16.342  11.941   3.456 -0.2329  0.0246  0.3269
25226W        W44080   8.098   2.684   2.235 -0.0544 -0.2437  0.3074
25227W        W44081  15.378   7.773   1.742 -0.1323  0.0215 -0.0098
25228W        W44082   1.440   3.286   0.418  0.1967  0.0675  0.0663
25229W        W44083   7.623   4.027  10.553 -0.4739 -0.3969 -0.0818
25230W        W44084   1.554   0.712  12.808 -0.1905  0.2460  0.0611
25231W        W44085  13.778   4.560  14.593 -0.0084  0.5292 -0.2091
25232W        W44086   3.650  16.210   3.754  0.1304 -0.3152  0.0424
25233W        W44087  13.022  12.921   3.570 -0.2654  0.1719 -0.2202
25234W        W44088   0.418  17.418  14.658  0.0426  0.0232 -0.0861
25235W        W44089  18.384   6.366  12.066 -0.2964  0.0047  0.0178
25236W        W44090  17.329   6.639   3.217  0.0925 -0.2444 -0.2383
25237W        W44091  16.852  18.258   0.369 -0.0859  0.1561 -0.1444
25238W        W44092   2.673   3.813   0.980 -0.2972  0.3185  0.2293
25239W        W44093  14.328   3.712   3.278 -0.1619  0.0041  0.0371
25240W        W44094   7.986  15.413   4.045 -0.0262 -0.0629 -0.1129
25241W        W44095  13.384   6.365  12.886  0.2601  0.1366  0.2548
25242W        W44096   7.210   2.175   3.991  0.0464 -0.1879 -0.2946
25243W        W44097   7.479   1.533   4.383  0.1584 -0.1589 -0.0225
25244W        W44098  14.158  10.447   1.446 -0.1388  0.2635 -0.0494
25245W        W44099   2.022   4.153   1.643  0.2437  0.1447  0.2486
25246W        W44100   2.384  17.457   1.579 -0.1366  0.0221 -0.0737
25247W        W44101   8.385  11.131  14.090 -0.0739 -0.2997  0.2261
25248W        W44102   4.825  13.873  11.809 -0.2736  0.1285  0.0312
25249W        W44103   6.525   6.925  14.209  0.1187  0.1083 -0.2153
25250W        W44104  17.789  16.893  11.648 -0.1665 -0.0322  0.0408
25251W        W44105  10.819   1.982   2.421  0.2170  0.1029 -0.1355
25252W        W44106   8.796   8.817  12.786 -0.0691 -0.0482  0.0610
25253W        W44107  17.164  10.926  11.561 -0.0046  0.1397 -0.1090
25254W        W44108   6.013   1.585   1.625 -0.0716 -0.1767  0.0445
25255W        W44109   5.195   3.263  11.591  0.1200 -0.0866  0.3393
25256W        W44110   9.092   6.902   2.607  0.1621 -0.1011 -0.0595
25257W        W44111  11.989  18.839   4.110 -0.0766 -0.0855  0.0622
25258W        W44112   7.033  15.397   3.179 -0.1579  0.1077  0.1156
25259W        W44113   0.905  19.046   0.786  0.2220 -0.0023 -0.0852
25260W        W44114  18.974  11.446  13.553  0.2213  0.2668 -0.2287
25261W        W44115   5.197  11.429   1.452  0.1028 -0.1354 -0.0659
25262W        W44116  13.931   6.225   3.784 -0.2942 -0.0629  0.0328
25263W        W44117   7.955   9.317  12.945  0.0254  0.2761  0.0798
25264W        W44118  16.290  12.460   4.320  0.6331  0.3229  0.1888
25265W        W44119   4.431  11.587   0.361 -0.1846  0.2700 -0.1659
25266W        W44120  12.416   1.120   3.068 -0.0807  0.0679 -0.1321
25267W        W44121  18.993   8.181  12.512  0.0625  0.3103  0.3109
25268W        W44122   5.440  15.062  12.608  0.0826  0.0886  0.5716
25269W        W44123  10.296   4.519  12.335 -0.1640 -0.0538 -0.0877
25270W        W44124  12.794  16.288  13.742 -0.0583 -0.0858  0.1662
25271W        W44125   9.516   6.587   3.880 -0.3712 -0.0348  0.0625
25272W        W44126  17.767  15.888   0.252  0.0696 -0.0401 -0.2273
25273W        W44127   9.485  14.574  12.160  0.0289  0.1988 -0.0154
25274W        W44128   5.483  17.376   1.950  0.1086 -0.0705  0.1339
25275W        W44129  17.357  16.837   3.098 -0.0409  0.0076  0.0447
25276W        W44130   9.118  10.799   1.099  0.2094  0.1392  0.0400
25277W        W44131   2.649  10.759  14.320  0.0333  0.0781  0.3489
25278W        W44132   5.648   4.730  11.057  0.0257  0.1845 -0.2766
25279W        W44133  14.733  15.523  14.027  0.0354 -0.0373  0.3194
25280W        W44134   8.585  16.308   9.784 -0.1416  0.0696  0.1931
25281W        W44135   8.374  18.480   2.053  0.0438 -0.0448  0.0203
25282W        W44136  13.440   2.265   1.743 -0.0445 -0.1377 -0.0393
25283W        W44137   6.030   5.833   1.566  0.0384 -0.4787 -0.0055
25284W        W44138  13.119   3.540   1.382  0.0375 -0.0854  0.0620
25285W        W44139  14.959  13.310  11.793 -0.0646 -0.1853 -0.1267
25286W        W44140   0.934  14.682  14.578 -0.2941 -0.0919 -0.1178
25287W        W44141   1.730  15.185  11.856 -0.0769 -0.0985 -0.0524
25288W        W44142  16.337   1.808   0.141  0.0351  0.1235  0.0653
25289W        W44143  14.912   3.194   0.884 -0.0419 -0.1990 -0.1435
25290W        W44144   8.017  10.528   3.091 -0.1329 -0.2816  0.2139
25291W        W44145  18.768   2.644  11.162 -0.2749 -0.1372  0.1730
25292W        W44146  17.885   4.308   2.685 -0.1634  0.2285  0.3085
25293W        W44147   8.465  18.370   3.465 -0.0105  0.2378  0.0009
25294W        W44148   3.058   3.861  11.650 -0.1258 -0.0370 -0.1034
25295W        W44149   1.930   2.052   0.547 -0.1165  0.0805  0.0548
25296W        W44150  14.854   2.984  12.447 -0.1983 -0.2018 -0.1431
25297W        W44151  10.647  10.409  13.246 -0.0322  0.0488  0.1000
25298W        W44152  17.638  18.047   4.669 -0.0674 -0.1157  0.2516
25299W        W44153   0.512  13.160   4.130  0.1545 -0.0530  0.0718
25300W        W44154   4.228   7.445  12.104  0.1183 -0.0561  0.2199
25301W        W44155  12.123  13.065   2.589  0.2857 -0.1133  0.0385
25302W        W44156  17.848   5.136  13.724 -0.1730 -0.0074 -0.1971
25303W        W44157  18.009  15.733   3.651  0.0823  0.1678 -0.1630
25304W        W44158  15.498  10.879   3.766  0.1104 -0.0511 -0.0999
25305W        W44159  13.283   5.323  12.968 -0.2162  0.2569  0.1403
25306W        W44160   8.671   5.133   3.851 -0.0315 -0.0252  0.0941
25307W        W44161  15.997  17.512   3.344  0.0374 -0.5429 -0.2119
25308W        W44162  11.509  10.911   1.427 -0.0189 -0.2629 -0.2823
25309W        W44163   7.732  11.429   1.911  0.3406  0.2190 -0.0919
25310W        W44164  12.473  12.335  12.437  0.1178  0.2034  0.0689
25311W        W44165  11.253   0.804   1.222  0.1770  0.0642  0.3258
25312W        W44166  16.298   7.952  11.137  0.0954  0.2722  0.1223
25313W        W44167   8.904   2.462   0.958 -0.0184  0.1873 -0.3622
25314W        W44168   0.964   9.244   3.996  0.2335 -0.3309  0.3443
25315W        W44169   5.955  11.267   2.179  0.2973 -0.0135 -0.3862
25316W        W44170   6.135  18.272  11.276 -0.0039 -0.0702 -0.1353
25317W        W44171   6.722  17.369   2.292  0.0898  0.2412  0.1091
25318W        W44172   4.491  10.668   1.509 -0.0635  0.0455 -0.0456
25319W        W44173  18.904   6.020  12.780 -0.0161 -0.1702 -0.3688
25320W        W44174  18.876  15.771   0.387  0.2619  0.1673 -0.0996
25321W        W44175  15.202  10.929  12.930  0.0143 -0.1014 -0.0030
25322W        W44176   8.121  17.351  10.881  0.0273 -0.0421 -0.2096
25323W        W44177   1.966   1.993  13.493  0.2157  0.1757  0.4609
25324W        W44178  16.214  18.231  10.938  0.0593  0.4088 -0.1069
25325W        W44179  15.686  11.858  10.621 -0.0763  0.2452 -0.0217
25326W        W44180   5.239   5.002   3.628 -0.1332 -0.2339 -0.3159
25327W        W44181  18.566  11.897   2.860  0.1044  0.0194  0.0907
25328W        W44182   3.368   0.349  12.190 -0.0110  0.1284 -0.2414
25329W        W44183   2.179  14.548  10.883  0.2896  0.2430  0.0374
25330W        W44184   0.976   3.324  14.270  0.4181  0.1131 -0.4419
25331W        W44185   4.261   6.972  11.265 -0.0059  0.0299 -0.1835
25332W        W44186  18.601  17.636  13.643 -0.2102  0.0521  0.0111
25333W        W44187   5.965  14.232  10.756  0.0847  0.1559  0.1024
25334W        W44188   7.711   5.451   0.834 -0.0929 -0.3456 -0.1320
25335W        W44189  17.954  13.595  13.997  0.0473 -0.1351  0.0941
25336W        W44190   5.463  12.626  11.675 -0.3116 -0.1717  0.3010
25337W        W44191   6.098  13.006   0.894 -0.2675  0.3321  0.0828
25338W        W44192  11.619  16.350  12.517 -0.0082  0.4161 -0.1265
25339W        W44193  12.033  10.275  14.375  0.0204  0.1990  0.1147
25340W        W44194   6.246   0.846   3.262  0.1035  0.1570 -0.0314
25341W        W44195  15.610   7.462   9.342 -0.1672  0.2030  0.0725
25342W        W44196   6.038  18.286   2.394 -0.3966 -0.2601  0.2653
25343W        W44197   2.441   8.966  11.818  0.0845  0.1804 -0.1594
25344W        W44198   4.095   9.049   0.405  0.0024  0.2961  0.0780
25345W        W44199   4.055  10.462   4.124 -0.1382  0.0485 -0.0076
25346W        W44200  11.646  12.162  11.877 -0.2007  0.0606 -0.1220
25347W        W44201  15.340   4.068   3.566  0.1713  0.1483 -0.1234
25348W        W44202   7.962  13.207   2.547 -0.1838  0.0860 -0.0102
25349W        W44203  13.293   0.912   1.359  0.0431 -0.2282  0.0919
25350W        W44204  13.608   2.052  10.960 -0.0553  0.6815 -0.1869
25351W        W44205  16.667  11.370  10.756  0.4130 -0.1310 -0.3709
25352W        W44206   8.382  11.169  10.111  0.2229 -0.0166  0.1170
25353W        W44207   7.163   3.565  12.670  0.0858 -0.2693  0.4218
25354W        W44208  14.437   7.008   5.061 -0.1368  0.1571  0.0229
25355W        W44209   6.882  11.871  12.346 -0.2262 -0.1285  0.1752
25356W        W44210  16.912   6.573  13.020 -0.0303 -0.3042  0.3426
25357W        W44211  14.813   8.786  13.357 -0.1917  0.4733 -0.1216
25358W        W44212  15.100   0.575   1.013  0.0940 -0.1473  0.1597
25359W        W44213   6.992  16.998   0.586 -0.2299 -0.2851 -0.0599
25360W        W44214   0.205   6.032   1.065 -0.3250  0.0724 -0.0147
25361W        W44215   7.743  15.487   2.637 -0.2247  0.1115  0.0459
25362W        W44216  14.989   6.627  10.526  0.0032  0.2312 -0.1632
25363W        W44217  11.720  18.693  11.610 -0.0398 -0.0655 -0.0465
25364W        W44218  10.972   0.738  11.536  0.1666 -0.0644 -0.0801
25365W        W44219   7.258  13.688   1.437  0.1984 -0.0776 -0.0155
25366W        W44220  17.050  10.173  11.450 -0.1375 -0.2148  0.2177
25367W        W44221  11.264  18.558  11.483 -0.4261  0.0293 -0.2438
25368W        W44222  12.033   6.549  10.451 -0.1394  0.0967  0.0877
25369W        W44223   0.947  12.328  13.553  0.2047  0.2593 -0.2027
25370W        W44224  11.532  17.048  13.135  0.1488  0.1746  0.3296
25371W        W44225  19.085   7.698  10.888  0.1685 -0.3924 -0.3927
25372W        W44226   2.504   3.653   3.177  0.0290  0.3027 -0.0090
25373W        W44227   6.105   0.524  12.776  0.1142  0.0349  0.1216
25374W        W44228  15.247  18.847  12.279  0.3206 -0.3429 -0.0974
25375W        W44229  19.200  11.167   0.237  0.0521  0.0712  0.1495
25376W        W44230   4.095   6.387  14.248  0.1826 -0.0026 -0.1364
25377W        W44231   3.022   6.770  10.640 -0.2512  0.0245  0.1410
25378W        W44232   6.898   3.776  13.564  0.0083  0.3774 -0.4172
25379W        W44233   3.188   9.667  13.519  0.1536  0.0538  0.0201
25380W        W44234   8.508   8.691  11.355 -0.1660  0.1388 -0.0915
25381W        W44235   0.952   5.741  12.240  0.2284  0.1531  0.3551
25382W        W44236  11.185   0.991  13.239 -0.0700 -0.1490  0.4280
25383W        W44237   1.194   7.012  10.650  0.1490  0.0975 -0.1365
25384W        W44238  16.148  10.930   3.085  0.3198  0.0207 -0.3108
25385W        W44239   7.338   0.286   0.888  0.2959  0.1946  0.2054
25386W        W44240  10.317  15.317  11.899 -0.0365 -0.0478  0.0620
25387W        W44241  16.539   9.218   1.457 -0.0266  0.0196  0.1144
25388W        W44242  15.258   6.137   3.191  0.0482  0.0225  0.0306
25389W        W44243   6.497   0.333   0.487 -0.1316  0.0277  0.0594
25390W        W44244   9.478  16.338  14.677  0.0615  0.1359  0.1561
25391W        W44245  10.526  16.708   3.335 -0.0515  0.3571  0.0642
25392W        W44246  18.055  18.917  11.022 -0.3117 -0.3537 -0.0139
25393W        W44247  17.041  13.292  14.538  0.1187  0.0022 -0.1953
25394W        W44248  11.371  12.913   4.352  0.0024 -0.0333  0.2685
25395W        W44249  12.130   4.131   3.973  0.0970  0.0285  0.0769
25396W        W44250   9.062   7.768  12.127  0.1723 -0.0471 -0.2116
25397W        W44251   2.529   4.130  11.450 -0.0327 -0.0449  0.4410
25398W        W44252   0.652  15.609   0.080 -0.0103 -0.0159  0.2368
25399W        W44253  13.909   5.761   4.642  0.1375  0.0978  0.1471
25400W        W44254  13.751  13.678  11.325  0.2342  0.1024 -0.0682
25401W        W44255  10.069  14.157   2.557 -0.2255  0.1113 -0.2347
25402W        W44256   5.146   6.668   4.480 -0.0556  0.3212  0.1409
25403W        W44257  11.031   4.048  11.938  0.3111 -0.0340 -0.0331
25404W        W44258   2.620   9.710  12.842  0.0688  0.2563  0.2386
25405W        W44259   8.260   8.740   3.660  0.1599  0.1182  0.0200
25406W        W44260   7.778  18.032   2.344  0.1093 -0.3409  0.1980
25407W        W44261   0.641   0.473  12.430  0.1518 -0.0597 -0.1718
25408W        W44262  18.157  16.242  13.650 -0.5244  0.1192 -0.1765
25409W        W44263  16.159  14.125  10.754 -0.0255  0.0948 -0.1223
25410W        W44264   9.081   5.230   3.379  0.1762 -0.0146  0.0577
25411W        W44265   2.681   1.738   3.091  0.1140  0.3152 -0.1482
25412W        W44266  13.836  13.857   3.246 -0.1171  0.0226 -0.4330
25413W        W44267   6.879  18.441  13.093 -0.0463 -0.3834  0.0058
25414W        W44268   4.668   7.960  10.826 -0.3080  0.0905  0.2192
25415W        W44269   3.555   8.626   2.262  0.0567 -0.0972  0.1250
25416W        W44270   8.319  15.669  10.485 -0.3069 -0.1633  0.3879
25417W        W44271   0.298  10.022  13.662 -0.5896 -0.1560  0.0195
25418W        W44272   3.945  18.391  12.884  0.1952 -0.1274  0.0080
25419W        W44273  17.954   6.858  14.250  0.0828  0.1745 -0.0478
25420W        W44274   0.518   6.187   3.352 -0.1569 -0.0118  0.1859
25421W        W44275   9.553   2.869   0.790  0.1173 -0.2331  0.0584
25422W        W44276  11.867  11.563  12.865  0.2017  0.2652 -0.0494
25423W        W44277  18.202   0.232   4.046 -0.1627 -0.4122 -0.1124
25424W        W44278  13.278   3.054  13.744  0.1865 -0.1333  0.0938
25425W        W44279   0.086  15.254   0.823 -0.0097  0.3241 -0.0981
25426W        W44280  18.802   9.926  11.043  0.1363  0.5203 -0.1441
25427W        W44281   7.600  10.876   3.196 -0.2344  0.0489 -0.0991
25428W        W44282   2.378   4.682   2.401 -0.1415 -0.2008 -0.4728
25429W        W44283  13.560  10.613   2.066  0.0427 -0.1477  0.0305
25430W        W44284   8.057   8.610  11.131  0.1514  0.1376  0.2936
25431W        W44285   2.176  15.899   3.038  0.3626  0.0539 -0.0631
25432W        W44286   7.014   6.020   1.277  0.2591  0.3077  0.1732
25433W        W44287   4.115  12.728   2.223 -0.0532 -0.1843 -0.0976
25434W        W44288  18.131  18.399  10.982  0.1222  0.5798  0.1052
25435W        W44289  15.676   0.569  12.483  0.0079 -0.2602  0.0025
25436W        W44290   9.276  12.443  12.219 -0.2954 -0.2415 -0.1237
25437W        W44291   7.523   8.892   1.975  0.2783  0.1439  0.0661
25438W        W44292  16.955  17.752  12.204  0.1864  0.1098 -0.1003
25439W        W44293  18.928   2.708  12.215 -0.5260 -0.0988  0.1661
25440W        W44294   4.530  14.081   3.994 -0.0742  0.2832 -0.1106
25441W        W44295  18.666   2.453   0.568 -0.0197 -0.3765  0.0849
25442W        W44296   9.307   1.713   1.808 -0.1779 -0.3516  0.1003
25443W        W44297   1.302   3.550  13.848 -0.0645 -0.0687 -0.0961
25444W        W44298   5.076   3.559   2.991  0.0321 -0.0762 -0.0103
25445W        W44299  13.705   1.049   0.415 -0.0022 -0.2130  0.0241
25446W        W44300  16.006   8.601   1.966 -0.1096  0.0713 -0.0557
25447W        W44301   8.550  11.337   1.899  0.2683  0.2766 -0.1556
25448W        W44302  16.191   6.765   2.437 -0.0276 -0.3484  0.2626
25449W        W44303  16.692  13.922   2.984  0.2428 -0.0259 -0.0344
25450W        W44304   6.384   7.166   0.845 -0.1729  0.0033  0.1580
25451W        W44305  17.527   7.740  10.643  0.0231  0.1210  0.1454
25452W        W44306  14.658  18.954   0.997 -0.0556  0.1378 -0.0517
25453W        W44307   0.239  18.898   1.476 -0.1225 -0.2209 -0.3074
25454W        W44308  13.787  16.718  12.693 -0.0639  0.0025 -0.6311
25455W        W44309  12.629   0.375  14.596 -0.1567  0.2668  0.0956
25456W        W44310  12.376   5.921  11.229  0.4820  0.2110 -0.1335
25457W        W44311  17.666   3.343   2.657  0.0167 -0.0649  0.2381
25458W        W44312   5.822  10.592   1.543  0.2444  0.1808  0.0463
25459W        W44313   1.462  12.496  14.414  0.0378  0.0999 -0.1749
25460W        W44314  17.825   9.372   1.537 -0.1417 -0.1104 -0.2935
25461W        W44315  15.619   3.341   1.172 -0.1404 -0.1484  0.1003
25462W        W44316  19.195   7.182  14.685  0.1880  0.0928  0.0428
25463W        W44317   1.743  11.705   3.730  0.0091  0.0415 -0.2510
25464W        W44318   9.868   0.586  14.645  0.0370  0.0751 -0.1298
25465W        W44319   6.511   3.699   4.379  0.3364  0.1332 -0.3138
25466W        W44320  11.950   0.559   1.763  0.2135 -0.3035 -0.1855
25467W        W44321  14.298  10.754   0.067 -0.1660  0.1509 -0.2265
25468W        W44322   7.923  15.028   2.536 -0.1361  0.3427  0.2198
25469W        W44323  16.081  15.719   0.052 -0.2260 -0.0111 -0.1468
25470W        W44324   3.356   7.175   1.052  0.1229  0.4409  0.1533
25471W        W44325   6.766  10.376   2.391 -0.3088 -0.1624 -0.1936
25472W        W44326  10.108   8.379   1.756 -0.0868 -0.1565  0.0127
25473W        W44327  17.322  19.001  12.108  0.1255 -0.1725  0.0911
25474W        W44328  15.210   4.967  13.466  0.0317 -0.0434  0.0690
25475W        W44329   5.693   4.071   1.814 -0.1757  0.1823 -0.0234
25476W        W44330  17.774   9.932  12.056 -0.0982  0.0878 -0.1471
25477W        W44331  11.260   8.636  11.337  0.1817  0.1004  0.2199
25478W        W44332   0.869  18.388   0.174 -0.3384 -0.0194 -0.0728
25479W        W44333  12.620  19.142   0.287  0.0259 -0.2099  0.0662
25480W        W44334  15.246  13.786   1.916  0.1297  0.1096  0.0707
25481W        W44335   8.261  16.725  14.250 -0.0084  0.2874 -0.0341
25482W        W44336   5.423   2.932  13.388  0.0165  0.2890 -0.1655
25483W        W44337   2.415  18.135   2.363  0.1265  0.0411 -0.1785
25484W        W44338   4.239  12.630   4.419  0.1393 -0.0417 -0.1008
25485W        W44339   6.828  18.830  12.071  0.1311 -0.0298  0.2853
25486W        W44340  12.488  11.084   1.282 -0.1836 -0.4398 -0.0188
25487W        W44341   2.654   9.738   2.078 -0.0216  0.5323  0.1553
25488W        W44342   6.071  12.389  13.535 -0.3268  0.1690  0.1344
25489W        W44343  17.849  11.567   3.828 -0.1544  0.1709 -0.1302
25490W        W44344  10.367   0.959  13.881  0.3618  0.0640  0.1539
25491W        W44345   6.928   6.963   0.893  0.1299 -0.1554 -0.1142
25492W        W44346   3.725  18.161   1.124  0.0515  0.1932 -0.1024
25493W        W44347   2.569   4.135  14.119  0.1568 -0.0908  0.2370
25494W        W44348  16.552  16.891   3.542 -0.1360  0.1203  0.0078
25495W        W44349   9.583   0.422   4.365  0.1779 -0.2084 -0.0850
25496W        W44350   5.246   6.883  13.091  0.2848  0.1397 -0.0118
25497W        W44351  14.552   2.679   0.918  0.0710 -0.0465 -0.4758
25498W        W44352  11.240  14.298   2.125 -0.0300  0.0785 -0.0135
25499W        W44353   5.975   5.142  11.106 -0.1555  0.2649  0.3101
25500W        W44354   9.435  13.926  10.501 -0.3050 -0.0449  0.0893
25501W        W44355   4.231  16.733  12.641  0.0189  0.1207 -0.0238
25502W        W44356  14.670  14.580  14.103 -0.0442 -0.0476  0.0179
25503W        W44357   3.357   1.058   2.915 -0.1897  0.0267 -0.0358
25504W        W44358  17.612   6.812  12.265 -0.1272  0.1449  0.0614
25505W        W44359  17.172  18.110  11.893  0.3099 -0.0085  0.1078
25506W        W44360   1.871   2.768   2.386  0.1698 -0.1149  0.3226
25507W        W44361  13.467  13.180   3.807  0.1798  0.4137  0.3416
25508W        W44362  12.011   9.016  10.481 -0.0484 -0.0755 -0.0561
25509W        W44363   6.066   2.432   1.160  0.2332  0.0842  0.1765
25510W        W44364  12.328  14.289   3.885  0.1279  0.4813 -0.0179
25511W        W44365  15.675   3.831   1.352  0.1558  0.0520  0.0865
25512W        W44366  17.532   0.589  11.728 -0.2048  0.1798 -0.0875
25513W        W44367   2.223  15.201  12.620  0.5520 -0.4307 -0.0616
25514W        W44368  11.504   0.783   1.740  0.0829 -0.0443 -0.2255
25515W        W44369   9.481   8.634   1.136  0.1255 -0.0514  0.0645
25516W        W44370   3.813   5.798   1.339  0.1174  0.2983  0.0614
25517W        W44371   3.638   9.443  13.814 -0.3064 -0.0029  0.0542
25518W        W44372   4.847   4.870  14.646 -0.2434 -0.0984 -0.1836
25519W        W44373  10.467   5.871   1.398 -0.2461 -0.0495 -0.1471
25520W        W44374  15.478   9.795   0.055  0.1868  0.0509 -0.1637
25521W        W44375   9.024   5.468   0.232 -0.0392  0.1151  0.0692
25522W        W44376   3.096  16.437  10.513 -0.2829 -0.0824 -0.1422
25523W        W44377  15.262   8.627  12.376  0.0305  0.1783  0.2097
25524W        W44378  13.519  18.424  11.268  0.2532 -0.2226 -0.1218
25525W        W44379   4.493   6.614   2.924 -0.0788 -0.1306 -0.0374
25526W        W44380   4.553   9.724  11.757  0.2287  0.0835  0.1442
25527W        W44381  16.193   8.688  11.095 -0.1738  0.0729 -0.1763
25528W        W44382   0.382  10.785  12.496 -0.2828 -0.1057  0.1310
25529W        W44383  11.932  16.532  12.078  0.1684 -0.1111 -0.0051
25530W        W44384  16.929   7.570  12.336 -0.1617 -0.0682 -0.0768
25531W        W44385  16.165  15.944  12.713 -0.0379 -0.2727 -0.0266
25532W        W44386  10.950  18.413   1.182 -0.0504 -0.3760 -0.0582
25533W        W44387  12.073  10.999   2.626 -0.1868 -0.4048  0.1286
25534W        W44388  18.951   0.704   3.948  0.0077 -0.0047 -0.1613
25535W        W44389  10.141  11.619   2.529  0.0615 -0.1106 -0.0288
25536W        W44390   2.511  19.177  11.929  0.4199 -0.0043 -0.0505
25537W        W44391  15.921  12.224   3.328  0.1187 -0.2416  0.0411
25538W        W44392  16.020   3.183   3.538  0.2154  0.2255  0.0225
25539W        W44393   5.042   2.417  11.505  0.2144  0.1009 -0.0545
25540W        W44394  13.745   1.702  13.989  0.0038  0.0165  0.2584
25541W        W44395  15.119   4.954  11.996 -0.2644  0.0582  0.0229
25542W        W44396   3.247   6.978   2.713  0.0621  0.0539  0.1221
25543W        W44397   9.028  12.664   3.091  0.0612  0.0612  0.0211
25544W        W44398   3.159  10.280  10.796  0.3413  0.1203 -0.2533
25545W        W44399  10.918   1.092   2.774 -0.0692  0.2822  0.0415
25546W        W44400  15.620  18.407   0.483 -0.4236  0.2581 -0.2384
25547W        W44401  10.518  13.053   0.481 -0.1031 -0.2711 -0.2457
25548W        W44402  10.536   9.842  12.268  0.0193 -0.2594 -0.1007
25549W        W44403  15.588  11.786   2.436  0.0458 -0.2995 -0.4329
25550W        W44404   9.592   7.092  13.942 -0.3695  0.0530  0.1275
25551W        W44405  12.005  10.034   1.782  0.2228  0.0810 -0.1030
25552W        W44406  16.683   6.402   2.187  0.1135  0.3852 -0.2281
25553W        W44407   7.440  18.131   0.702 -0.1204  0.0835 -0.0340
25554W        W44408   6.656   6.833  10.948  0.0911  0.3695  0.1275
25555W        W44409   7.227  18.600  11.355 -0.1138 -0.0118 -0.2209
25556W        W44410  16.268  11.490  10.419  0.1665 -0.1587 -0.0646
25557W        W44411  14.104   3.771  10.939  0.0074  0.3694 -0.1827
25558W        W44412   9.627   9.844   3.794  0.0935  0.0326 -0.0578
25559W        W44413   4.722  14.878  10.435 -0.2212  0.1102  0.0420
25560W        W44414  17.176   7.484  12.759  0.0051  0.1782  0.0266
25561W        W44415  13.296  13.221  11.439 -0.2822 -0.1618 -0.0268
25562W        W44416   1.132   4.715   4.079  0.2363  0.0187  0.0976
25563W        W44417  16.105   7.225   4.368  0.3117 -0.1762 -0.2371
25564W        W44418   4.427  16.237  11.287  0.1206 -0.0330 -0.0797
25565W        W44419  17.832  11.933   0.593 -0.1497  0.0926 -0.3336
25566W        W44420  10.112   5.719  10.722 -0.2197 -0.0658 -0.1030
25567W        W44421   1.765   9.331   3.523 -0.2784  0.0139 -0.0309
25568W        W44422   4.659   8.440   3.162 -0.0078 -0.3647 -0.1637
25569W        W44423  15.026   3.140  12.892  0.1656  0.0069  0.1686
25570W        W44424  14.928  16.833  13.332 -0.1269  0.0291 -0.2094
25571W        W44425  18.938  19.048  13.727 -0.0147  0.2114 -0.1691
25572W        W44426   5.082  16.487   2.308  0.0791  0.2817 -0.0213
25573W        W44427  13.069   8.945  10.628  0.1339  0.0207 -0.2774
25574W        W44428  13.360  10.797  14.347  0.1707  0.0940  0.0069
25575W        W44429  14.059  13.934   5.398  0.5995 -0.0161 -0.1544
25576W        W44430   6.676   8.147   2.689 -0.2167 -0.4282 -0.3197
25577W        W44431   2.090   6.300  14.717 -0.0279  0.0496 -0.0426
25578W        W44432   7.588   9.680  12.935 -0.1370 -0.0224 -0.1187
25579W        W44433   5.702  13.151  12.192  0.0819  0.2472  0.0830
25580W        W44434   2.031   9.878  13.865  0.0269  0.0635 -0.0327
25581W        W44435  16.142   3.404  12.354 -0.0578 -0.2199 -0.1500
25582W        W44436   3.345  16.367   3.319  0.2123 -0.1056 -0.1187
25583W        W44437  15.378   8.749   0.984  0.3764 -0.0965  0.1058
25584W        W44438  18.681  10.638   3.002  0.3676 -0.0871  0.1248
25585W        W44439  14.583  16.625   1.035 -0.1214  0.0874  0.2940
25586W        W44440  18.480  19.191  13.639 -0.2072  0.0228  0.1303
25587W        W44441  15.991  10.879   3.611 -0.0685  0.2062 -0.2889
25588W        W44442  18.970   3.646  12.413  0.4550  0.1231  0.1749
25589W        W44443  16.682  10.968  12.288 -0.0362 -0.0009  0.0616
25590W        W44444   6.879   9.592  13.354  0.0691 -0.0861  0.1241
25591W        W44445   4.311   3.928   2.416 -0.0150 -0.3082  0.4575
25592W        W44446   4.577   7.773  12.262 -0.2476  0.1864  0.0849
25593W        W44447  14.324   8.782  11.010 -0.1127 -0.1193  0.0032
25594W        W44448   8.843  15.509   1.032  0.2709  0.1497  0.0278
25595W        W44449  11.209  18.624   2.383  0.2791  0.0501 -0.0051
25596W        W44450   9.544  13.632   1.802 -0.3367 -0.2785  0.0332
25597W        W44451   3.334  15.102  12.616 -0.2958  0.0585 -0.0047
25598W        W44452  11.486  14.793   9.764 -0.1790 -0.0557  0.1701
25599W        W44453   1.960  11.333  11.016 -0.2752 -0.0639 -0.0014
25600W        W44454  18.680   6.853   2.696 -0.3746  0.3018  0.1591
25601W        W44455   5.320   8.491   3.317  0.1062 -0.2022 -0.0225
25602W        W44456  17.805  10.343   0.846 -0.1043  0.0972  0.2627
25603W        W44457   0.117   7.852  11.860 -0.2408 -0.0810  0.3313
25604W        W44458  17.549   9.099  11.778  0.2984 -0.0656  0.0136
25605W        W44459   7.067  12.188  10.421  0.1750 -0.0323 -0.2718
25606W        W44460   6.511  17.002  11.215 -0.0471  0.3308 -0.1711
25607W        W44461   0.417  19.145   4.125  0.3970 -0.2623 -0.0428
25608W        W44462   7.996  18.563  13.504 -0.0187  0.1928  0.0733
25609W        W44463  17.756   0.633  11.265  0.0501 -0.0521 -0.2717
25610W        W44464   0.868  13.252   1.914  0.2752 -0.1103 -0.0495
25611W        W44465  14.585  14.788   2.311  0.1566  0.1105 -0.3200
25612W        W44466   5.805   6.415   3.062 -0.0689  0.2608  0.1586
25613W        W44467   1.267   3.702  12.563  0.0086 -0.0502  0.0415
25614W        W44468  18.680   7.881  13.710  0.0463  0.1801  0.2109
25615W        W44469   2.946  11.614  10.905 -0.5162  0.2112 -0.0262
25616W        W44470   1.830   7.766  10.974 -0.1393  0.1330 -0.2701
25617W        W44471   3.903   9.688   9.584  0.0155  0.0225 -0.3907
25618W        W44472   7.695  17.855  12.836 -0.1103 -0.2004 -0.4955
25619W        W44473  13.911   3.363  11.234 -0.1551  0.0931 -0.3776
25620W        W44474   1.422   5.909   3.065  0.0818  0.1612  0.0004
25621W        W44475  10.428  15.324  14.498 -0.2460 -0.2352  0.1251
25622W        W44476   2.040  15.157   1.070  0.2344 -0.3421 -0.1998
25623W        W44477   1.762   4.457   5.171 -0.0641  0.2924  0.2932
25624W        W44478   4.682   6.364   4.368 -0.1497  0.0391 -0.2086
25625W        W44479  15.501  12.650   1.750 -0.0429 -0.0768  0.1086
25626W        W44480   0.983  15.342   3.969  0.0008  0.0384  0.2324
25627W        W44481   6.690  18.357  13.904 -0.1182  0.0318 -0.1232
25628W        W44482  13.562  17.095   3.970 -0.2323  0.0473  0.2287
25629W        W44483   7.391  12.281  13.202  0.1919  0.0713  0.3081
25630W        W44484   9.041   6.279  12.629  0.0455 -0.0167  0.0246
25631W        W44485   2.065  12.084   0.784 -0.0604  0.2276 -0.0378
25632W        W44486   0.205  13.172   2.548  0.2499  0.0052  0.3100
25633W        W44487   0.452   1.998  12.631  0.0028  0.1764 -0.3343
25634W        W44488   0.319  10.206   2.709  0.0877  0.0083 -0.0907
25635W        W44489  15.897   5.766   0.535 -0.0092 -0.1064  0.2319
25636W        W44490  14.947   2.736   1.679  0.2347 -0.2500 -0.0945
25637W        W44491  13.888  19.113  13.855 -0.2155  0.0871 -0.0434
25638W        W44492   4.033  15.931   3.864  0.0957 -0.1923 -0.0802
25639W        W44493  15.050   0.087   4.260  0.0340 -0.1365  0.2330
25640W        W44494   7.622   6.200   2.664 -0.0082  0.0989 -0.0669
25641W        W44495  15.977  11.870  13.642  0.1684  0.0931 -0.3072
25642W        W44496  11.902   5.145   1.067 -0.0666  0.1889 -0.4405
25643W        W44497   2.506  15.413  14.630  0.0026  0.2866 -0.1382
25644W        W44498   9.004  18.769   3.352 -0.0657 -0.2945  0.0883
25645W        W44499  16.939   6.491   4.511 -0.0629 -0.1117  0.4058
25646W        W44500  17.669   6.549  13.869 -0.0996  0.0152 -0.0858
25647W        W44501   4.092  14.808  13.747  0.1102 -0.1812 -0.2596
25648W        W44502   9.764  11.117  14.201 -0.2061  0.1871 -0.0811
25649W        W44503  11.843   1.299   0.298  0.0593 -0.3211 -0.0125
25650W        W44504   5.492   9.148  11.028  0.0141  0.0539 -0.0429
25651W        W44505  12.517   5.191   2.301  0.4490  0.0501 -0.0653
25652W        W44506   2.483   5.208   3.541 -0.0694 -0.3344  0.5196
25653W        W44507  13.070   7.739  12.981  0.0335 -0.2637  0.0689
25654W        W44508   5.313   0.430  12.900 -0.0863 -0.0128  0.3294
25655W        W44509  10.981  17.198  13.175  0.0299  0.1560 -0.2458
25656W        W44510   5.850   2.773  11.168  0.1442 -0.3377  0.0528
25657W        W44511  16.316   2.786   3.407 -0.0606 -0.0836 -0.2488
25658W        W44512   8.630  10.580  12.357  0.2647  0.0578  0.1868
25659W        W44513  13.903   0.195  11.486  0.2056 -0.0645  0.3774
25660W        W44514  16.147  13.250  12.825 -0.0928  0.5492 -0.2275
25661W        W44515  15.622  14.111   3.149  0.0954  0.1448 -0.2313
25662W        W44516  11.121  12.420  11.758  0.3056  0.2791 -0.1499
25663W        W44517  17.965  10.952  11.797  0.2555 -0.1439  0.0477
25664W        W44518   4.107  17.319   2.312 -0.1148 -0.0289 -0.1171
25665W        W44519   0.112  14.448   3.414  0.0810  0.0482 -0.0174
25666W        W44520  16.841   3.383   3.151 -0.2154  0.1152 -0.1330
25667W        W44521   4.178   0.433  10.708  0.1017  0.0273  0.0104
25668W        W44522   4.091   2.810  12.519  0.0895 -0.2551 -0.2652
25669W        W44523   2.835   7.023  13.700  0.5088 -0.0626  0.3730
25670W        W44524   8.780  13.410   0.266 -0.0707 -0.1667  0.1269
25671W        W44525   2.269   5.251  10.864 -0.2491  0.0082  0.0669
25672W        W44526   3.056  13.556  13.070 -0.0089 -0.0416 -0.2722
25673W        W44527   5.019   5.240   0.761  0.1365  0.0853 -0.1371
25674W        W44528  18.781  11.091   2.426 -0.2041  0.2566  0.0098
25675W        W44529   4.893  13.866   2.752 -0.2270  0.0222 -0.1459
25676W        W44530   9.370   0.179  10.928  0.1320  0.0474  0.2336
25677W        W44531   6.248  14.722   3.132 -0.2373 -0.1085  0.2319
25678W        W44532   0.796  13.605  13.743  0.0678  0.1353  0.0638
25679W        W44533   7.660   2.161   2.977 -0.1037 -0.1930 -0.0936
25680W        W44534   7.127  13.206  12.076 -0.1590 -0.0505 -0.0014
25681W        W44535  12.274   1.594  12.171  0.1555  0.1783 -0.2289
25682W        W44536  17.496  17.241  13.141  0.2100 -0.1027  0.3080
25683W        W44537  16.629  16.707  13.193 -0.1005  0.0474  0.0188
25684W        W44538   2.005  18.534   2.418 -0.0978 -0.0300 -0.1619
25685W        W44539  11.328  13.235  13.750  0.3217  0.1650 -0.0727
25686W        W44540  10.675   4.615  12.881  0.3185  0.0549  0.2606
25687W        W44541  12.338  16.437   3.643 -0.1327  0.0231 -0.1518
25688W        W44542  10.695   2.911   4.517  0.1177 -0.1024 -0.0812
25689W        W44543   5.788   2.510  13.153  0.1875  0.0348 -0.2317
25690W        W44544   7.925   4.358   4.068  0.1330 -0.3201 -0.0621
25691W        W44545   1.567  14.539   0.046  0.2512 -0.1672  0.1555
25692W        W44546   8.749  14.415   0.987  0.1917  0.0011  0.1063
25693W        W44547   4.373   3.212  10.173  0.0775  0.2376 -0.4011
25694W        W44548  18.393  13.266  12.734 -0.1202 -0.0812 -0.1426
25695W        W44549   0.109   8.160  13.562  0.0897  0.0356 -0.2045
25696W        W44550  17.485   8.727   4.049  0.1222  0.0544  0.0971
25697W        W44551  13.551   3.401   3.128 -0.4261  0.1455  0.0510
25698W        W44552   4.107  15.061   4.169 -0.0874 -0.2267  0.4255
25699W        W44553  10.039   3.823  11.566  0.0834  0.2904 -0.1724
25700W        W44554  10.672  10.132   2.881  0.1026 -0.0036 -0.1527
25701W        W44555  11.663  16.553  14.722 -0.1119  0.0344 -0.0576
25702W        W44556   4.392   6.286   1.828  0.0560  0.0932 -0.1382
25703W        W44557   5.013  16.627  13.176  0.1661 -0.0634 -0.1087
25704W        W44558  12.386  11.362   2.439 -0.1299  0.2246  0.2536
25705W        W44559  18.751   3.070  14.640  0.1447 -0.1149  0.4440
25706W        W44560  14.094  16.480  13.136 -0.0894  0.2923 -0.0855
25707W        W44561   1.237  11.877   0.412 -0.0473 -0.1668  0.1753
25708W        W44562   0.430   1.542  13.634  0.1413 -0.2693  0.1793
25709W        W44563  14.518   2.857  14.466  0.0367 -0.2694 -0.1020
25710W        W44564  19.089  17.191  11.567  0.2024  0.2979 -0.2250
25711W        W44565   8.446   2.511  11.968 -0.0100  0.2516 -0.0301
25712W        W44566   0.465   1.685   0.621  0.0409  0.1232 -0.2431
25713W        W44567  11.177   0.431   1.565 -0.1487  0.1128  0.2442
25714W        W44568   6.564  19.164  11.028  0.1370  0.0705  0.2163
25715W        W44569   8.502  11.143  11.129 -0.1983 -0.1965  0.1668
25716W        W44570   4.056  15.906   0.018  0.0869  0.0648  0.0125
25717W        W44571  11.013  13.991   3.715  0.0672  0.1324  0.0092
25718W        W44572   2.397   5.549  12.917 -0.1207  0.0084 -0.2626
25719W        W44573  16.556   2.595   2.420 -0.0369 -0.0769 -0.0380
25720W        W44574   0.583   7.250  14.046 -0.2108 -0.0408  0.1132
25721W        W44575  11.730  13.144  14.662  0.0862 -0.0647  0.0859
25722W        W44576   1.542   6.164  14.334  0.1022  0.2001  0.1146
25723W        W44577   8.898  19.185   4.159  0.1122  0.2438 -0.2569
25724W        W44578   4.187   1.438  10.482  0.4377 -0.0569 -0.1507
25725W        W44579  12.018  12.358  10.232 -0.1804  0.1567  0.0585
25726W        W44580  17.603  14.650   2.114  0.1743  0.2103 -0.2434
25727W        W44581   5.931   4.147   5.659 -0.0950  0.3319 -0.1999
25728W        W44582   6.357   3.585  14.351  0.0652  0.2918 -0.2527
25729W        W44583   1.868   5.493  10.590 -0.0308  0.0728 -0.1515
25730W        W44584  17.200  10.916  13.741 -0.0317  0.0429  0.2696
25731W        W44585  16.248   3.255  14.606 -0.0775  0.0527  0.2211
25732W        W44586   3.425   9.799   3.247  0.3681  0.1398  0.1346
25733W        W44587  11.701  12.489   0.447  0.1034  0.1792 -0.1436
25734W        W44588   1.670  13.305  11.251 -0.0725  0.0921 -0.2213
25735W        W44589   9.257  18.251  14.395  0.1805  0.1590 -0.1734
25736W        W44590  14.549   6.687  12.468  0.0165 -0.3323 -0.2370
25737W        W44591   7.904  10.551  11.725 -0.0527 -0.1845  0.0666
25738W        W44592   6.790  16.495   0.899  0.1749 -0.1145  0.4853
25739W        W44593  10.705   8.715   3.117 -0.2246  0.0780  0.0458
25740W        W44594   0.170  18.928   3.755  0.2930  0.0142  0.1199
25741W        W44595  17.042   5.473   1.061  0.0541  0.1097  0.2809
25742W        W44596   2.970   8.846   4.112 -0.0634 -0.0123  0.3983
25743W        W44597   9.923  19.194   9.663  0.0664  0.0375  0.4032
25744W        W44598  13.240   2.511  13.854 -0.4651  0.0108  0.1161
25745W        W44599   4.793  18.674   2.846 -0.2864 -0.1090 -0.1685
25746W        W44600   8.345  18.469  11.083  0.1190  0.1082  0.1364
25747W        W44601   7.194   4.947   0.088 -0.0194 -0.1888 -0.0604
25748W        W44602  15.591  14.399  11.983  0.0054 -0.1389 -0.0712
25749W        W44603  14.752   2.686  12.825  0.2411  0.2387  0.0837
25750W        W44604   9.908   2.169  10.883  0.1707 -0.1626  0.0389
25751W        W44605   4.321   8.710  13.829  0.1741 -0.1413 -0.0859
25752W        W44606  19.079   2.881   0.555 -0.1637 -0.1745 -0.0060
25753W        W44607  11.201  14.539  14.185  0.0338  0.0269  0.1441
25754W        W44608  15.002   6.565   2.922 -0.0637  0.0281 -0.0254
25755W        W44609   1.608   9.039   3.912 -0.1758 -0.0134 -0.1324
25756W        W44610   4.987  13.811  12.272 -0.2432  0.0213  0.0504
25757W        W44611  14.453  15.188   1.525  0.0464 -0.0022  0.0671
25758W        W44612  14.116   9.466   3.085 -0.0805  0.1026  0.0487
25759W        W44613   2.799   6.697   1.796  0.0351  0.0078 -0.0101
25760W        W44614   5.113   5.996   2.543  0.0700  0.1831 -0.3800
25761W        W44615  16.638  16.992   4.090  0.1075  0.1689 -0.0147
25762W        W44616  16.013   9.916  14.211 -0.0315 -0.1968  0.1080
25763W        W44617  14.862  18.149  14.719 -0.0735 -0.1885  0.0293
25764W        W44618  10.753   1.378   4.137 -0.2105  0.0511  0.1684
25765W        W44619   8.882  13.949  12.553 -0.4252  0.2167  0.1010
25766W        W44620   8.784   8.375   0.256  0.1464  0.2352  0.1617
25767W        W44621   1.257   2.308   0.734  0.2536 -0.2552 -0.0423
25768W        W44622  18.136   1.001   3.608  0.2261  0.2647  0.0973
25769W        W44623   0.891   2.543  11.104 -0.3173 -0.1498 -0.0399
25770W        W44624   6.891  17.649  11.713 -0.1604  0.3086  0.1047
25771W        W44625   8.464   1.217   1.615  0.1133 -0.3218 -0.1497
25772W        W44626   7.083  16.448  13.557  0.0772  0.2294  0.0470
25773W        W44627   1.303  16.723  11.560  0.0251 -0.3481 -0.1776
25774W        W44628   6.968  17.380   4.120 -0.1244 -0.1827  0.0557
25775W        W44629   6.651  16.003   0.241 -0.1883 -0.0642  0.1101
25776W        W44630   1.580   7.753  10.006 -0.1174 -0.0343  0.2313
25777W        W44631  14.860   2.458   2.081  0.1426  0.2260 -0.0298
25778W        W44632  18.540  15.429   2.534 -0.2038  0.1484  0.0631
25779W        W44633   6.405  17.930  12.402 -0.0601 -0.0904  0.0648
25780W        W44634  18.632  11.151   4.102 -0.1735  0.0322 -0.0115
25781W        W44635  11.133   4.279  11.495  0.0527  0.0773  0.0549
25782W        W44636   8.725   4.350   2.755 -0.0873  0.2109  0.0689
25783W        W44637  12.909   2.615  10.719 -0.2100  0.0188  0.0100
25784W        W44638  14.892   9.992   1.943 -0.2561  0.0596 -0.4054
25785W        W44639  16.262  12.090  12.256  0.0477 -0.0205 -0.0166
25786W        W44640  17.102   4.979  12.577  0.0427 -0.0597 -0.0089
25787W        W44641  10.543   3.618  12.293  0.1157 -0.0404 -0.0948
25788W        W44642  12.258  12.889  10.890  0.0937 -0.3492  0.1271
25789W        W44643  14.140  14.717  14.326  0.1899  0.2511  0.0512
25790W        W44644  16.672   9.943   4.891  0.1128 -0.2301 -0.1550
25791W        W44645   3.237   8.018   5.444 -0.1149  0.2179  0.1057
25792W        W44646   9.842   0.686  12.209 -0.2928  0.0685  0.0799
25793W        W44647   1.298   9.006   9.942 -0.1320  0.2927  0.0566
25794W        W44648  16.275  11.521  14.248  0.0495 -0.0614  0.2114
25795W        W44649   0.559   3.600   3.658 -0.0732 -0.1447 -0.0054
25796W        W44650   4.770   4.502  11.154 -0.1572  0.1196  0.0383
25797W        W44651   7.969  12.457   0.087 -0.1165 -0.0448  0.0447
25798W        W44652  14.420   6.015  11.610 -0.0416  0.2315  0.2351
25799W        W44653   4.330   4.092   0.510 -0.2208  0.3017 -0.0020
25800W        W44654  11.784  10.478   0.960  0.1249  0.0112 -0.0772
25801W        W44655  19.181   0.340  13.164 -0.2825  0.0241  0.1355
25802W        W44656  17.007  15.041  10.585  0.1366 -0.1766 -0.1298
25803W        W44657   0.321  13.549   0.598  0.0149 -0.1781 -0.2858
25804W        W44658  12.717   3.964   1.982 -0.1208 -0.3131 -0.2695
25805W        W44659  12.030  11.388  12.137 -0.2183  0.1130 -0.1158
25806W        W44660  15.591  18.655  13.766  0.4008 -0.2814  0.0224
25807W        W44661   1.497  17.539  11.196 -0.2769 -0.0320 -0.0238
25808W        W44662  12.960  13.621   3.919  0.0040 -0.2748 -0.0650
25809W        W44663   1.774   8.131  13.730  0.0625 -0.1474  0.2108
25810W        W44664   4.016   8.884   3.043 -0.1295 -0.0278  0.0659
25811W        W44665   2.850   0.286  13.995  0.2361  0.2289 -0.2537
25812W        W44666   0.176  14.545  10.610  0.0475 -0.0555 -0.0593
25813W        W44667   0.296  11.285  12.480 -0.1930 -0.0058 -0.1350
25814W        W44668  15.124  18.651  14.020 -0.2329 -0.2576 -0.2741
25815W        W44669   5.579   1.870   1.827  0.1900 -0.2319  0.1124
25816W        W44670  16.928  17.862  11.180 -0.5918 -0.0257  0.1000
25817W        W44671   6.642   6.350   1.497  0.0919 -0.1611  0.2344
25818W        W44672  18.154   3.832  10.593  0.1109  0.0750  0.1206
25819W        W44673   4.545  18.636   3.862 -0.0759 -0.2829 -0.0313
25820W        W44674   9.658  16.406  10.881 -0.0851  0.0591 -0.2194
25821W        W44675   9.647   2.036  14.631 -0.0521  0.0312  0.2824
25822W        W44676  18.629   0.265  14.098 -0.2539 -0.3098  0.3571
25823W        W44677  13.357   7.913  10.629 -0.3528 -0.0345 -0.1093
25824W        W44678  11.911   2.672   2.119 -0.0214 -0.0118 -0.2748
25825W        W44679  16.664   9.296  11.442 -0.0255 -0.1831 -0.0815
25826W        W44680  12.311   2.785   3.455  0.3229 -0.0196  0.2271
25827W        W44681  18.249  12.244   2.682 -0.1857 -0.1923 -0.1123
25828W        W44682   9.729  15.057   3.818  0.1482  0.0820 -0.1800
25829W        W44683   3.814   1.441   1.412  0.3688  0.0983  0.0069
25830W        W44684   8.059  16.354   4.569 -0.0409  0.0991  0.1620
25831W        W44685   8.120  12.309  12.658 -0.2415  0.0111  0.1212
25832W        W44686   4.621  16.015  10.127  0.0983  0.0554 -0.5598
25833W        W44687  14.206  14.903   2.645 -0.1714 -0.0753 -0.0255
25834W        W44688   4.155   6.685   1.518  0.0777 -0.0084  0.0582
25835W        W44689  18.170  16.791  11.218  0.0599 -0.0367 -0.1475
25836W        W44690   0.842  16.475  11.238  0.1297 -0.0653 -0.0448
25837W        W44691   1.669  11.944  12.944  0.2379  0.0319  0.3742
25838W        W44692   8.051  12.436  13.277 -0.0594  0.0451  0.3503
25839W        W44693   6.171  16.749   4.454  0.0993 -0.1683 -0.0244
25840W        W44694   0.527  17.544  13.165 -0.0749  0.1158  0.0168
25841W        W44695   0.585  10.323  13.211 -0.1319 -0.2919  0.1366
25842W        W44696  17.815   6.665   4.479 -0.1612 -0.2071 -0.1609
25843W        W44697  11.268  13.756  13.886 -0.4282  0.3070 -0.1020
25844W        W44698   4.520  15.003   9.929 -0.4001 -0.0503  0.1538
25845W        W44699   1.492   6.907  13.479  0.2909  0.2981  0.2233
25846W        W44700   6.964  11.511   0.286 -0.1411 -0.1158  0.1569
25847W        W44701   0.637  17.813   2.255 -0.2308  0.0843 -0.1767
25848W        W44702   0.233   0.493  14.669 -0.0993 -0.0160 -0.2259
25849W        W44703  13.267   0.454   1.914 -0.1761 -0.0726  0.0837
25850W        W44704   1.468  18.324  13.594  0.2364 -0.0693  0.1792
25851W        W44705   2.729   5.764   2.161 -0.0666 -0.0736  0.1138
25852W        W44706   3.831  16.560  13.260  0.1691 -0.0440  0.2741
25853W        W44707  12.762  17.499  13.629  0.0691 -0.0775 -0.3758
25854W        W44708  14.903   0.074  12.392  0.0497  0.3616  0.2876
25855W        W44709  16.752   4.301   0.126  0.0772  0.1563 -0.0326
25856W        W44710   5.755  10.166  13.786  0.0903 -0.1889  0.0637
25857W        W44711  15.730   7.256  13.914  0.2581 -0.0888  0.1214
25858W        W44712   5.146  12.270  11.359  0.4923  0.2469  0.1517
25859W        W44713  18.762  15.719  13.181 -0.4320  0.1329 -0.1338
25860W        W44714  14.381   5.612   3.289 -0.1784 -0.1652 -0.1333
25861W        W44715  12.094   7.701  10.245  0.2443 -0.3810 -0.0778
25862W        W44716   3.573  11.623   3.482  0.2108  0.0318  0.2388
25863W        W44717  12.413   8.122  13.854 -0.1572 -0.0341 -0.2377
25864W        W44718   3.100   2.694  12.181 -0.2050 -0.1881  0.0023
25865W        W44719  15.331  16.835   0.481  0.2412 -0.0059 -0.0980
25866W        W44720  18.710  11.576  11.365  0.5250  0.1279  0.0998
25867W        W44721  10.927   2.776  12.375 -0.2306 -0.2207 -0.0499
25868W        W44722   1.663  12.193   0.515 -0.0915 -0.0188 -0.0703
25869W        W44723  15.893   0.554   1.636  0.2517 -0.0172  0.1857
25870W        W44724   2.189   9.214   0.010 -0.6001  0.0273 -0.0152
25871W        W44725  13.396  14.041  14.634  0.0154 -0.5597  0.2764
25872W        W44726  14.006   1.130  10.932 -0.4138  0.0371 -0.1044
25873W        W44727   4.933   1.251   3.483  0.0218  0.0669 -0.0944
25874W        W44728   8.320   3.254   4.319 -0.0856  0.4656  0.0935
25875W        W44729   4.248   4.357   0.948  0.4173 -0.1296  0.2112
25876W        W44730   4.147   7.493  14.179  0.1585 -0.0060 -0.2686
25877W        W44731  11.357   5.654   9.562 -0.1524  0.1379 -0.2169
25878W        W44732  13.227   2.731  11.566  0.0712 -0.2030 -0.0400
25879W        W44733  16.601   8.615   0.064  0.0482 -0.0463  0.3056
25880W        W44734  10.896   8.818   1.489 -0.0075 -0.0120  0.1335
25881W        W44735   2.434   4.380  12.417  0.5061 -0.5039 -0.1945
25882W        W44736  16.141   7.552  12.701 -0.2125  0.0548  0.2339
25883W        W44737   1.700   0.503   0.596 -0.3113 -0.3106  0.2392
25884W        W44738  18.426   7.552   0.650 -0.1212 -0.0355  0.0028
25885W        W44739  14.957   2.317   4.473 -0.1456  0.0081  0.0467
25886W        W44740   8.081  15.064   4.504  0.1878 -0.0317 -0.1796
25887W        W44741   6.849   0.384  10.361 -0.0274 -0.2877  0.0546
25888W        W44742   3.793  10.127   0.382  0.0195 -0.1324  0.1556
25889W        W44743  16.687  14.475   2.272 -0.1361  0.1280 -0.1064
25890W        W44744  16.071   6.984  11.477  0.1122 -0.4277  0.1206
25891W        W44745  16.837   8.927  13.587 -0.0932 -0.1358  0.1379
25892W        W44746  10.044   8.371   4.900 -0.0609  0.2074  0.2537
25893W        W44747   1.976   6.412   2.590  0.3902  0.2877 -0.1061
25894W        W44748   7.130   0.037  13.971 -0.0051  0.1164  0.1143
25895W        W44749   1.868   8.294  12.876  0.0354  0.2321  0.3109
25896W        W44750  18.297  10.332   2.783 -0.1830 -0.1090  0.1474
25897W        W44751   3.905   3.228   0.249  0.1960 -0.0774 -0.4022
25898W        W44752  10.911  10.212  10.662 -0.0405 -0.0869  0.1132
25899W        W44753   5.485   4.288  14.393  0.0461 -0.0199 -0.0425
25900W        W44754  18.422   3.886  14.665  0.0699  0.0645 -0.0869
25901W        W44755  15.174   2.320  11.971  0.0939  0.1484 -0.0354
25902W        W44756  13.996   7.503  12.375  0.0383 -0.1483 -0.1552
25903W        W44757  17.094  16.836   0.169 -0.0695  0.2674 -0.1683
25904W        W44758  18.253   2.686  12.976 -0.1294  0.1788 -0.0076
25905W        W44759  12.279   3.374  12.691 -0.1056  0.1314  0.1543
25906W        W44760   5.095  14.840  11.783 -0.0737  0.1575  0.1789
25907W        W44761  15.632   7.965   1.264 -0.0882  0.2848  0.0515
25908W        W44762   8.634  13.307  14.099 -0.2226 -0.2586  0.2925
25909W        W44763  13.700  13.463   1.879 -0.1041 -0.1400 -0.2208
25910W        W44764   1.412   5.523  14.447 -0.0166 -0.1409  0.1293
25911W        W44765  18.469   5.722   0.247  0.0186 -0.0122  0.1643
25912W        W44766  19.071  12.855   3.503 -0.0451 -0.0819 -0.0388
25913W        W44767   0.286   2.779   2.647 -0.0417  0.0535  0.1830
25914W        W44768   4.596  12.984   1.979  0.0927  0.1435  0.1252
25915W        W44769   0.279  14.545   1.166  0.0266 -0.0262  0.1460
25916W        W44770  18.776   0.636  13.043 -0.1688  0.2399 -0.2233
25917W        W44771   3.522   0.286   4.202 -0.0627 -0.1189  0.2909
25918W        W44772   3.474   3.757   0.973  0.1883  0.0536  0.1774
25919W        W44773  17.640   4.573   0.160 -0.0487 -0.1643 -0.4206
25920W        W44774   0.294  10.612  10.792 -0.0433  0.2915  0.2080
25921W        W44775  11.296   0.758   2.804 -0.2843  0.1196  0.2301
25922W        W44776   9.870  18.511   0.488  0.2314  0.2312  0.1842
25923W        W44777   2.714  12.642   3.381 -0.1822 -0.0088  0.0842
25924W        W44778   8.784   4.529   1.468 -0.0810 -0.1072  0.0027
25925W        W44779   0.287   9.242  14.058  0.1925 -0.0102  0.0103
25926W        W44780  10.846  17.042  14.562 -0.1264  0.0463  0.0596
25927W        W44781   0.038  16.061  10.500 -0.3795 -0.0103 -0.1760
25928W        W44782  16.970  14.172   4.557 -0.0980 -0.0568  0.0324
25929W        W44783  11.756  14.184  13.462 -0.1171 -0.0834  0.0894
25930W        W44784   6.709   4.563   4.503 -0.1041  0.2062  0.1599
25931W        W44785  16.153  15.451   1.020 -0.3737  0.0671  0.0838
25932W        W44786   1.106  11.697  11.428  0.0624  0.1038  0.0104
25933W        W44787   8.177  10.647  13.319  0.0748 -0.0093  0.1456
25934W        W44788   5.023  10.467   3.779 -0.1210 -0.2017 -0.0022
25935W        W44789   7.610   1.391  11.572  0.0688  0.1282 -0.1462
25936W        W44790   2.892  16.675   0.152  0.1796  0.1544  0.0518
25937W        W44791   9.448   6.523   2.688  0.2028 -0.0750  0.0317
25938W        W44792   3.599   7.692  10.053  0.0760 -0.0726 -0.2599
25939W        W44793   7.480   4.275   1.457  0.2439 -0.3549  0.1024
25940W        W44794   7.853  11.046   2.777  0.2236 -0.1942 -0.2032
25941W        W44795  17.720  17.195   0.488 -0.2245  0.0194 -0.3582
25942W        W44796  13.865  14.619  10.998 -0.0820  0.1874 -0.1554
25943W        W44797  16.859  16.458   1.909 -0.4868 -0.1023  0.0633
25944W        W44798   9.866   5.260  10.753  0.0376  0.1859  0.1039
25945W        W44799  13.114   0.240   4.347  0.1934 -0.1365 -0.0986
25946W        W44800   1.528  10.065  10.618 -0.0864 -0.1408 -0.0830
25947W        W44801   0.568   1.707  11.152  0.1309  0.2541 -0.0305
25948W        W44802  10.149   7.886   0.104 -0.0726 -0.1208 -0.1087
25949W        W44803   9.731  12.002   0.906  0.0401 -0.2671 -0.3718
25950W        W44804  11.068   4.528   1.746  0.0699  0.0981 -0.0098
25951W        W44805  11.432   0.493   4.383  0.1786 -0.0329  0.0013
25952W        W44806   5.239   1.087   1.452 -0.1757  0.3189 -0.1155
25953W        W44807  17.504   8.158  13.772  0.0272  0.5412 -0.2462
25954W        W44808   6.931   3.094  13.036  0.2041 -0.0394  0.1450
25955W        W44809   7.254  15.611   2.810 -0.3108 -0.2122  0.0331
25956W        W44810   0.019  14.164   2.079  0.0962  0.1183  0.0707
25957W        W44811  14.363   1.009   5.071  0.0014  0.1165  0.4772
25958W        W44812   1.687   5.987  12.686 -0.0912  0.1553 -0.1382
25959W        W44813  12.553  12.821   1.661 -0.0859  0.0391  0.0104
25960W        W44814   8.838   8.313  13.396 -0.3054  0.1889  0.1062
25961W        W44815  14.071  14.764   0.100  0.2858  0.2852  0.1168
25962W        W44816   8.053  18.511   0.120 -0.0846 -0.1820  0.1304
25963W        W44817  14.905   4.268  10.614 -0.2307  0.2107 -0.2213
25964W        W44818   3.647  10.029  10.953  0.1531  0.3005 -0.1661
25965W        W44819   4.729  16.776   3.143 -0.0294  0.3265 -0.0601
25966W        W44820   7.938   2.153  13.395  0.1113 -0.1076 -0.0861
25967W        W44821   1.883  10.067   5.268 -0.2713  0.0123 -0.1101
25968W        W44822  16.769  10.881  10.592  0.2708  0.4808  0.2022
25969W        W44823  17.265  10.441  12.362  0.2920 -0.2752 -0.1745
25970W        W44824   7.547  10.602  12.038  0.1032 -0.0031 -0.0471
25971W        W44825  13.758  10.419  14.326  0.5241 -0.4210 -0.0544
25972W        W44826   9.370  16.267   0.826 -0.1470  0.1199  0.0059
25973W        W44827   0.482   0.778  11.437 -0.1340  0.1497 -0.0582
25974W        W44828  14.913   0.310  12.927  0.2393  0.0285 -0.0227
25975W        W44829  15.934  19.046  13.782  0.0359 -0.1624 -0.0717
25976W        W44830  16.816   8.092   2.922 -0.0010  0.0543  0.0089
25977W        W44831  13.250  17.256   4.312  0.0832  0.0260  0.1428
25978W        W44832  12.543  18.256  11.056 -0.3264 -0.3874  0.0177
25979W        W44833   8.944  13.221   3.609  0.3995 -0.0986  0.0468
25980W        W44834   2.915  15.354   3.117  0.3012 -0.0154 -0.1512
25981W        W44835  11.051   1.396   4.633  0.0658  0.0907 -0.1358
25982W        W44836   1.047   3.091   1.752 -0.2553  0.0062  0.3475
25983W        W44837  18.470  12.157   4.008  0.0111  0.1564 -0.0495
25984W        W44838   1.192   2.205   2.858  0.1521  0.1061 -0.3673
25985W        W44839  13.038   6.165  13.176  0.0587 -0.0276 -0.2033
25986W        W44840   9.798   8.237  12.424  0.0193 -0.1738 -0.0452
25987W        W44841   7.308   7.398  10.938 -0.0511 -0.1262 -0.0271
25988W        W44842   8.882  15.724   4.472  0.0535 -0.0735 -0.2639
25989W        W44843   9.303   8.130  12.389 -0.0403 -0.3065 -0.1541
25990W        W44844   3.996  17.225   4.780  0.0629  0.0010 -0.0965
25991W        W44845   2.220  11.906  10.346  0.0364  0.0603  0.1228
25992W        W44846  16.479   8.688  12.703  0.1338  0.1543  0.0591
25993W        W44847   1.872  17.443  10.468 -0.2900  0.0547 -0.1761
25994W        W44848  10.027   7.738  13.815 -0.0404  0.1160 -0.0262
25995W        W44849   6.348  10.711   4.771  0.3723  0.1372 -0.0966
25996W        W44850  14.883  13.738   2.251  0.0196 -0.2618 -0.1157
25997W        W44851  10.244  11.948  10.723 -0.0400  0.1944 -0.1720
25998W        W44852  15.097  10.850   2.612 -0.2526 -0.3246 -0.2321
25999W        W44853  10.488   3.022  14.498  0.0505 -0.2458 -0.2385
26000W        W44854  18.344  17.401  12.013 -0.0097  0.3588  0.2053
26001W        W44855  15.876  14.229  13.248  0.3068 -0.3308 -0.1180
26002W        W44856   9.626  15.926   2.634  0.1705 -0.2782  0.2485
26003W        W44857   0.736   0.520  14.448  0.0138 -0.2901  0.0527
26004W        W44858   1.735  19.114   0.984  0.1381  0.2521  0.0995
26005W        W44859  15.717   6.982  13.366 -0.1201 -0.0472 -0.0394
26006W        W44860  12.645  13.104   1.279  0.0274 -0.1000  0.0464
26007W        W44861   0.813   3.274   3.198  0.1567  0.3057  0.2821
26008W        W44862  13.796   6.081   0.485  0.3468  0.4401 -0.2270
26009W        W44863   0.993  17.482   2.468 -0.2325 -0.0335 -0.1580
26010W        W44864   2.893   3.910  11.149  0.1344  0.0610  0.1204
26011W        W44865   4.771   3.402   3.974 -0.3937  0.4350  0.1030
26012W        W44866  12.729   5.196  13.033 -0.0815  0.1928 -0.3252
26013W        W44867  10.626   5.280   1.691  0.1033 -0.1668 -0.1393
26014W        W44868  15.257   8.589   2.203  0.0156  0.0617 -0.0684
26015W        W44869  11.594   5.331  10.840 -0.1686 -0.1907 -0.1748
26016W        W44870  11.310  13.194   1.130  0.4820 -0.1307  0.0348
26017W        W44871   9.458   4.839   3.185  0.0128 -0.0024  0.0484
26018W        W44872  13.635  14.016  11.688  0.0612 -0.3405  0.2322
26019W        W44873   9.396   5.600   3.001 -0.0094 -0.0044 -0.0266
26020W        W44874   5.085  10.575  13.761  0.2469  0.2111 -0.2213
26021W        W44875   5.851   3.649  12.597  0.2466 -0.1374 -0.3780
26022W        W44876  14.022   4.015   9.894 -0.0581  0.1262 -0.2723
26023W        W44877   6.517  14.954  11.708  0.1096  0.1335 -0.1159
26024W        W44878   3.991  14.147   0.318 -0.2565  0.1459  0.3691
26025W        W44879   0.313  11.932  10.542 -0.0972  0.0257  0.0949
26026W        W44880   5.428   2.921  14.048  0.3259  0.1297  0.1085
26027W        W44881   4.799  16.310   1.341  0.0049 -0.3604  0.1240
26028W        W44882   4.858   0.162  13.027 -0.0380 -0.0650 -0.0351
26029W        W44883   3.274   9.712  10.764 -0.1468 -0.4066  0.0122
26030W        W44884  15.368   9.139   0.642 -0.1252  0.0295 -0.0692
26031W        W44885  16.731  14.071   1.911  0.0914 -0.0409  0.1162
26032W        W44886  10.503   0.823   1.901 -0.0917  0.2003  0.0757
26033W        W44887  14.379  15.635  12.802  0.2306  0.0099 -0.2177
26034W        W44888   6.748   0.451  11.942 -0.0951 -0.2610  0.1750
26035W        W44889  15.144  15.861   0.745 -0.0532 -0.2659 -0.0664
26036W        W44890   6.572  13.380  12.784 -0.3380 -0.0377  0.2297
26037W        W44891  17.706   9.157   2.508 -0.1205 -0.1614 -0.0052
26038W        W44892  17.110  14.469   3.673 -0.0816  0.1808 -0.2152
26039W        W44893   8.833   7.146   0.233  0.1340  0.0542 -0.2504
26040W        W44894   1.920   5.211   5.243 -0.0473 -0.1535  0.2661
26041W        W44895  10.881  14.899  14.211  0.1444 -0.0420  0.2552
26042W        W44896   5.460   4.912   4.022  0.2923 -0.2258  0.2226
26043W        W44897   3.412  10.147   2.107  0.1440  0.0965  0.1279
26044W        W44898  13.911  15.106  10.951 -0.0486 -0.0791 -0.0037
26045W        W44899  16.912  10.526   3.597  0.0150 -0.1602  0.2156
26046W        W44900   4.038  18.161  14.159  0.1892  0.1320 -0.2932
26047W        W44901  19.102  10.816  11.224  0.0057 -0.0553 -0.0221
26048W        W44902   7.073   6.622   9.407  0.0666 -0.3744 -0.1267
26049W        W44903  11.869   6.695  12.811 -0.0496 -0.1989 -0.0208
26050W        W44904  11.683  10.142  12.857  0.2716 -0.0726 -0.0349
26051W        W44905   3.090   0.325  12.596  0.3664 -0.0576 -0.0971
26052W        W44906   9.107   2.866  12.468 -0.1353 -0.2009 -0.1059
26053W        W44907  10.934   6.162   2.152  0.2951 -0.0227  0.0597
26054W        W44908   2.838  18.304  12.851 -0.1370  0.0736 -0.1953
26055W        W44909   7.314  12.993   3.661  0.0514 -0.0445  0.1777
26056W        W44910   0.497  17.450  11.093 -0.0466  0.1039  0.1691
26057W        W44911  17.644   0.332   1.865  0.2265  0.0777  0.3747
26058W        W44912   5.877  13.716   1.483 -0.0084  0.0899 -0.1949
26059W        W44913   5.656   6.678   4.363  0.3531  0.1282  0.2991
26060W        W44914  13.653   2.770   4.313 -0.1110  0.1003  0.1174
26061W        W44915   0.308   5.801  11.617  0.2154  0.2956  0.0095
26062W        W44916  16.442   6.188   1.528 -0.1971 -0.2332  0.0238
26063W        W44917  16.536   1.872  13.600  0.0527 -0.2001  0.1045
26064W        W44918   1.747  11.880   1.175  0.3582 -0.0475  0.1050
26065W        W44919  17.393   1.788   4.143 -0.1309  0.2313  0.0399
26066W        W44920   7.785   7.330   4.563 -0.0552  0.0105  0.0151
26067W        W44921  13.690  18.443  11.703  0.1579 -0.0046 -0.0718
26068W        W44922   2.032   9.723  12.161 -0.2272 -0.0590  0.1489
26069W        W44923   8.707  13.569   4.344 -0.0852 -0.1311 -0.1355
26070W        W44924   5.651  11.556  11.025 -0.4128 -0.1879 -0.4300
26071W        W44925   6.489   8.552   2.021  0.1565  0.2362  0.2094
26072W        W44926   9.897  12.112   4.543  0.1102  0.0904  0.1528
26073W        W44927  17.554  15.513  14.678 -0.2670 -0.1173  0.0781
26074W        W44928   6.130  14.747   0.884 -0.1662  0.0641 -0.1107
26075W        W44929  10.477   6.863   0.576 -0.0948 -0.0595  0.2886
26076W        W44930   6.517   6.174  11.484 -0.4360 -0.0219  0.0255
26077W        W44931  18.804  18.218  14.414  0.0253 -0.2124  0.1608
26078W        W44932   6.738   1.110  13.732 -0.1945 -0.1115 -0.2474
26079W        W44933   2.528   7.685  11.040  0.3627 -0.1869 -0.2220
26080W        W44934   7.816   4.267   2.663 -0.2129 -0.0571  0.2813
26081W        W44935  10.341  15.579  12.499  0.0258  0.0198 -0.0376
26082W        W44936  13.384   1.490   2.844 -0.1253 -0.1465 -0.0038
26083W        W44937   3.348  16.766   2.705 -0.2368 -0.0466  0.0085
26084W        W44938   4.157  17.439   3.398  0.1371 -0.3856  0.4015
26085W        W44939  17.076  16.417  12.667  0.2050 -0.2098  0.0251
26086W        W44940  16.839  16.646   1.107  0.0542 -0.2069  0.1660
26087W        W44941   4.524  12.446  12.090 -0.2337 -0.1168  0.0112
26088W        W44942   6.996  13.438   4.051 -0.0742  0.3059  0.0633
26089W        W44943  12.654   0.452  13.989  0.0480  0.0432 -0.2018
26090W        W44944   0.710   1.616  12.862 -0.2599  0.0901  0.2237
26091W        W44945  18.693   4.059   4.057  0.0058  0.0230  0.0875
26092W        W44946  11.283   6.483  11.606 -0.2440  0.1731 -0.2806
26093W        W44947  10.554  11.241  13.704 -0.0177  0.3377  0.1252
26094W        W44948  10.726   4.021  13.321 -0.0329 -0.0301  0.2759
26095W        W44949   5.327  16.295  11.139  0.0297  0.4456 -0.2491
26096W        W44950  12.598   9.220  14.158 -0.0540 -0.0235  0.1562
26097W        W44951  16.262  14.527  13.455  0.2350  0.0942  0.1554
26098W        W44952  11.214  11.361   3.887  0.2987 -0.1204  0.0983
26099W        W44953   3.756   4.846  11.984 -0.0319  0.1756  0.3344
26100W        W44954   3.839   6.923   1.020 -0.0768  0.2881 -0.0866
26101W        W44955  13.062   8.206  10.921  0.0098  0.0980 -0.4111
26102W        W44956   1.904   1.236   0.711  0.0407  0.0952  0.0034
26103W        W44957   1.465  12.144   0.035 -0.1556  0.1740 -0.0765
26104W        W44958  13.307   0.663  11.120 -0.0403  0.1236 -0.0575
26105W        W44959  12.338   0.939   0.375 -0.0555 -0.1839 -0.0022
26106W        W44960  14.712   8.621   2.585 -0.0228  0.3240 -0.1768
26107W        W44961   4.955  14.041   3.700  0.0383 -0.0609 -0.0627
26108W        W44962   9.125  16.218  11.967  0.1924  0.1941  0.0413
26109W        W44963   8.217   7.686  12.642  0.1470 -0.0590  0.1661
26110W        W44964   0.701  17.581   0.863 -0.3318 -0.1805  0.0862
26111W        W44965   5.644  18.613   2.298  0.5060  0.1246  0.2385
26112W        W44966   0.119   1.891  11.445 -0.0904  0.0803  0.2013
26113W        W44967   1.967   9.678  11.634 -0.3205 -0.0618  0.0065
26114W        W44968   9.779   2.837  12.611 -0.0220  0.1762  0.1488
26115W        W44969  13.023   6.732   0.579 -0.1511  0.2862 -0.2914
26116W        W44970  10.572  14.989   2.195 -0.0780 -0.2704  0.2843
26117W        W44971  17.885   0.674  13.803 -0.0165 -0.1571  0.1568
26118W        W44972   4.663   0.297  13.627 -0.2021  0.2075  0.0918
26119W        W44973  16.127   5.711   4.430  0.1012  0.0299 -0.2214
26120W        W44974  18.082  17.179   1.945  0.3752 -0.4056  0.1605
26121W        W44975  13.952  11.907  11.318 -0.0936 -0.2752  0.5866
26122W        W44976   1.435  16.064   1.864 -0.1047 -0.2193  0.1134
26123W        W44977  13.186  16.873   3.547  0.0111  0.2637 -0.1394
26124W        W44978  13.018  16.908   2.301 -0.0797  0.0848  0.2860
26125W        W44979   2.198   0.085   1.172  0.1677  0.2673 -0.1014
26126W        W44980  19.103   7.437   1.855 -0.0087 -0.2382 -0.1235
26127W        W44981  12.039   4.333   1.451 -0.0546  0.2019 -0.3849
26128W        W44982  10.351  13.304   4.043  0.3485  0.3105 -0.0474
26129W        W44983  14.656  14.898   2.923  0.1201  0.1258 -0.0382
26130W        W44984  14.228   2.863   0.103 -0.0469  0.1753  0.2437
26131W        W44985  12.880  13.555  11.292 -0.0195 -0.2268 -0.1760
26132W        W44986   1.551  10.687  12.488  0.4235  0.2288 -0.1661
26133W        W44987   5.356  16.790  11.247 -0.2289  0.0216  0.2679
26134W        W44988  16.055   7.617  12.207  0.0820  0.0700 -0.0452
26135W        W44989   5.517   7.223   1.898 -0.1380  0.0876 -0.2932
26136W        W44990  14.723   7.580  10.331 -0.0185 -0.0970  0.2976
26137W        W44991  11.342   7.737   3.673 -0.0572  0.1155  0.2156
26138W        W44992   8.979   4.726   2.996 -0.2126  0.1606 -0.2827
26139W        W44993   0.780  14.272  13.682 -0.0470  0.1388  0.2506
26140W        W44994  15.973  17.953   3.047  0.0782 -0.0908 -0.0424
26141W        W44995  10.434   2.754  12.574 -0.3877 -0.1343 -0.1290
26142W        W44996   0.080   9.435  11.217 -0.0948 -0.3238  0.0063
26143W        W44997  12.529  15.660   1.753  0.0041  0.2507  0.2691
26144W        W44998  16.979  18.029  10.570  0.3052 -0.1628  0.1599
26145W        W44999  13.451   5.507  13.997  0.1628 -0.0641  0.0830
26146W        W45000  17.599  13.600   3.328 -0.1651  0.1431  0.0322
26147W        W45001  17.670  12.587  13.048  0.3205 -0.1807  0.1534
26148W        W45002   3.826  13.860  13.771  0.1759 -0.0686 -0.0038
26149W        W45003   8.934  13.975   2.117  0.2201  0.3318  0.3252
26150W        W45004   8.215  17.648  12.551  0.3465 -0.1585 -0.0645
26151W        W45005  18.592  17.495   1.758  0.2241  0.4443  0.1316
26152W        W45006  11.959   5.031   3.902  0.1984  0.0055  0.0018
26153W        W45007  13.475   9.944  13.081  0.0482  0.0455  0.3182
26154W        W45008   8.108   3.637  11.960 -0.5483 -0.3532 -0.0621
26155W        W45009  15.925   9.981   0.951 -0.4621  0.0407 -0.3270
26156W        W45010   3.793  12.205   4.279  0.1688  0.0560  0.2841
26157W        W45011   6.042  18.406   3.937  0.2443 -0.4548 -0.1718
26158W        W45012  15.010  15.229  12.396  0.2766  0.0568 -0.0001
26159W        W45013   5.592   1.655   2.788 -0.0922 -0.0758 -0.0453
26160W        W45014  18.431  18.564   4.303 -0.0295  0.2015  0.1178
26161W        W45015   8.522  19.097  13.106 -0.1371  0.1433  0.0037
26162W        W45016  12.961  11.121  13.836  0.3263 -0.1475  0.1457
26163W        W45017   0.569  14.486   5.454 -0.0298  0.2100 -0.1377
26164W        W45018   0.557   5.564   1.018 -0.2029 -0.2713  0.0456
26165W        W45019   2.494   1.032   2.507 -0.2157 -0.0041 -0.1080
26166W        W45020   5.429   2.360   4.219 -0.0413  0.1650  0.1686
26167W        W45021  18.706   0.685   2.925 -0.0231  0.0455 -0.1835
26168W        W45022  11.138  12.809   3.888 -0.3132  0.1451  0.0603
26169W        W45023   1.668  12.133   2.821 -0.0737  0.3775  0.3639
26170W        W45024  11.764  12.832  12.967 -0.0910  0.1405  0.0600
26171W        W45025  18.906   7.308   3.359  0.1380 -0.2800  0.0993
26172W        W45026  10.725   5.366   1.146 -0.2602 -0.0924  0.0784
26173W        W45027  13.778  14.028   1.698  0.0928  0.3893  0.1324
26174W        W45028   9.616   1.130  14.412  0.0334 -0.2714  0.1087
26175W        W45029   0.326  17.455  13.605 -0.1802 -0.1677 -0.0529
26176W        W45030  15.155  10.723  14.729 -0.3314  0.0223  0.2106
26177W        W45031  17.073  10.059   3.600  0.2750 -0.1811  0.0723
26178W        W45032   0.275  11.734   2.701  0.1295  0.5047  0.1072
26179W        W45033   5.246   5.328  10.041  0.0755 -0.1833  0.2182
26180W        W45034  17.191   2.499  13.933 -0.3308 -0.1689  0.0965
26181W        W45035  18.052   3.084   0.384 -0.1646  0.1248 -0.0003
26182W        W45036   9.873  16.715   3.027 -0.2200  0.0299 -0.3052
26183W        W45037   1.542   8.103  11.350  0.1200 -0.1944  0.0645
26184W        W45038   1.599   2.025   3.104 -0.0839 -0.2498  0.0274
26185W        W45039  18.246  12.363  14.627  0.0811  0.1884  0.1992
26186W        W45040   5.285  16.278   3.405  0.3914  0.1852  0.1486
26187W        W45041   3.329   0.212  10.646 -0.0575  0.2274  0.1917
26188W        W45042  10.024  17.610   0.678  0.2888  0.3245  0.2511
26189W        W45043   8.396  16.880  10.527  0.0896  0.4607 -0.1668
26190W        W45044   9.135   4.005  13.720 -0.3353 -0.1378 -0.1667
26191W        W45045  15.657   4.594   1.169 -0.0111 -0.1374  0.0338
26192W        W45046   5.222  12.859  10.678 -0.0573 -0.0166  0.1292
26193W        W45047  14.827   6.002   1.426 -0.0061  0.0292 -0.2844
26194W        W45048  18.443   3.314   3.368 -0.0852  0.0574  0.0884
26195W        W45049   4.704  18.968   2.195 -0.1594 -0.3687  0.2185
26196W        W45050   4.200  13.139   4.686 -0.2075  0.2382  0.0420
26197W        W45051   9.396  16.950   1.949 -0.2491 -0.2274 -0.0021
26198W        W45052  19.142   9.931   1.689 -0.0451 -0.1671  0.0375
26199W        W45053  17.529  10.214   0.489 -0.1092 -0.0272 -0.0495
26200W        W45054  17.043   5.289   3.451 -0.0049 -0.2989  0.0074
26201W        W45055  12.777   6.383   3.440  0.0783 -0.1757  0.0012
26202W        W45056   6.176   5.771  11.674  0.0679  0.2877  0.1272
26203W        W45057   0.585  18.362  11.624  0.1121 -0.1532 -0.1029
26204W        W45058  15.083  14.172  11.704 -0.2218 -0.3922 -0.1274
26205W        W45059   2.151   1.664   3.005  0.1158  0.3335  0.1772
26206W        W45060  16.355   1.517  13.933 -0.0742  0.0546 -0.0442
26207W        W45061   3.701  18.014   9.569  0.0973 -0.1135 -0.1409
26208W        W45062  15.084   6.011   1.003 -0.1966 -0.2350  0.2019
26209W        W45063  17.482  12.725  10.861  0.4651  0.0690 -0.3027
26210W        W45064  11.479  10.964   2.761  0.0817 -0.0160 -0.2424
26211W        W45065   2.581  18.387  14.552 -0.0306  0.0944 -0.0226
26212W        W45066   6.628  14.912  12.220 -0.1402 -0.0126  0.4088
26213W        W45067   4.150  16.991   3.806  0.0892 -0.0292  0.0791
26214W        W45068   4.980  13.408   9.820 -0.1622 -0.0762 -0.3221
26215W        W45069  18.076   8.888   2.998 -0.2449  0.0218 -0.1741
26216W        W45070  10.282   5.072  12.272 -0.1958  0.3835  0.0725
26217W        W45071   4.780   5.614   0.506  0.0133 -0.1365 -0.1728
26218W        W45072   3.119  16.698   4.251  0.1784 -0.2565 -0.1060
26219W        W45073  10.955   5.840  11.024 -0.0310  0.0613 -0.1176
26220W        W45074  15.552   0.119  11.352 -0.2336  0.2329  0.0739
26221W        W45075  15.908   1.521   1.031  0.0931  0.0493  0.3229
26222W        W45076   8.577  11.388   3.851 -0.1851 -0.2909  0.0746
26223W        W45077   4.806   1.084   2.083 -0.1790  0.0769  0.5395
26224W        W45078  15.961   9.587  13.403  0.3773 -0.2230  0.1996
26225W        W45079   1.795  17.076  13.451  0.3432 -0.1375  0.0177
26226W        W45080   0.355   9.807   1.430  0.0304 -0.1229  0.2926
26227W        W45081   6.914   2.790   2.545 -0.1415  0.0054  0.2849
26228W        W45082  13.381  14.989  13.166 -0.2843  0.0942  0.2108
26229W        W45083  16.703   1.240   1.490 -0.1346  0.0458 -0.1966
26230W        W45084   7.179   2.966   3.484  0.1003 -0.0598  0.1095
26231W        W45085   0.211  11.344   3.531  0.3563 -0.0043 -0.0435
26232W        W45086   4.988  13.676   2.310 -0.2127 -0.0557 -0.1981
26233W        W45087  11.267  16.921  13.565 -0.0701  0.0676 -0.1045
26234W        W45088  13.664  15.398   1.164 -0.1038  0.1485 -0.5064
26235W        W45089   9.711  15.888  10.688 -0.2736 -0.0724 -0.3768
26236W        W45090   7.859   9.628  11.060 -0.2086  0.3617  0.1047
26237W        W45091  15.265   8.531   0.452 -0.0802  0.1555 -0.1528
26238W        W45092  10.983   7.965  12.999 -0.3160 -0.2825 -0.2484
26239W        W45093   1.658  12.962   1.117  0.0836 -0.2198 -0.1742
26240W        W45094   6.504  10.518  10.869  0.0864  0.0559 -0.0383
26241W        W45095   8.778   6.979  14.508 -0.0027 -0.3366 -0.3119
26242W        W45096   4.470  13.185  10.864  0.1724  0.2511  0.1517
26243W        W45097  11.720  17.655  11.383  0.0003  0.2071 -0.0869
26244W        W45098  11.794   6.636  12.269 -0.0207  0.1066  0.0423
26245W        W45099   7.151   1.597  12.416  0.0766 -0.0966  0.0366
26246W        W45100  16.435  18.009   2.099 -0.1960 -0.2353  0.1391
26247W        W45101   5.084  16.843   1.182  0.0073  0.2879  0.0182
26248W        W45102  17.514   1.872  13.111  0.2613  0.3303 -0.1592
26249W        W45103  10.882  17.622  12.817  0.0263 -0.0277  0.2183
26250W        W45104   7.321   3.631  11.676 -0.0179  0.1876  0.1017
26251W        W45105   6.666   7.275   3.653  0.2792 -0.2236  0.1359
26252W        W45106  17.063   6.716  11.632  0.1177 -0.1713  0.0023
26253W        W45107   9.071   8.327  12.902 -0.4536 -0.1849 -0.0913
26254W        W45108   1.375   3.670  14.392 -0.1931 -0.0905 -0.2086
26255W        W45109   7.804  15.746  11.936  0.1919 -0.0326 -0.2472
26256W        W45110   0.828   3.733  14.486  0.2177  0.3873  0.2630
26257W        W45111   0.361   7.130   4.323 -0.0170 -0.1344 -0.1663
26258W        W45112   1.661   1.251   4.291  0.2051 -0.1256 -0.0463
26259W        W45113   5.324   2.890  11.903 -0.1552  0.2270  0.1123
26260W        W45114   9.660  12.985   1.780  0.3824  0.0826  0.3414
26261W        W45115   9.281   9.842   9.743  0.0466  0.2423  0.0762
26262W        W45116  18.763  13.157   3.009 -0.0958  0.3187  0.0616
26263W        W45117   9.574   6.603  14.428 -0.2735  0.4374  0.0566
26264W        W45118  15.567  15.537   0.148  0.1006  0.0088  0.1766
26265W        W45119  19.131  11.706   4.597 -0.1799  0.1075  0.5033
26266W        W45120   3.229   3.878  14.063  0.1303 -0.0693 -0.1212
26267W        W45121   7.237   2.434   0.230  0.1771 -0.0614  0.0949
26268W        W45122  12.223   9.693   2.362  0.1135  0.0841  0.2709
26269W        W45123   1.026   1.064  11.946  0.0733 -0.1727 -0.0048
26270W        W45124   4.845  11.093   1.629 -0.2371  0.0667 -0.0682
26271W        W45125   5.111  12.077  10.536  0.0890 -0.2433 -0.1646
26272W        W45126  18.285  10.102   1.658  0.2503 -0.1524 -0.0697
26273W        W45127   2.088   5.519   4.257 -0.1646  0.0238  0.0989
26274W        W45128  18.525   8.526  10.919  0.1709 -0.1871 -0.0605
26275W        W45129   7.390   0.443  14.093  0.3014  0.1099 -0.0658
26276W        W45130   3.831   2.180  12.189  0.0402  0.5331 -0.2691
26277W        W45131  16.949  17.605   3.214  0.0327 -0.2666 -0.0440
26278W        W45132   4.123   3.829  14.271  0.2547 -0.0241  0.0187
26279W        W45133   1.171  17.337   1.011  0.3102  0.3420  0.0490
26280W        W45134  13.116   8.002  10.150 -0.0434 -0.0248 -0.0492
26281W        W45135  13.843  10.832  13.532  0.0992 -0.3364 -0.3983
26282W        W45136  18.082   4.142  13.265  0.1812 -0.0136 -0.3631
26283W        W45137   4.257  12.502   3.932  0.1351 -0.1326 -0.3233
26284W        W45138  14.508  17.314   1.452  0.2060  0.1979  0.1756
26285W        W45139  15.921  11.646  13.178 -0.0829 -0.0349  0.0071
26286W        W45140  19.148  12.797   4.242  0.1278 -0.1333  0.0725
26287W        W45141   0.555   6.046   4.104 -0.0567  0.2490 -0.0729
26288W        W45142   4.701  16.043   2.277 -0.0195 -0.0751  0.0770
26289W        W45143  15.361  10.830  11.396 -0.4470 -0.0032 -0.0662
26290W        W45144  16.866   5.085  13.425  0.0984 -0.0179 -0.2529
26291W        W45145  14.835   9.485   3.466 -0.1305 -0.2228 -0.2281
26292W        W45146  18.205  17.827  11.190  0.0087 -0.0762 -0.1176
26293W        W45147   5.195   5.428   2.403 -0.5416 -0.0590 -0.0960
26294W        W45148  11.011  16.164   2.269 -0.1586  0.2130  0.0317
26295W        W45149   8.513   9.005  14.288  0.0850  0.0207 -0.0788
26296W        W45150  13.970  12.470   4.582  0.0666  0.2208  0.4404
26297W        W45151  17.268   2.923  14.715 -0.0306 -0.1203 -0.1592
26298W        W45152   2.304   1.847  10.645 -0.0726  0.2543  0.0681
26299W        W45153  11.829   5.846   1.740 -0.2798 -0.3901 -0.1490
26300W        W45154  12.991   9.191   4.203 -0.3097 -0.2394 -0.0991
26301W        W45155   6.893  18.512   1.351 -0.2633  0.0116  0.0276
26302W        W45156   1.620  17.540   1.187 -0.2728  0.1868  0.0305
26303W        W45157   3.736   0.595  11.984 -0.2157  0.0795  0.2462
26304W        W45158  18.441   1.900   1.833 -0.0967 -0.2654  0.0171
26305W        W45159  13.244  14.533  14.596  0.0912  0.0844 -0.1150
26306W        W45160  16.327   9.599   1.704  0.2722  0.0297 -0.0904
26307W        W45161   6.336  13.406   2.150  0.1309 -0.1657  0.0628
26308W        W45162   6.912   8.862   4.118  0.1332  0.3052 -0.1513
26309W        W45163   5.820   2.509   3.941 -0.1474 -0.0807  0.2507
26310W        W45164   7.422  13.435   0.213  0.0337  0.2268  0.2186
26311W        W45165  14.771   1.812  11.288 -0.0701  0.0103  0.0604
26312W        W45166  11.165  12.246   9.016  0.1908 -0.0487  0.0180
26313W        W45167   7.567  16.877  13.562  0.3549 -0.1624 -0.1548
26314W        W45168  19.159   5.821   1.835  0.0843  0.3868 -0.1943
26315W        W45169   9.766  18.331  11.443 -0.0824 -0.0477 -0.0512
26316W        W45170   7.798   4.165   0.429 -0.2415 -0.0061 -0.3351
26317W        W45171  18.595  10.246  13.702 -0.1696 -0.0828 -0.1738
26318W        W45172   5.690   5.904  11.835 -0.0589  0.3465  0.0510
26319W        W45173  10.047   2.698   3.968 -0.4139  0.0101  0.0887
26320W        W45174   1.590   9.966  14.731 -0.0131  0.0309  0.1038
26321W        W45175  15.003   0.404   0.104 -0.2867  0.0564  0.0086
26322W        W45176   9.853   5.695  13.858 -0.5943 -0.0106 -0.1232
26323W        W45177  14.178   9.170   1.026  0.0184 -0.1237 -0.1751
26324W        W45178   7.130   3.334  13.674 -0.0748  0.0763  0.0884
26325W        W45179   9.311   7.576  10.213 -0.0535  0.1959  0.1191
26326W        W45180  12.374  15.371  10.261  0.1311 -0.0902 -0.2824
26327W        W45181  16.720   1.071   0.461 -0.0581  0.0256 -0.0070
26328W        W45182   0.850  13.750  12.324 -0.1731 -0.1020 -0.1376
26329W        W45183  16.823   1.741  12.394 -0.1394 -0.4250 -0.0357
26330W        W45184  12.000   9.899   8.806 -0.0230  0.1443 -0.0164
26331W        W45185  13.643   3.788  14.155 -0.1796 -0.0691  0.0535
26332W        W45186   7.984  13.746  13.499  0.2548 -0.2170 -0.0162
26333W        W45187  18.310   9.032   0.192 -0.0086  0.1250  0.2154
26334W        W45188   6.083   3.939   1.017  0.2792  0.0840  0.0061
26335W        W45189  15.049  16.669   2.268 -0.2140 -0.0620 -0.2002
26336W        W45190  16.899   6.633   3.519 -0.1541 -0.3819  0.1396
26337W        W45191   1.945   5.922  11.698 -0.0073 -0.2623 -0.1211
26338W        W45192   6.111   3.394  12.978  0.1867 -0.3994 -0.0564
26339W        W45193  10.266  10.911   2.253  0.1825  0.1773 -0.1593
26340W        W45194  16.155  16.553  12.929  0.1619  0.2827 -0.2135
26341W        W45195   2.205   7.403  12.634 -0.0399  0.1658  0.0352
26342W        W45196   9.975   9.236  13.439  0.1620  0.4342 -0.1705
26343W        W45197  15.906   8.334   1.523  0.0186 -0.3244  0.0782
26344W        W45198   4.062  13.235   5.179 -0.0958  0.0714 -0.0471
26345W        W45199  13.487  16.306  12.420 -0.1918  0.1907  0.1667
26346W        W45200   4.191   5.157   1.795  0.0093 -0.0256 -0.1983
26347W        W45201  15.347  17.250   0.150  0.2577  0.0277  0.0772
26348W        W45202  11.616   7.496  10.530 -0.0241 -0.2783  0.1982
26349W        W45203  10.269   6.999  14.012  0.0370  0.2400  0.2812
26350W        W45204  14.398   1.944   1.275  0.1616 -0.0575  0.1895
26351W        W45205  13.400   3.078  14.259 -0.1748  0.3121 -0.0307
26352W        W45206  18.300   7.834   1.644  0.1550 -0.0417  0.0758
26353W        W45207   6.686   2.964   3.683 -0.3307 -0.0654 -0.1736
26354W        W45208  10.075   4.886  10.971  0.0020  0.2439  0.2457
26355W        W45209  17.640  11.222   2.024 -0.1792  0.2284 -0.0228
26356W        W45210  17.011  14.506   4.244  0.2936  0.0465 -0.1651
26357W        W45211  10.750  18.637   2.616 -0.0428 -0.2023 -0.0500
26358W        W45212  17.102   2.944   3.053 -0.0511  0.0964 -0.2264
26359W        W45213   3.912  19.023  14.429  0.1972  0.0037  0.0979
26360W        W45214  11.747  16.826   1.214 -0.0393 -0.3331  0.2223
26361W        W45215   7.131   8.437  11.153 -0.1174 -0.2378  0.1161
26362W        W45216  16.595  17.231   3.128  0.0293  0.1777 -0.0996
26363W        W45217   7.841   2.019  10.872  0.3592  0.0277  0.2313
26364W        W45218  13.777  17.732   2.397  0.3918 -0.0794 -0.2221
26365W        W45219  14.768  14.592  11.606  0.1657 -0.0305  0.0792
26366W        W45220  18.668  10.276  10.678  0.0538  0.0546  0.3227
26367W        W45221   4.727   0.531  10.332 -0.1765 -0.2682 -0.2324
26368W        W45222  15.620   1.036   3.839 -0.0712 -0.0190  0.2177
26369W        W45223   7.378   7.192  14.702 -0.2621  0.1122  0.2455
26370W        W45224   3.260  17.165   0.471  0.0302  0.3077  0.2327
26371W        W45225   7.835   9.150  10.974  0.0490  0.1635  0.1345
26372W        W45226   0.831   3.376   4.071 -0.0699 -0.0724 -0.1155
26373W        W45227   1.688  16.686   3.061  0.4293  0.0187 -0.2702
26374W        W45228   3.606  13.416   0.770 -0.0858 -0.0223  0.2477
26375W        W45229  16.814  13.831  10.069  0.1560 -0.1653 -0.1113
26376W        W45230  10.347   8.599  11.043 -0.0736  0.2101  0.1254
26377W        W45231  17.290  17.490   1.225  0.0456 -0.0345 -0.0102
26378W        W45232   6.799  18.426   5.202 -0.1664  0.1988 -0.1033
26379W        W45233  16.615  10.766   3.243 -0.2693  0.2531 -0.0257
26380W        W45234   3.035   9.960   3.592  0.1541 -0.0071  0.1850
26381W        W45235  10.792   5.704  12.788  0.0284 -0.0065  0.1477
26382W        W45236   0.328  13.015   1.317 -0.1892  0.0157  0.1361
26383W        W45237   4.480  12.040   3.059  0.2130  0.0044 -0.1193
26384W        W45238   8.534  12.805  11.470  0.2343 -0.0493 -0.0170
26385W        W45239  13.417   5.682   2.216 -0.4684  0.0291  0.1724
26386W        W45240  19.181   9.325   5.507  0.1859 -0.0410  0.2055
26387W        W45241   5.042  16.675  14.646 -0.0894 -0.1153 -0.2335
26388W        W45242   9.455  14.842   1.407 -0.1822  0.4609  0.1294
26389W        W45243  14.618  12.381  13.465  0.0292  0.1794  0.0165
26390W        W45244  18.767   1.157   9.329  0.1207 -0.0131 -0.1342
26391W        W45245  14.556  10.299  10.606 -0.1870 -0.0335 -0.0670
26392W        W45246  18.994  12.362  11.322  0.4385  0.1450  0.0367
26393W        W45247   4.113  13.202   2.333  0.0813  0.3474 -0.2771
26394W        W45248   2.356   5.408   1.493  0.1243 -0.3646  0.0428
26395W        W45249   3.927   6.311  13.176 -0.0669  0.3473 -0.2337
26396W        W45250  18.735   8.225   4.870 -0.0730  0.0484  0.3979
26397W        W45251  17.447   8.275   2.819 -0.0238  0.0010 -0.2209
26398W        W45252   4.683   0.270   2.397  0.0971  0.2385 -0.1853
26399W        W45253   3.647   5.657   3.092 -0.2720  0.3074  0.0047
26400W        W45254   3.160   8.177   3.512  0.4643 -0.0713  0.1241
26401W        W45255  12.405   7.804   0.653  0.4831  0.2294 -0.0532
26402W        W45256  11.821  17.946   0.506  0.2171  0.1515  0.1725
26403W        W45257  13.696   0.100   0.718  0.1738  0.0167  0.2692
26404W        W45258  10.921  10.868  13.511 -0.2302  0.1785  0.0615
26405W        W45259  14.005   5.351  12.636  0.2587 -0.1173  0.0025
26406W        W45260   4.764   7.770  13.421 -0.2232 -0.3099  0.0302
26407W        W45261   9.829  12.507   1.015 -0.1107 -0.0648 -0.0658
26408W        W45262   3.902   7.317  11.548  0.1929  0.1762 -0.2268
26409W        W45263  13.120  18.448  13.411  0.0205  0.1695 -0.0503
26410W        W45264   0.162   9.553   0.899 -0.1913  0.3597 -0.4028
26411W        W45265   7.782   4.039   1.896 -0.0073 -0.2404 -0.0689
26412W        W45266  15.132   0.649   1.469  0.1000 -0.2084 -0.2677
26413W        W45267   9.271   4.622  10.762  0.0172  0.1037  0.0094
26414W        W45268   8.806   1.739  12.657  0.1653  0.1363 -0.0112
26415W        W45269  14.944   2.438  13.199 -0.0217  0.1054 -0.0559
26416W        W45270  12.773   0.398   3.800 -0.1713  0.2526  0.1513
26417W        W45271   9.786   2.681   2.531  0.3446  0.4302 -0.1102
26418W        W45272  11.038  18.559  13.099 -0.1357 -0.0246 -0.0162
26419W        W45273   7.085   5.459  12.878 -0.2095 -0.1064  0.4609
26420W        W45274  11.110  18.079   1.641 -0.0094 -0.0273  0.0628
26421W        W45275   7.776   2.383  14.682  0.1068 -0.0063  0.0271
26422W        W45276   8.654  18.196   4.010  0.4087  0.4761 -0.0116
26423W        W45277   9.372  13.834   4.225 -0.0385  0.1901 -0.0151
26424W        W45278   3.758   2.611   0.054 -0.2974  0.0191 -0.0152
26425W        W45279   8.325   5.170   2.311 -0.1988 -0.0759  0.4560
26426W        W45280   4.957   6.616   2.356  0.1771  0.1738 -0.1656
26427W        W45281   4.203   9.751  11.410 -0.0231 -0.1127 -0.0245
26428W        W45282   3.967  14.135   2.463  0.0558 -0.1339  0.2022
26429W        W45283   6.233  15.733  12.311  0.5348  0.0172  0.1381
26430W        W45284  18.366  11.323   4.484 -0.0200  0.1790 -0.1081
26431W        W45285   0.180   5.443   0.393  0.2813 -0.0499 -0.2642
26432W        W45286  11.307   6.454   1.520 -0.2857 -0.2556 -0.1211
26433W        W45287   3.002  18.605   3.913  0.1100 -0.1671 -0.1752
26434W        W45288   5.042  18.761   3.788 -0.2403 -0.1467  0.1474
26435W        W45289   4.457  14.592   4.103  0.0898 -0.2916  0.1105
26436W        W45290  13.976   9.539  14.663  0.2559 -0.1944 -0.0072
26437W        W45291  15.164  12.703   2.798  0.3203 -0.6184  0.0148
26438W        W45292  14.131   7.826   2.180 -0.1670  0.0419  0.0841
26439W        W45293   1.262  17.801   3.206 -0.4698  0.1800 -0.0859
26440W        W45294  13.369   8.135   1.504 -0.1382 -0.3226  0.1622
26441W        W45295   2.914   6.315  12.186 -0.2101  0.2053  0.3965
26442W        W45296   2.146   2.802  12.402  0.1552 -0.1072 -0.1293
26443W        W45297   4.228  10.715  14.636 -0.1342  0.1477 -0.3570
26444W        W45298  16.872   6.583   3.020  0.0110  0.1283 -0.0194
26445W        W45299  17.024  16.679   3.853 -0.1168  0.0833 -0.0962
26446W        W45300   6.664  18.252   2.451  0.2465  0.1545  0.2282
26447W        W45301  12.546   4.894   0.919 -0.1482 -0.2659 -0.2555
26448W        W45302   4.860  18.889  10.848  0.3511 -0.0502  0.2199
26449W        W45303   8.216  14.301  12.423  0.0485  0.1113 -0.1195
26450W        W45304  18.997   3.537   0.055  0.1642  0.0009 -0.1019
26451W        W45305  11.685   8.697   3.338  0.2940 -0.1491 -0.1995
26452W        W45306  18.365   3.395   1.341 -0.0419  0.4635 -0.3565
26453W        W45307  15.314  14.633  10.722 -0.0155  0.0499  0.1895
26454W        W45308   8.283  17.299   1.559 -0.2673  0.1360  0.0771
26455W        W45309   5.552  13.382  10.711  0.0729  0.0030 -0.1982
26456W        W45310   8.321   9.462  11.847  0.1955  0.0235  0.1185
26457W        W45311  17.871  18.891   2.792  0.1226  0.0459  0.1035
26458W        W45312  11.460   2.384   3.349 -0.0728  0.1321 -0.0144
26459W        W45313   4.330  12.795   4.988 -0.0595 -0.4505 -0.0590
26460W        W45314   1.966  18.788   1.328  0.0328  0.0291  0.2640
26461W        W45315   6.620   8.227  13.598  0.2166 -0.2843  0.0207
26462W        W45316   8.480  17.735   1.386 -0.2817  0.1280  0.3246
26463W        W45317  14.906  13.167  12.306 -0.0612 -0.0299 -0.0689
26464W        W45318   5.022  16.265   1.766 -0.0438 -0.1043 -0.5675
26465W        W45319   4.790  10.071  10.871 -0.3255 -0.2547  0.0763
26466W        W45320  16.955  10.043   2.152 -0.1399 -0.1004 -0.0971
26467W        W45321   6.955  11.589  12.894 -0.3468 -0.1427  0.1370
26468W        W45322  10.390   3.624   3.201 -0.0864 -0.3695 -0.0037
26469W        W45323  14.877   6.151  11.447  0.0095  0.4640  0.0460
26470W        W45324  12.474   6.338   3.923 -0.1045  0.2816 -0.2828
26471W        W45325   6.251  13.236   2.884  0.3106 -0.0999  0.0338
26472W        W45326  10.826  16.433   0.469 -0.4441  0.2030  0.1681
26473W        W45327   5.489   8.581  11.749  0.1451  0.2616  0.0713
26474W        W45328   2.023  13.329  14.584  0.2591  0.0222 -0.0299
26475W        W45329   2.829   8.818   3.178  0.0612 -0.0894 -0.0439
26476W        W45330   2.812  13.977   3.333  0.2106  0.1437  0.1314
26477W        W45331   0.676   3.097   3.648 -0.0079 -0.1379  0.2201
26478W        W45332   4.610   2.083   1.026 -0.0242  0.1133 -0.0206
26479W        W45333   7.092  12.736  10.733  0.1506 -0.1276  0.0710
26480W        W45334  17.420  13.006  13.741 -0.0069 -0.2407  0.0731
26481W        W45335  14.784   4.755  13.649 -0.1303 -0.3866 -0.0892
26482W        W45336  10.465  12.178   9.871 -0.1011 -0.1661 -0.2055
26483W        W45337   3.796   1.680  14.289  0.0569  0.1249 -0.0424
26484W        W45338  12.976   4.087  10.699  0.1422  0.0754  0.0290
26485W        W45339  18.886   9.787   0.296  0.3704 -0.1540 -0.0632
26486W        W45340   5.546  15.630  14.721  0.0560 -0.0044 -0.0818
26487W        W45341  18.391   8.090  11.289 -0.1287  0.0192 -0.1774
26488W        W45342  17.299  10.143  14.066  0.3727  0.3399  0.1289
26489W        W45343  14.342  12.813  12.300  0.4699 -0.1141 -0.1331
26490W        W45344  13.221  14.764  11.109 -0.0152 -0.1650 -0.2523
26491W        W45345   5.047   4.232   0.983 -0.2546 -0.0695 -0.0845
26492W        W45346   6.577  11.929   0.644 -0.1367 -0.0069  0.1695
26493W        W45347  14.653   3.488   2.226  0.3340  0.1793  0.1506
26494W        W45348  10.787  12.120   3.399  0.0351  0.0048  0.1288
26495W        W45349  13.993   0.848   0.009  0.1161  0.0843 -0.1559
26496W        W45350   7.658   8.391  13.091  0.3558  0.1656 -0.0274
26497W        W45351  15.648  13.616   1.680 -0.0440  0.0262  0.0561
26498W        W45352   1.714   7.071  10.718  0.1951  0.0195 -0.0181
26499W        W45353  13.550  18.778   2.370  0.2039  0.1491  0.1759
26500W        W45354  14.440   6.942  10.591 -0.0432  0.0692 -0.6104
26501W        W45355  11.843   9.432   2.630 -0.0393  0.1731 -0.0729
26502W        W45356  12.649  13.317   3.634  0.3584  0.1515  0.0317
26503W        W45357   5.284  15.546  12.455  0.0132  0.0887 -0.0073
26504W        W45358  15.364  11.009   0.331  0.0170  0.0138 -0.0044
26505W        W45359   7.826   6.315   1.581  0.0416  0.0619  0.3753
26506W        W45360  10.098   6.529   2.046 -0.3545  0.2498  0.0583
26507W        W45361   8.506   2.865  11.549  0.0555 -0.0116 -0.2750
26508W        W45362   1.078  19.185  13.752  0.0778 -0.0097  0.1881
26509W        W45363  17.145  15.181  14.599 -0.2893  0.1167  0.0592
26510W        W45364  17.093  16.799   4.371 -0.0751  0.0654 -0.2675
26511W        W45365  17.521   2.410   1.701 -0.0117 -0.0771 -0.1368
26512W        W45366   6.926   7.203  10.660  0.0200 -0.0917 -0.0761
26513W        W45367   6.126   6.794  10.269 -0.1612  0.0800  0.3621
26514W        W45368   3.764   7.610   1.753 -0.1849 -0.2799 -0.1689
26515W        W45369  10.622  15.813   4.201  0.0855 -0.3695 -0.0911
26516W        W45370   8.123   6.602  13.431  0.0887  0.1842  0.1240
26517W        W45371   5.584   8.738  12.823  0.0380  0.0140 -0.2318
26518W        W45372  17.131   1.899   0.607 -0.2550 -0.0806 -0.2120
26519W        W45373   0.118   1.100  13.612 -0.1541  0.1116  0.1961
26520W        W45374  19.022  16.067  14.529  0.1348 -0.0789  0.0689
26521W        W45375  17.004   9.765  13.091 -0.0365  0.1822  0.2998
26522W        W45376   5.704  13.463   5.200  0.0991  0.1275  0.0999
26523W        W45377  13.221   8.161  13.283 -0.2975  0.1758 -0.0774
26524W        W45378  15.697  13.710  12.105  0.0907 -0.0959 -0.2161
26525W        W45379   9.182  15.117   9.989 -0.2928  0.0776 -0.0877
26526W        W45380  11.533  14.074   4.017 -0.5300  0.1741  0.2372
26527W        W45381  18.410  14.516  12.909 -0.0891  0.0810  0.1652
26528W        W45382   2.928   4.256  12.011  0.1175 -0.0717  0.1091
26529W        W45383  17.219   8.850  12.191  0.1416  0.0452  0.0903
26530W        W45384  16.753  10.511  14.497  0.1403 -0.0269  0.0258
26531W        W45385  15.775   8.995  11.180 -0.1467  0.2614  0.1025
26532W        W45386   4.294  12.264  14.429  0.0490 -0.0036 -0.3621
26533W        W45387  14.074   0.223   1.786 -0.0706  0.2542  0.2152
26534W        W45388   0.733  10.667   3.734  0.1570 -0.0677  0.0983
26535W        W45389  18.006   7.375   2.909  0.0683 -0.1050  0.1178
26536W        W45390  11.139  11.757  13.547 -0.2031 -0.0632 -0.1074
26537W        W45391  10.811   6.855   3.612 -0.1280  0.1312  0.1210
26538W        W45392   9.173   7.342   4.279 -0.1058 -0.0978 -0.4326
26539W        W45393   5.951   6.034  10.014 -0.1331  0.1719  0.1909
26540W        W45394  18.827  16.797   1.947 -0.0253  0.1043 -0.1327
26541W        W45395   1.891  14.909   2.811  0.2543 -0.0409 -0.3295
26542W        W45396   7.764   3.587   1.037  0.0020  0.1633 -0.0702
26543W        W45397   8.375   3.631  10.799  0.1328  0.0978  0.3923
26544W        W45398   1.006  12.404  14.549  0.2316 -0.0204  0.3917
26545W        W45399   5.275   4.097  10.676 -0.2520  0.1332  0.3187
26546W        W45400   9.606  18.161  12.809  0.1579  0.0055  0.3108
26547W        W45401   9.678   6.980  13.098 -0.1861 -0.4370  0.0429
26548W        W45402   6.748  13.182   2.943 -0.0712  0.0778 -0.0673
26549W        W45403  12.658   7.752  10.177  0.1121  0.2672  0.1243
26550W        W45404   6.485   4.320  11.236  0.1428  0.0290  0.0078
26551W        W45405   3.603   8.614  11.460 -0.2923  0.0133  0.0728
26552W        W45406   5.996  17.778  11.280  0.4134 -0.0605 -0.1309
26553W        W45407  17.991  12.943  12.891  0.0044 -0.2308 -0.1494
26554W        W45408  13.458  17.150   1.412  0.0096  0.0219  0.2396
26555W        W45409   6.759  12.641   4.150  0.2080  0.0536 -0.0317
26556W        W45410  18.845  14.416  13.154  0.1586  0.2530 -0.1633
26557W        W45411   0.428  12.970  12.927 -0.2850  0.0697 -0.1212
26558W        W45412   5.280  18.876   1.483 -0.1923  0.0938  0.1384
26559W        W45413  18.433   1.722  12.418  0.0166  0.0470 -0.1931
26560W        W45414  18.300  15.891   0.427  0.0118  0.0056 -0.1970
26561W        W45415  11.726  11.827   3.202  0.0649 -0.0079 -0.0476
26562W        W45416   9.978   5.799   3.517  0.1405 -0.1742 -0.3578
26563W        W45417   9.784   5.324   0.976 -0.0607  0.1512  0.0717
26564W        W45418   7.621   4.772   2.632 -0.1801  0.1537 -0.3664
26565W        W45419  11.188   6.020   3.197  0.1949  0.0683  0.0316
26566W        W45420   6.570   8.975   2.341  0.0132  0.2421  0.0132
26567W        W45421  15.715  18.767   2.948 -0.0835 -0.4425 -0.1451
26568W        W45422  13.164  10.982   1.343  0.0943  0.1623 -0.0447
26569W        W45423  12.614   3.605  14.407  0.3314 -0.0523  0.0652
26570W        W45424   8.115  18.859  13.944  0.1343 -0.1611 -0.1354
26571W        W45425  16.661   5.551   3.129  0.3185  0.1030 -0.2918
26572W        W45426   2.882   5.579  13.273 -0.0055 -0.1325  0.2942
26573W        W45427   4.410   6.642   0.492 -0.0712 -0.2764 -0.1099
26574W        W45428   9.430   3.962   1.211 -0.1375 -0.0823  0.1159
26575W        W45429  12.072   0.871   3.342 -0.0569 -0.1790 -0.1130
26576W        W45430   3.978  16.046   0.555  0.2947  0.0306  0.0693
26577W        W45431   0.461   6.848  11.721 -0.7496 -0.0638 -0.2347
26578W        W45432   0.180   0.419   2.916 -0.0479 -0.0408  0.1844
26579W        W45433  14.958   1.290   1.565 -0.3736 -0.1869 -0.0383
26580W        W45434  16.279  17.013  11.836  0.1851 -0.1211  0.0044
26581W        W45435  18.439   8.340   0.032  0.0970 -0.3395 -0.0607
26582W        W45436  13.958   5.678   2.991  0.2168 -0.0515 -0.1434
26583W        W45437   9.795   2.943  11.499 -0.1175 -0.1824 -0.1317
26584W        W45438  12.834   4.383  13.594 -0.2079 -0.0780 -0.0141
26585W        W45439   6.490  18.144  10.327 -0.0314 -0.3066  0.0733
26586W        W45440  15.323   6.790   0.456 -0.0560 -0.0512 -0.1235
26587W        W45441  15.270   5.666  13.707  0.3045 -0.0311  0.0418
26588W        W45442  11.809  10.359   4.358 -0.1673  0.0394  0.1283
26589W        W45443  11.376   0.654   3.746  0.1939 -0.0322  0.1120
26590W        W45444   6.788  13.958   0.231  0.4716 -0.0511 -0.0298
26591W        W45445  14.272   1.903   4.116 -0.0372  0.1126 -0.1892
26592W        W45446  12.228   9.130   2.629 -0.0209 -0.2041 -0.2698
26593W        W45447  16.978   2.701  11.671  0.0024  0.1843  0.1605
26594W        W45448  14.757  11.521  10.323 -0.0805  0.1294  0.4119
26595W        W45449  15.650  16.328  11.528  0.1366  0.0779 -0.0368
26596W        W45450   4.881   0.431   3.689  0.1280  0.0163 -0.3468
26597W        W45451  13.386   9.250   3.408 -0.1581 -0.1375  0.1263
26598W        W45452   8.024   1.041   3.693 -0.1873  0.0464 -0.2215
26599W        W45453   9.792   7.723  10.582 -0.0368  0.3722 -0.2352
26600W        W45454  16.169   5.001   3.146  0.1221  0.1270  0.0395
26601W        W45455   8.576   7.140   1.944  0.1329  0.3347  0.0289
26602W        W45456   2.625   8.440  14.156  0.1703  0.1342 -0.0416
26603W        W45457   9.547  12.098  12.917  0.0665  0.0150  0.0552
26604W        W45458  15.729  11.416  14.510 -0.0887  0.1070  0.2674
26605W        W45459   7.352   2.483  11.969  0.1978 -0.0226 -0.2200
26606W        W45460   1.913  16.218  12.163  0.1301 -0.0070  0.1688
26607W        W45461   7.934  16.113  12.737  0.0163  0.0011  0.0027
26608W        W45462   9.255  18.490   1.191  0.0110  0.0799 -0.2747
26609W        W45463   6.441   3.909   3.802 -0.1582  0.2084 -0.1229
26610W        W45464   5.082   2.050  10.531 -0.1844  0.1057  0.0078
26611W        W45465  11.863  13.338   1.840  0.0831  0.0614 -0.1483
26612W        W45466   2.458  18.278  12.492  0.1364  0.0957 -0.2076
26613W        W45467   7.954  12.879  13.789 -0.2367  0.2050  0.0083
26614W        W45468   9.929   4.859   3.550 -0.1589 -0.2116  0.1252
26615W        W45469   6.439  12.203   2.826 -0.1921  0.2631  0.0140
26616W        W45470   4.969  17.912   0.265 -0.1326  0.0535 -0.0041
26617W        W45471   6.912  12.687   2.881  0.0180  0.2027 -0.0900
26618W        W45472   7.710  12.300  14.458  0.4383 -0.1489  0.2430
26619W        W45473   5.900   3.957  14.307 -0.1695  0.0042  0.3224
26620W        W45474   6.665   0.951   3.031  0.0659 -0.0760 -0.1072
26621W        W45475  11.701   7.166  14.690 -0.1192  0.0035 -0.3922
26622W        W45476  16.958   1.782   9.656  0.2747  0.0861  0.0776
26623W        W45477   0.420  10.362   3.959 -0.0999 -0.0604 -0.3175
26624W        W45478  15.973   5.154   9.676  0.3405  0.1252 -0.0539
26625W        W45479  18.975   1.157  10.831  0.1891 -0.1628 -0.2103
26626W        W45480  17.671   0.845   1.482 -0.1764  0.2852  0.0739
26627W        W45481   5.993   6.935   0.984 -0.0268  0.1707 -0.4010
26628W        W45482   5.372   6.477   2.596 -0.0128  0.0573  0.1698
26629W        W45483   0.818   5.121   1.006 -0.2373  0.0600  0.0124
26630W        W45484   7.014   5.406   4.931 -0.0479 -0.0377  0.0950
26631W        W45485  12.270  13.463   1.163 -0.1648  0.0190 -0.1989
26632W        W45486  15.531   8.089   2.166 -0.0970  0.2113  0.2081
26633W        W45487   2.997  16.367   3.772 -0.0580 -0.0236 -0.2555
26634W        W45488  13.811   3.633  11.942 -0.3558  0.0115 -0.1176
26635W        W45489  16.162  10.272  11.511  0.2157  0.2418 -0.1182
26636W        W45490  14.315   6.990  14.085  0.3205  0.1208  0.0386
26637W        W45491  14.524   0.946   4.510 -0.1445 -0.2325  0.1759
26638W        W45492   9.077  13.770   1.068  0.0659 -0.0794  0.0355
26639W        W45493   0.917   1.269   2.991  0.0957 -0.1582 -0.3579
26640W        W45494   3.462   0.047  13.240 -0.3319  0.0633 -0.3314
26641W        W45495   2.746  16.574  10.943  0.1631 -0.0948 -0.2636
26642W        W45496  11.706  11.607  10.555 -0.1430  0.0725 -0.1679
26643W        W45497   2.767   9.342   2.412  0.3330 -0.4190 -0.3467
26644W        W45498   7.392   4.496   3.024  0.0355 -0.0836  0.4533
26645W        W45499   0.932  15.741   1.055 -0.0242 -0.1305 -0.0078
26646W        W45500   8.780  17.765   0.275 -0.1327  0.2992  0.3372
26647W        W45501  13.647   9.582   3.104  0.1035  0.1712 -0.0861
26648W        W45502  12.797   7.233   3.280  0.0911 -0.2834  0.1188
26649W        W45503   4.770  15.796   0.091 -0.1903 -0.3548 -0.2005
26650W        W45504   4.558  14.626   1.020  0.2578  0.1473 -0.4723
26651W        W45505  16.266  17.295   9.745  0.0840  0.2057 -0.0587
26652W        W45506   1.160   4.970   3.660 -0.1814  0.2325 -0.0273
26653W        W45507  18.864   1.555  14.215  0.0171  0.0300 -0.0306
26654W        W45508   4.368  17.584  10.221 -0.0555 -0.4196 -0.1269
26655W        W45509   3.753  15.375   2.536 -0.0010  0.0408 -0.0230
26656W        W45510  16.077   1.565  13.525 -0.2647 -0.2234  0.0227
26657W        W45511   5.416  11.869  14.162  0.2611 -0.0048 -0.2264
26658W        W45512   0.657  14.501   4.482  0.0317  0.2792 -0.1419
26659W        W45513  17.401  10.544   2.760  0.2257  0.0779 -0.2954
26660W        W45514   1.145   5.063  11.672 -0.0347  0.1437 -0.2580
26661W        W45515  15.845  15.558  10.946 -0.1110  0.3839 -0.1404
26662W        W45516   2.712   5.228  12.667 -0.1099  0.1633  0.0189
26663W        W45517   3.706   7.942   4.207  0.4701 -0.2450  0.1814
26664W        W45518  18.265  11.623   3.250 -0.1201 -0.1533 -0.0374
26665W        W45519  12.802  17.864   2.167  0.1123 -0.1163  0.0811
26666W        W45520  16.175   1.390   3.103  0.2336 -0.2429 -0.1933
26667W        W45521  17.728  10.839  10.915  0.1377 -0.1594 -0.0611
26668W        W45522  18.851   7.551  14.570  0.3514  0.0004  0.1783
26669W        W45523  18.760   9.478  13.203 -0.1048  0.0094  0.0433
26670W        W45524   5.563  16.447   2.212 -0.3929  0.2992  0.3433
26671W        W45525   2.656   2.843   2.737  0.1490 -0.1854 -0.1886
26672W        W45526   0.257  13.195  11.644 -0.3314  0.4577 -0.1157
26673W        W45527  13.884   6.162  13.455 -0.0292 -0.0889 -0.2009
26674W        W45528  11.374  18.368  14.113  0.3322 -0.0702 -0.0007
26675W        W45529  10.580  16.507  12.888 -0.0370 -0.1255 -0.0229
26676W        W45530  19.023   9.493  12.659 -0.2473  0.0472  0.2117
26677W        W45531   9.094   5.840  10.851  0.2527  0.0331 -0.0577
26678W        W45532   9.085  11.376  13.425 -0.2072  0.0942 -0.2713
26679W        W45533   3.799  11.654  12.179  0.3009 -0.0039 -0.2538
26680W        W45534   4.558   3.961  11.471 -0.2427 -0.1115 -0.1384
26681W        W45535   2.237   2.462   3.040  0.0222 -0.1080 -0.2338
26682W        W45536  16.457  17.600  14.650  0.0539  0.1378 -0.3114
26683W        W45537  11.710  10.525  14.079  0.1193  0.0248 -0.1193
26684W        W45538  18.622  15.965  13.642 -0.1511  0.0860 -0.0839
26685W        W45539  15.268  18.479   0.109 -0.1002 -0.1686 -0.4416
26686W        W45540  12.703   5.096  11.927  0.0013 -0.0257 -0.0982
26687W        W45541   1.176   7.197  13.879  0.0971 -0.0555 -0.2590
26688W        W45542  17.278  14.080  11.493  0.1347 -0.1310  0.1369
26689W        W45543  18.753   2.417  12.766 -0.5527 -0.0938  0.1600
26690W        W45544   7.048  15.793  13.049  0.0195  0.0667  0.3211
26691W        W45545   0.982   1.684  12.063  0.1145  0.0570  0.2092
26692W        W45546  12.015  12.699   9.865  0.1077  0.1259  0.0606
26693W        W45547   2.615   2.547   4.589 -0.0369  0.2000 -0.1759
26694W        W45548   5.135  16.398   2.964  0.2120  0.1066  0.0976
26695W        W45549  14.020   3.600  12.441  0.0790  0.2069  0.0587
26696W        W45550   5.918  17.160   1.662  0.0112  0.0489 -0.0352
26697W        W45551  17.977  11.196  11.246  0.1827 -0.2362 -0.1705
26698W        W45552   5.841   9.883  14.262  0.1456  0.0774 -0.0998
26699W        W45553  13.650  14.871   0.314 -0.0452 -0.0098  0.3135
26700W        W45554  14.617  10.979   2.549 -0.0190 -0.0191 -0.0185
26701W        W45555  10.507  12.635   3.274 -0.1027 -0.2173  0.1240
26702W        W45556  18.501  15.444   1.194 -0.1428 -0.0665  0.0911
26703W        W45557  13.160  18.768   3.152  0.4541  0.0138  0.0234
26704W        W45558  15.280  12.753   4.074 -0.1365  0.0339 -0.0146
26705W        W45559   3.902   1.829   1.675 -0.1914 -0.1345 -0.1347
26706W        W45560  17.045  16.780  11.448  0.0096 -0.3386 -0.0525
26707W        W45561   5.641   7.418  12.272 -0.2302 -0.0313 -0.2937
26708W        W45562  18.191  17.674   2.487  0.1062  0.2543  0.1338
26709W        W45563   8.053  12.249   1.075  0.1111 -0.1042 -0.2461
26710W        W45564   1.248  11.755   3.051 -0.0114  0.1177 -0.1147
26711W        W45565   9.770   4.399   1.144 -0.1372 -0.0856  0.0854
26712W        W45566   9.500   2.619   3.974  0.2335 -0.0209  0.1968
26713W        W45567   2.921   7.341  13.268 -0.0477 -0.3075  0.1529
26714W        W45568   5.875  10.795   9.088  0.0093 -0.0515  0.1805
26715W        W45569  10.310   3.189   1.914  0.0420 -0.0998  0.0099
26716W        W45570   9.928   9.452  13.987 -0.2856 -0.0586  0.0862
26717W        W45571   0.837  14.273   3.826 -0.0088  0.2815  0.1610
26718W        W45572  11.526   6.473  10.601 -0.1806 -0.1090 -0.1850
26719W        W45573   9.191  14.352  12.548  0.3697  0.1653  0.5168
26720W        W45574  17.234   2.322   4.100 -0.1054  0.0654  0.1088
26721W        W45575  18.632  11.145   5.900  0.0532  0.0113 -0.1468
26722W        W45576   7.037   1.411   4.136 -0.1197  0.1498 -0.0150
26723W        W45577  16.505   0.635   1.212 -0.4248  0.1353  0.0258
26724W        W45578  17.794   3.475  11.584  0.5890 -0.0478 -0.0075
26725W        W45579  18.501  13.240   0.344 -0.1046 -0.3110  0.1277
26726W        W45580   5.766   7.240  11.432 -0.0605  0.1600 -0.0294
26727W        W45581   5.284   1.080  12.194 -0.1220  0.0229  0.4003
26728W        W45582  13.400  15.165   3.091  0.2617  0.1199 -0.2077
26729W        W45583   4.396   4.861   0.209  0.2309 -0.0085 -0.1251
26730W        W45584  12.436  18.986   4.102 -0.1672  0.1972  0.4451
26731W        W45585  17.645   8.077  11.586  0.0617 -0.0569 -0.0561
26732W        W45586   5.151   2.551  13.689 -0.2551  0.1775  0.1942
26733W        W45587   1.659   4.911   4.915  0.0625  0.1671  0.3774
26734W        W45588  14.058   8.254  14.388  0.0197  0.0465  0.1440
26735W        W45589  18.012  13.805  13.386  0.1416  0.1784  0.2337
26736W        W45590   9.546   4.578   2.796 -0.1231  0.2588  0.0014
26737W        W45591   9.406   8.545  10.978 -0.0554 -0.3766  0.0789
26738W        W45592   7.906   2.811  14.207  0.0900 -0.0243 -0.1278
26739W        W45593  17.220   0.326   1.515 -0.1149  0.0628  0.3896
26740W        W45594   5.269   1.765  14.474  0.3253 -0.1301 -0.1782
26741W        W45595   1.350   0.344   2.768  0.0078  0.2351 -0.4596
26742W        W45596   4.222  10.824  12.350 -0.1152 -0.1247 -0.2504
26743W        W45597  18.252  13.688  11.682 -0.2647 -0.2303 -0.1988
26744W        W45598  10.267   0.277   1.222  0.0035 -0.4161  0.2434
26745W        W45599   8.322   5.012   0.280  0.0241 -0.0757  0.0784
26746W        W45600   4.941   4.269  11.556 -0.1546  0.2552 -0.1209
26747W        W45601  13.601   9.642   2.373 -0.0775  0.0682 -0.0639
26748W        W45602   5.848   6.274   1.057  0.2136 -0.1391 -0.0604
26749W        W45603  15.090   8.817   3.901 -0.2951  0.1270  0.1838
26750W        W45604   1.804  10.883   4.263 -0.0693  0.3130  0.1411
26751W        W45605  12.427   8.254   0.298  0.3445 -0.4840 -0.0207
26752W        W45606   5.551  15.540   4.276 -0.1133  0.1903  0.0954
26753W        W45607   6.987   1.987   1.414 -0.0458  0.1122  0.0940
26754W        W45608   1.703  11.692  10.278 -0.2819  0.2307 -0.1014
26755W        W45609   2.651  18.304   3.154 -0.1767  0.0906 -0.1635
26756W        W45610  15.553   3.943   2.429 -0.0710 -0.0282 -0.0941
26757W        W45611   1.191  16.459  10.596 -0.1121 -0.2457  0.1214
26758W        W45612  18.774  13.679   0.334 -0.1578  0.1116  0.1831
26759W        W45613  14.995  15.946  10.878 -0.2955 -0.0320 -0.3104
26760W        W45614   9.236  18.946   0.995  0.3430 -0.3187 -0.0168
26761W        W45615   7.464   6.700   3.948  0.0197 -0.3473 -0.1510
26762W        W45616  11.482   7.414  11.785 -0.0969  0.3782  0.0231
26763W        W45617   3.587  13.165   1.286 -0.0388 -0.2028  0.2335
26764W        W45618   7.905  17.552  14.658  0.0400 -0.3282  0.2178
26765W        W45619  12.135  12.528  12.838  0.0496  0.0362  0.1108
26766W        W45620  17.758  17.983   1.846  0.0046 -0.2141  0.2036
26767W        W45621   8.926  12.987   1.311  0.0253  0.0642 -0.1684
26768W        W45622   9.349  16.360  14.112 -0.1757 -0.1796 -0.3388
26769W        W45623   4.265   2.428  12.212  0.0680 -0.0835 -0.0146
26770W        W45624   0.067  18.163   3.018  0.1400 -0.0764 -0.0227
26771W        W45625  18.561  10.269   4.290 -0.0952 -0.1245  0.1617
26772W        W45626  12.783   8.071  10.559 -0.0372  0.0931  0.2572
26773W        W45627   6.704   5.656  11.610  0.1856 -0.3054  0.0562
26774W        W45628   4.739  14.699  12.122 -0.4844 -0.0861  0.1067
26775W        W45629  17.249   1.826   2.370 -0.0750  0.0009 -0.2179
26776W        W45630  18.615  19.124  12.028 -0.0671 -0.2290 -0.1116
26777W        W45631   4.268   5.912  12.291 -0.0914 -0.2249 -0.3517
26778W        W45632   7.173  16.495   2.223 -0.2034  0.0215 -0.2272
26779W        W45633  13.133   1.622   3.778  0.3836  0.3434  0.2335
26780W        W45634   4.882   1.222   2.920  0.2592 -0.0050  0.1440
26781W        W45635  14.787  13.470   3.238 -0.3093  0.4043 -0.0782
26782W        W45636  15.023  14.500   1.137  0.2980  0.0524  0.1051
26783W        W45637  16.492  14.965  13.252  0.0014 -0.2921 -0.0463
26784W        W45638  15.469   7.727  12.870 -0.2942 -0.2042 -0.3284
26785W        W45639   9.409   4.168  14.223 -0.1404  0.1826  0.0639
26786W        W45640   3.125   9.398   0.099 -0.0903 -0.3019 -0.3837
26787W        W45641   2.888  17.445   1.611  0.0028  0.1748 -0.1470
26788W        W45642  12.640   7.452   1.065  0.0769  0.0390  0.3834
26789W        W45643   5.676  13.337  11.700 -0.0985 -0.2807  0.0134
26790W        W45644   2.598   3.088   1.636  0.0725 -0.1835 -0.1554
26791W        W45645  13.710   7.583   0.858  0.0653 -0.3252 -0.1163
26792W        W45646   2.018  11.019  13.102 -0.0740  0.0979 -0.2349
26793W        W45647   6.991  16.782  11.199  0.2770  0.1231  0.2540
26794W        W45648   7.639   8.332   0.922 -0.1523 -0.1691  0.3878
26795W        W45649   8.445   9.603   0.343 -0.3789 -0.1160  0.0166
26796W        W45650  15.887   3.094   0.208 -0.0855 -0.0001  0.1899
26797W        W45651   3.702  17.487   3.249  0.0517  0.0603 -0.3433
26798W        W45652  10.580   8.754  11.831 -0.0610 -0.0321 -0.0858
26799W        W45653   4.794   3.468  11.576  0.2038 -0.0014  0.3633
26800W        W45654   5.593   0.211   5.291 -0.0343 -0.2918 -0.2691
26801W        W45655   6.633  15.031   3.004  0.1552  0.2368  0.2308
26802W        W45656   7.755   9.319   1.727  0.2648  0.2118  0.1679
26803W        W45657   2.185   8.090   3.080  0.0454 -0.0282  0.1551
26804W        W45658   7.591   6.990   2.672  0.2715 -0.2867 -0.0912
26805W        W45659   0.489   9.317   4.074 -0.4502  0.2935  0.1373
26806W        W45660   2.041   2.360   1.246  0.2146 -0.1364  0.2551
26807W        W45661   5.500  19.162  13.804 -0.1575  0.2284 -0.2403
26808W        W45662   4.053  12.645  13.297  0.1666 -0.1222 -0.1582
26809W        W45663   5.624  14.876  12.034  0.1746  0.0357  0.1675
26810W        W45664   5.292  19.037  12.913  0.2179 -0.1934 -0.0264
26811W        W45665  18.403  11.141  10.916 -0.0169 -0.1398 -0.0939
26812W        W45666  16.987   7.547  11.231 -0.0142 -0.2077  0.0697
26813W        W45667  17.554   7.129   0.102 -0.1816 -0.4236  0.0559
26814W        W45668   7.910  10.370  14.163  0.1351 -0.1362  0.0296
26815W        W45669   8.230  15.403  11.581 -0.0414 -0.0334  0.3553
26816W        W45670  13.678  12.630   0.547  0.0064  0.0611 -0.1640
26817W        W45671  15.662   5.920   4.499  0.2248 -0.1219  0.0874
26818W        W45672   8.320  16.958  13.671  0.3181 -0.1021  0.3310
26819W        W45673  18.447   0.757  12.112 -0.0903  0.2245  0.1054
26820W        W45674  11.866   1.136   0.800 -0.1930 -0.0359 -0.2068
26821W        W45675  14.985   9.011   2.725  0.0330 -0.1853  0.1978
26822W        W45676   1.051   4.048  12.954 -0.1205 -0.3352 -0.2259
26823W        W45677  13.413   9.060  10.965  0.0116  0.1206  0.0259
26824W        W45678   3.576  12.475  12.456 -0.0520 -0.2431 -0.1484
26825W        W45679   4.628   3.080   2.268 -0.1711  0.1285 -0.2671
26826W        W45680  17.875   4.533   1.076 -0.1075 -0.3497 -0.1344
26827W        W45681  18.872  15.618   2.991  0.0665 -0.1197  0.0212
26828W        W45682   9.725  10.779   2.267 -0.5394  0.1270  0.3308
26829W        W45683  10.553  15.553   0.729  0.0038 -0.2064 -0.0826
26830W        W45684   2.953   9.065   3.670  0.1647 -0.3032  0.1996
26831W        W45685   3.125   8.924   9.680 -0.2470 -0.1392  0.2422
26832W        W45686   6.680  17.739   0.476 -0.1795  0.1147 -0.1329
26833W        W45687   8.964   4.583  11.860  0.1169 -0.0392 -0.0379
26834W        W45688   3.421   1.568   2.576 -0.3619  0.0101 -0.6653
26835W        W45689   4.347   3.310   3.676  0.2158 -0.0155 -0.0357
26836W        W45690  11.124  18.378  11.020 -0.1096 -0.1625 -0.0456
26837W        W45691   9.167  14.517  13.416  0.1272 -0.2950 -0.1002
26838W        W45692   3.964   0.924  13.186 -0.2563 -0.0615 -0.1358
26839W        W45693   8.696   9.509   1.932 -0.0147  0.1589  0.0327
26840W        W45694   9.293   1.640   9.129  0.1459 -0.0917 -0.1487
26841W        W45695   4.507  13.201   0.526  0.0719  0.0986  0.3567
26842W        W45696   7.779   5.118   2.293 -0.1137  0.0193 -0.2412
26843W        W45697   5.078  13.038   3.265  0.0541  0.1378  0.2330
26844W        W45698  11.661   5.829  13.407  0.2572  0.1498 -0.0746
26845W        W45699   1.473  14.988  14.602  0.1992 -0.3186  0.0695
26846W        W45700  14.104  11.386  10.619 -0.1647 -0.0463 -0.1111
26847W        W45701   2.174  18.070   9.999  0.2360  0.0483  0.0193
26848W        W45702  14.184   4.653   3.248 -0.0118  0.0223 -0.0902
26849W        W45703   8.293  19.073  12.090 -0.1426 -0.0488  0.0393
26850W        W45704   3.426   0.354   3.623 -0.1020  0.0535  0.1375
26851W        W45705  16.728  17.950  12.583 -0.2103  0.2604 -0.2806
26852W        W45706   7.735   0.841  12.766  0.1445 -0.0561 -0.0938
26853W        W45707   4.059   9.134  13.704  0.0604 -0.1463  0.1461
26854W        W45708   0.459  19.077   0.428 -0.2777 -0.1394 -0.0842
26855W        W45709   1.224  15.449  12.174  0.0001  0.3150 -0.2221
26856W        W45710   8.423   2.705   9.776 -0.0267  0.0130 -0.1205
26857W        W45711   4.167  16.788  12.106  0.0315  0.2480  0.3048
26858W        W45712  12.237  16.674   2.316  0.1581  0.2204  0.3078
26859W        W45713   2.531  12.918  12.694 -0.1002 -0.0504  0.0154
26860W        W45714   6.827   9.591  13.883  0.1366 -0.1279 -0.1427
26861W        W45715   0.887   1.735   0.834 -0.0262 -0.0633 -0.1253
26862W        W45716   2.206   2.726   5.310 -0.0934 -0.0412  0.0977
26863W        W45717   9.717   7.813   1.209 -0.0524 -0.0773 -0.3734
26864W        W45718  11.066  11.297  13.808 -0.1352  0.2949 -0.1050
26865W        W45719  14.521  12.446   0.972  0.0592 -0.3357 -0.0763
26866W        W45720  14.389  15.859  10.589  0.0854  0.1225  0.0074
26867W        W45721  12.373  14.193  13.516  0.0727 -0.0233  0.1255
26868W        W45722  11.102   4.575  11.966  0.0984 -0.3550  0.0219
26869W        W45723  10.033   0.547  13.776 -0.0169 -0.3598 -0.1276
26870W        W45724   2.519   3.794   0.400 -0.4887  0.1538  0.1350
26871W        W45725  19.074  10.391   2.868  0.0430  0.0612 -0.0156
26872W        W45726   0.870   1.214   0.591  0.0203 -0.0566 -0.0233
26873W        W45727   6.927  15.537   1.289 -0.2274  0.1555 -0.0794
26874W        W45728   3.769  16.028  13.157 -0.0718 -0.0445 -0.1185
26875W        W45729   6.294  17.462  12.442  0.3664  0.0369  0.0332
26876W        W45730  16.157   5.767   1.947 -0.0416 -0.2523  0.0537
26877W        W45731  14.844  11.334   1.709  0.1863 -0.1781 -0.1232
26878W        W45732  13.556   4.470   1.633 -0.1596 -0.1739  0.0497
26879W        W45733   1.487   1.684  14.669 -0.0433 -0.0904 -0.0215
26880W        W45734   9.912   9.038   1.077 -0.1379  0.1564  0.2946
26881W        W45735  10.491  10.453  11.541 -0.2231 -0.0018 -0.0996
26882W        W45736   5.418  15.033   3.596 -0.0413  0.2320 -0.0196
26883W        W45737  11.057   8.706   3.462 -0.2749  0.0665 -0.3089
26884W        W45738  11.226   4.367  14.202 -0.1012 -0.0670  0.1378
26885W        W45739   2.858   2.974   0.101 -0.1616 -0.1898 -0.2936
26886W        W45740   5.089  17.631   1.693 -0.0542 -0.2561  0.2840
26887W        W45741  14.049  18.724   4.020 -0.2675  0.1458 -0.0189
26888W        W45742   7.552  10.438  10.711  0.2303 -0.0977 -0.1562
26889W        W45743  11.960   2.848   0.714  0.0339 -0.2034  0.2028
26890W        W45744  10.855   3.835  11.296 -0.1448 -0.0933 -0.2006
26891W        W45745  16.852  11.300  11.672  0.1253 -0.0200 -0.0164
26892W        W45746   8.608  15.082   1.164 -0.0397 -0.0201 -0.3103
26893W        W45747   6.834   3.363   3.253  0.0761  0.1245 -0.0155
26894W        W45748  15.167   9.779   2.318 -0.3475 -0.0595  0.2658
26895W        W45749  12.578   4.920   2.783 -0.0540 -0.3733 -0.0215
26896W        W45750   6.356   4.085  14.642 -0.1481  0.1634  0.0230
26897W        W45751  11.277  15.430   4.930 -0.1236  0.1983  0.3471
26898W        W45752   0.491   8.229  10.306  0.1408  0.2074  0.0342
26899W        W45753   3.818  18.123   3.662  0.1114  0.2608 -0.0655
26900W        W45754   5.568   3.632   0.017  0.2489 -0.2812  0.1536
26901W        W45755  14.014  13.505   2.807  0.1641 -0.0098 -0.2563
26902W        W45756  10.882  14.102  11.062 -0.1444 -0.1917  0.1810
26903W        W45757   7.287   4.404  13.186  0.1043  0.0698  0.2480
26904W        W45758  10.916   3.086   0.662 -0.0056 -0.0617 -0.2171
26905W        W45759   0.564   3.206  13.252 -0.3158 -0.2424 -0.2568
26906W        W45760  13.956   6.112  10.774 -0.0819  0.4346 -0.1789
26907W        W45761  11.765   3.761   0.821  0.1312  0.2827 -0.1038
26908W        W45762   8.949   1.841  12.037  0.0715 -0.0793  0.0033
26909W        W45763   4.116   1.773   1.154  0.0207 -0.2901 -0.0810
26910W        W45764   4.558  16.563   0.101  0.2669  0.2249  0.0121
26911W        W45765  17.794   2.542  10.339  0.0749  0.2864  0.3706
26912W        W45766   6.437  11.121   1.960  0.0817  0.0296  0.3242
26913W        W45767   9.467   3.214  12.331  0.0644 -0.0058  0.0064
26914W        W45768   8.359  14.744   2.470 -0.0438  0.0496  0.2608
26915W        W45769  12.882   3.881  12.077  0.2205  0.1822  0.1991
26916W        W45770  15.831  10.877   2.167 -0.1163  0.0013  0.1861
26917W        W45771   2.425  18.899  11.479  0.1783 -0.3598 -0.3399
26918W        W45772   9.176  11.018  11.424  0.0186  0.1003 -0.0405
26919W        W45773  16.174   7.210   2.783  0.0021  0.3319  0.0288
26920W        W45774  16.519  10.822  14.146 -0.0950 -0.0038 -0.1772
26921W        W45775   3.244   7.755   2.204 -0.0260  0.1225  0.1491
26922W        W45776  12.303   9.417  12.370 -0.0522 -0.0888  0.2346
26923W        W45777  18.420   4.283  13.691  0.0251  0.0687 -0.0733
26924W        W45778   2.674   6.091   3.104  0.0462 -0.0353  0.0437
26925W        W45779  18.115   6.155  12.693  0.3468 -0.0665 -0.2674
26926W        W45780   5.973   2.918  13.335 -0.1471 -0.4414 -0.0723
26927W        W45781  11.652  10.598  12.612  0.0919 -0.0571 -0.0617
26928W        W45782   4.088  18.185   2.747  0.1733  0.0243  0.0868
26929W        W45783   0.076   1.161   3.509 -0.1024  0.2365  0.1712
26930W        W45784  18.881   6.811   0.105  0.1294 -0.1867  0.1841
26931W        W45785  10.015   9.670  14.482  0.0432  0.2220 -0.0410
26932W        W45786   7.112  10.253  10.838  0.1500 -0.0753 -0.1513
26933W        W45787   0.483  14.100  11.830  0.0931  0.3341 -0.1111
26934W        W45788   7.384   4.019   4.207 -0.3831 -0.0698  0.0512
26935W        W45789   5.629  14.693  13.075 -0.1100 -0.0824  0.1935
26936W        W45790   2.630  14.205  11.922 -0.2748  0.0822  0.0288
26937W        W45791   0.551   1.647  12.297 -0.1168  0.1095  0.0578
26938W        W45792   2.100   4.956   1.392 -0.3260  0.3799 -0.0260
26939W        W45793   3.055   8.531  11.395  0.0959  0.0825  0.1426
26940W        W45794  12.028   4.914  14.494  0.0681 -0.0402  0.1137
26941W        W45795   9.574   8.412   1.894 -0.0548  0.1812  0.0003
26942W        W45796   5.135  17.869   1.212 -0.1395 -0.1524  0.0042
26943W        W45797   1.841   6.535  13.377 -0.2118  0.1829  0.2121
26944W        W45798   9.321   9.636   1.372  0.0592  0.4239  0.1069
26945W        W45799   4.453   9.426   0.702  0.0076  0.0220 -0.1850
26946W        W45800  12.643   0.264  12.655  0.2020  0.0194 -0.0874
26947W        W45801   3.180  14.366  11.856  0.1917 -0.1692 -0.0996
26948W        W45802  14.398   3.307  14.684  0.0207 -0.4366 -0.0248
26949W        W45803   8.311   0.829  13.269  0.1630  0.2246  0.0964
26950W        W45804   8.917   9.680  10.136 -0.2368  0.2061  0.1209
26951W        W45805   5.895  15.296   0.941  0.0597  0.1439 -0.2555
26952W        W45806   0.664  13.790   3.531  0.1828 -0.1908 -0.1466
26953W        W45807   5.377   1.873   5.085 -0.0987 -0.2473 -0.1825
26954W        W45808   6.304  15.105  11.177 -0.0263  0.0253 -0.0943
26955W        W45809   3.290   4.837  13.085 -0.3138 -0.0511  0.1756
26956W        W45810   2.788   0.931  12.028 -0.1445  0.1269 -0.2609
26957W        W45811  16.318   3.001   1.180  0.0430  0.5062  0.2247
26958W        W45812   3.922   9.772   2.822  0.0971  0.1334  0.1640
26959W        W45813   0.623  12.163   0.158 -0.3588 -0.4769  0.4182
26960W        W45814  11.054   8.463  10.899  0.0465  0.0120  0.0958
26961W        W45815  13.681   3.255  12.366 -0.0516  0.1937  0.4969
26962W        W45816  11.758  18.439   3.939 -0.3613 -0.2281  0.3465
26963W        W45817   6.065   0.993   0.970  0.3294  0.0985 -0.0402
26964W        W45818  17.861   1.054  11.619  0.0585  0.0053 -0.1052
26965W        W45819   5.328   2.349   3.618 -0.1715  0.1919 -0.1179
26966W        W45820  11.032  15.258  12.707  0.0058  0.1575  0.0773
26967W        W45821   8.913  16.928  10.643  0.3043  0.1995 -0.0424
26968W        W45822  18.553   1.498   2.840  0.1049  0.1410  0.0169
26969W        W45823   7.108  15.084   1.832  0.2022 -0.1435 -0.0738
26970W        W45824  13.722   5.218  14.389 -0.2316 -0.2116 -0.0859
26971W        W45825  14.694   3.420  13.574  0.1453  0.2015  0.1442
26972W        W45826  13.864  17.557   2.881 -0.0144  0.1877 -0.2011
26973W        W45827  12.458  16.945  10.893  0.0369  0.0570 -0.0710
26974W        W45828  17.545   5.342   2.757 -0.0431  0.0321 -0.3218
26975W        W45829  14.185   7.515   3.188  0.1693  0.0596 -0.3215
26976W        W45830   8.914   3.672   1.811  0.0259 -0.1220  0.0339
26977W        W45831  10.433  18.109   0.364  0.0059  0.0781 -0.1131
26978W        W45832   2.499  16.168   1.009 -0.0996 -0.1191  0.1278
26979W        W45833   8.650  13.122  11.992  0.0212 -0.2353 -0.3026
26980W        W45834  18.238   6.103   3.058  0.0584 -0.1297 -0.0936
26981W        W45835   9.629   8.914  13.229 -0.1070  0.1514 -0.0483
26982W        W45836   8.072   8.821  14.046  0.2521  0.0929  0.0199
26983W        W45837   9.572   3.406  11.800 -0.1156  0.1665  0.2484
26984W        W45838  11.803   8.542  10.541 -0.2242  0.0693  0.0340
26985W        W45839   7.877  16.550  12.520  0.4470 -0.6221  0.0590
26986W        W45840  18.704  15.944   5.455 -0.2618  0.1675 -0.1334
26987W        W45841  13.374  16.146   1.838 -0.0650  0.0776 -0.0604
26988W        W45842   4.635  19.149   2.855 -0.0272 -0.0132  0.1547
26989W        W45843   4.362   6.765  13.506 -0.0965 -0.4070 -0.1825
26990W        W45844   2.145   3.936   3.269  0.1617 -0.2839  0.0140
26991W        W45845   8.948  19.018  13.686 -0.0460  0.1542 -0.0183
26992W        W45846   0.727   6.118   1.885 -0.2051 -0.1576 -0.1630
26993W        W45847   9.084  12.025   0.419  0.0619  0.2607  0.2324
26994W        W45848  16.383  16.784  13.905 -0.1279 -0.0265  0.1406
26995W        W45849   9.926   9.294  12.906  0.0622 -0.0660 -0.2900
26996W        W45850  14.928   2.663   9.836 -0.2309  0.2609 -0.2303
26997W        W45851   3.393   2.882   3.462  0.0130  0.0616  0.1535
26998W        W45852  15.104   4.845  14.023 -0.1328  0.2356  0.4667
26999W        W45853   3.721  18.330   2.224 -0.0797  0.4407  0.1644
27000W        W45854  11.262   5.674   2.377  0.1763  0.1502 -0.0525
27001W        W45855   6.645  13.117  13.259  0.1429  0.1173 -0.0572
27002W        W45856  11.235  13.264   0.044 -0.2601  0.0324  0.2248
27003W        W45857   2.896   7.125   3.911 -0.0665  0.2108 -0.2246
27004W        W45858   9.662   2.750  13.144  0.1409  0.2636  0.0084
27005W        W45859  16.267  17.307   4.187 -0.1040  0.4968 -0.2575
27006W        W45860  14.321  17.107   1.833  0.2651 -0.1018  0.2591
27007W        W45861   1.664  18.825  12.880 -0.4820  0.0077 -0.0571
27008W        W45862   9.490   8.099   2.413  0.0623  0.0023  0.1018
27009W        W45863  13.209  12.311  12.922 -0.0744  0.2115  0.1992
27010W        W45864  12.935   0.409  11.335 -0.2417 -0.0870 -0.2144
27011W        W45865  13.360   4.308  11.520  0.0404 -0.3377  0.0716
27012W        W45866   4.984   4.212   0.475  0.0903  0.0584 -0.0970
27013W        W45867  16.992  15.069   3.591 -0.1428  0.1707  0.0142
27014W        W45868  11.754   9.280  14.616 -0.1059 -0.2798  0.1609
27015W        W45869   6.717  17.206  14.459  0.0325  0.0792  0.0488
27016W        W45870  13.876   7.080  10.575 -0.0135  0.0107  0.1789
27017W        W45871   1.757   0.781  13.618  0.2153 -0.1796  0.2286
27018W        W45872   2.495  17.309  11.762  0.0330 -0.0754 -0.6265
27019W        W45873   7.988   0.239   0.914 -0.3070  0.0087 -0.0593
27020W        W45874   4.303   5.354   0.420  0.1925  0.2516 -0.3425
27021W        W45875   3.719   7.580   3.531  0.4353  0.1167  0.2604
27022W        W45876   4.597   2.817  10.388 -0.1924  0.3199 -0.0535
27023W        W45877   9.967  11.921  12.478  0.0365  0.2387 -0.2112
27024W        W45878   7.889   8.605  11.643  0.2258 -0.2089 -0.0508
27025W        W45879   4.954  15.910  11.689  0.1113  0.2296 -0.1187
27026W        W45880   3.796  10.313  12.973  0.0140  0.0658  0.2729
27027W        W45881   0.862  17.809   2.908  0.0564  0.0598  0.2627
27028W        W45882  11.392  12.642  10.491  0.0534 -0.0052 -0.1586
27029W        W45883  16.949  12.608  12.209  0.3452  0.0413 -0.0074
27030W        W45884  15.743   0.714  14.393 -0.1898  0.3428 -0.0702
27031W        W45885   0.811   5.950  13.101  0.2249 -0.1123 -0.0659
27032W        W45886  16.748  12.576  12.745 -0.1305  0.3058  0.1418
27033W        W45887  10.311   2.020   0.517  0.2972  0.0566 -0.2446
27034W        W45888  18.583  16.878  10.002 -0.2090 -0.0436 -0.2409
27035W        W45889   3.464   7.516   4.099  0.0206 -0.2590  0.0596
27036W        W45890   7.305   5.226   2.523 -0.1277  0.2071  0.0934
27037W        W45891  14.949   4.436   3.771 -0.0391  0.0828 -0.0618
27038W        W45892  16.597   2.655  12.056 -0.0165 -0.0537 -0.2645
27039W        W45893  13.215   0.403   0.685  0.1450  0.0377  0.3300
27040W        W45894  16.444  16.565   3.157  0.0971  0.1199 -0.0465
27041W        W45895  11.326   7.130  13.795  0.1910 -0.0590  0.2908
27042W        W45896   2.299   9.357   0.609 -0.5492 -0.0774  0.1918
27043W        W45897  13.846   5.555  13.085 -0.1547  0.1218  0.1162
27044W        W45898   1.699  14.192  14.255 -0.2748 -0.0796 -0.1345
27045W        W45899   5.149  18.022   0.706 -0.0970  0.1047  0.1255
27046W        W45900   2.167   5.591   2.945  0.2539  0.1884 -0.0413
27047W        W45901   6.619   2.210   3.345  0.1705 -0.0291  0.0215
27048W        W45902  15.023  18.824   2.066  0.2238 -0.1354 -0.4231
27049W        W45903  13.062  18.183   3.961  0.0737  0.0744  0.1989
27050W        W45904   0.043  15.324   4.139  0.0860 -0.0803  0.2444
27051W        W45905   2.272  16.103   2.326 -0.2925 -0.0600 -0.0786
27052W        W45906   1.375   1.744   3.621  0.0345  0.1475 -0.1650
27053W        W45907   7.331  16.643   5.827  0.1570  0.0042 -0.0166
27054W        W45908   6.299   2.377   2.443 -0.0599  0.0074  0.0368
27055W        W45909   8.356   3.494   3.516 -0.4184 -0.0240  0.2292
27056W        W45910   6.660   0.455  12.527  0.1641  0.1908  0.2896
27057W        W45911  12.939  10.191  13.730 -0.5670 -0.1914 -0.1815
27058W        W45912  18.800  15.080  13.626 -0.1218 -0.1741  0.0183
27059W        W45913   1.973  12.925  13.458 -0.0389 -0.0521 -0.1912
27060W        W45914  14.374   8.627  10.245  0.5316  0.0282  0.0708
27061W        W45915   5.034  18.541  14.493 -0.1917 -0.2254  0.2125
27062W        W45916  18.197   1.761  12.965  0.2219  0.0188 -0.4858
27063W        W45917   4.215   3.851   2.929  0.1361 -0.1884 -0.2569
27064W        W45918   1.081  17.791   4.085 -0.1990 -0.5239 -0.1043
27065W        W45919  14.262  14.263   3.439 -0.1563 -0.1858  0.0931
27066W        W45920   6.791   9.080  13.654  0.0637  0.2384 -0.1695
27067W        W45921  13.293  18.566  12.631  0.0022 -0.2553 -0.1633
27068W        W45922  15.978  15.432   0.483  0.0483  0.2992 -0.0738
27069W        W45923   4.623  15.067   0.759 -0.2734  0.0365 -0.0010
27070W        W45924  17.391  17.973  12.914  0.3600  0.0521 -0.0699
27071W        W45925   1.002   9.347   2.541  0.1887 -0.1765 -0.1431
27072W        W45926  12.407   7.729  10.631 -0.1252  0.1139 -0.1073
27073W        W45927   4.302   3.806  12.497  0.2138  0.0596  0.0369
27074W        W45928  11.139   8.419  14.732 -0.1931  0.2304  0.0958
27075W        W45929   6.851   4.180  13.298  0.2084  0.0856 -0.1672
27076W        W45930   8.848  13.013  10.175 -0.1325  0.0307 -0.1258
27077W        W45931  10.586  18.411  11.856 -0.2459 -0.0602 -0.3314
27078W        W45932   9.382  16.449   2.816 -0.0610  0.0665 -0.1562
27079W        W45933   4.344  10.980   0.376  0.0056  0.0753  0.0564
27080W        W45934   4.054   9.383  10.958  0.2601  0.0008  0.3359
27081W        W45935   7.849  18.491  11.356  0.0614 -0.0890 -0.2392
27082W        W45936   6.639   8.608   0.255  0.1398  0.1515  0.0687
27083W        W45937  12.854   3.079   3.414 -0.1786 -0.0139 -0.2888
27084W        W45938  16.521  10.124   1.708 -0.0540  0.1506  0.1645
27085W        W45939   1.118  14.961   2.279 -0.1601  0.0824  0.1240
27086W        W45940   0.986   9.320  13.428  0.1735 -0.1052 -0.3716
27087W        W45941   5.033   1.980   1.142  0.0445 -0.1465  0.1203
27088W        W45942   0.538  10.945   4.582 -0.1192 -0.3832  0.0658
27089W        W45943  10.783  14.118   4.797 -0.2699  0.1328 -0.1545
27090W        W45944   2.574  19.112  14.182  0.1780  0.2119 -0.1940
27091W        W45945  11.263  16.526  12.208 -0.0067 -0.1352 -0.0206
27092W        W45946   0.432  19.141   3.179 -0.4651 -0.1564  0.5725
27093W        W45947  11.287  12.008   1.224 -0.4568 -0.4605  0.0028
27094W        W45948   0.370   7.921   2.844 -0.2287 -0.0563 -0.2295
27095W        W45949  17.009   0.404   0.151 -0.2197 -0.2252  0.0659
27096W        W45950   7.521  17.377  13.432 -0.1822  0.3703 -0.1124
27097W        W45951  17.720   4.390   9.429 -0.0994 -0.0726 -0.1546
27098W        W45952  14.407   4.632   0.034  0.2663  0.0375 -0.0644
27099W        W45953   2.809   1.019   2.049  0.1796  0.1531 -0.0945
27100W        W45954   5.710  16.269   3.651  0.1269 -0.0118  0.0247
27101W        W45955   6.751   2.485   2.941  0.0571 -0.0405  0.0141
27102W        W45956   8.409  19.008   2.114 -0.1023 -0.0512 -0.0801
27103W        W45957   2.895   1.926   0.892  0.4159 -0.0125  0.4375
27104W        W45958  15.611  15.762   0.630 -0.1010 -0.1315  0.0488
27105W        W45959   8.936   2.959  14.586 -0.2067  0.0569 -0.0531
27106W        W45960   5.171  14.590  14.086  0.2969  0.1955 -0.2495
27107W        W45961  14.510  10.655  14.354 -0.0223  0.0918  0.0448
27108W        W45962   6.411  16.455   2.390  0.0720  0.0456 -0.0634
27109W        W45963   8.194   4.384   1.644 -0.1366 -0.0323  0.0956
27110W        W45964  12.852  13.710  14.715 -0.2416  0.0162 -0.1047
27111W        W45965  18.319  17.145   4.894  0.5677  0.1265  0.0713
27112W        W45966   6.924  10.429   3.865  0.1371 -0.0960  0.0246
27113W        W45967   6.738  13.891   2.226  0.1362 -0.1225  0.1957
27114W        W45968  14.853  16.137  14.722 -0.3014 -0.0962 -0.0581
27115W        W45969   3.270   1.469  13.565  0.1440 -0.0330 -0.2329
27116W        W45970   1.536   5.826   1.293 -0.2537 -0.2600  0.1637
27117W        W45971  11.676   3.846   2.627 -0.1614 -0.2798  0.1913
27118W        W45972  15.938   5.237   4.394  0.0465 -0.0136  0.3563
27119W        W45973   9.048   0.312  13.660 -0.2231  0.1537  0.0514
27120W        W45974  16.121   6.865  14.608  0.1638  0.0907 -0.0963
27121W        W45975   0.800  15.818  11.849 -0.1233 -0.2271  0.0529
27122W        W45976   8.512  17.146   4.571 -0.2328  0.0679 -0.3069
27123W        W45977   3.873   7.308  11.054 -0.1238 -0.3652 -0.2631
27124W        W45978   5.763  16.729  13.324 -0.0830 -0.1544 -0.0694
27125W        W45979   7.914   7.360   2.526  0.1357  0.1422 -0.0070
27126W        W45980   1.948   3.311  11.847 -0.1462  0.1023 -0.1386
27127W        W45981  14.516   3.690  14.397  0.0949  0.2439 -0.0734
27128W        W45982  17.976   5.538  14.104  0.3259  0.4253  0.0102
27129W        W45983   0.850   4.200  13.400 -0.0848 -0.2516 -0.1806
27130W        W45984   9.858  16.044  13.153  0.1205  0.0350  0.0619
27131W        W45985   1.167   7.190   3.398 -0.0200 -0.1562  0.0403
27132W        W45986   4.524  15.112  12.268 -0.1380 -0.1676  0.0738
27133W        W45987   3.661   9.965   3.695  0.2629  0.0886  0.0808
27134W        W45988   9.459   2.047  14.122  0.1236  0.0935 -0.4152
27135W        W45989   2.531  17.802   1.952 -0.1314  0.2170 -0.0218
27136W        W45990   4.904   7.797   3.687 -0.0689  0.1892 -0.0957
27137W        W45991   8.423  14.493  11.882 -0.0957  0.0138 -0.0319
27138W        W45992  15.158  14.327   3.453 -0.0553 -0.3278 -0.0267
27139W        W45993  18.270   3.555  10.984 -0.0892 -0.0255  0.0108
27140W        W45994   4.395   4.784  12.779 -0.0443 -0.0327 -0.1214
27141W        W45995   5.106  13.983  12.886  0.1705 -0.3393 -0.1094
27142W        W45996   6.659   9.283   9.339  0.5486  0.1516 -0.1676
27143W        W45997  15.263  13.294  14.262 -0.1020  0.3135 -0.2883
27144W        W45998   7.142   4.339   3.473 -0.1049 -0.2977  0.1777
27145W        W45999  18.425   9.619   0.640 -0.1929  0.1398 -0.0749
27146W        W46000   7.080  11.387   0.761  0.1542 -0.0042 -0.0667
27147W        W46001  18.095   0.882   1.009 -0.1477  0.0434  0.1077
27148W        W46002  17.326  13.515   2.362  0.0247 -0.0945 -0.0287
27149W        W46003   6.743  10.886   2.411  0.0907 -0.1128 -0.1738
27150W        W46004   1.283  15.547   1.406  0.3336  0.2922 -0.1459
27151W        W46005  16.870  17.798   1.230  0.1284  0.0983  0.0681
27152W        W46006  18.692   4.386   1.781 -0.1011 -0.2476  0.1202
27153W        W46007   8.337   8.185   3.695  0.0580  0.2768  0.1619
27154W        W46008   0.305   5.383  11.952 -0.2016 -0.0079 -0.0441
27155W        W46009  14.841  15.718   1.144 -0.2394 -0.0663 -0.1735
27156W        W46010  14.799   4.838  10.516 -0.2327  0.2701 -0.0854
27157W        W46011  15.225  18.010   2.875  0.2004 -0.1454 -0.0524
27158W        W46012  15.985   7.756   1.540 -0.2586  0.1929  0.1323
27159W        W46013   7.684  13.151   2.952  0.1006  0.1375  0.0673
27160W        W46014  11.437   3.407  13.075 -0.0395  0.2857 -0.0464
27161W        W46015   9.146   0.947   3.158  0.0329 -0.2062 -0.0443
27162W        W46016   7.497   1.534   0.361  0.1354  0.0919  0.2047
27163W        W46017   1.137   7.941   2.905  0.1354  0.0167 -0.2203
27164W        W46018  18.601  13.065   3.488  0.3725 -0.0241 -0.2554
27165W        W46019  14.612   4.821  12.166  0.5095  0.0744  0.3365
27166W        W46020   0.756  18.281  12.123 -0.1636  0.2063 -0.1728
27167W        W46021  18.147  16.389   3.015 -0.1693 -0.2474 -0.2159
27168W        W46022  19.077  14.376   0.497  0.2275  0.0265  0.1386
27169W        W46023   6.862  11.559  11.695 -0.4253  0.0022  0.1800
27170W        W46024  17.183   4.818   0.178  0.0999 -0.0921  0.3537
27171W        W46025  10.292  13.230  11.145 -0.3682 -0.1000  0.0824
27172W        W46026  12.160   5.744   3.040  0.2023 -0.1884 -0.0259
27173W        W46027  16.898   7.188  10.873 -0.0680 -0.0467 -0.1761
27174W        W46028   8.368   8.526   0.445  0.2249  0.2790 -0.0807
27175W        W46029   7.086   5.610   9.852 -0.1268  0.2317  0.3113
27176W        W46030   3.546  11.630   0.702  0.0204  0.2413 -0.1196
27177W        W46031   1.465   4.403   0.829 -0.0286  0.4781  0.0189
27178W        W46032   9.949   3.006  14.556 -0.0402 -0.1716 -0.0415
27179W        W46033   1.102  17.581  13.201  0.0438 -0.2703 -0.2828
27180W        W46034  12.251  17.499  14.401 -0.1637  0.0710  0.1088
27181W        W46035   8.841  10.445  11.757  0.3371 -0.1941 -0.1282
27182W        W46036   1.733   8.283  11.793 -0.1523  0.1669  0.2262
27183W        W46037   6.790   0.089   0.937  0.2492 -0.1455  0.2383
27184W        W46038   4.827  12.807   1.568 -0.0527  0.0969  0.0794
27185W        W46039   4.339   2.639   2.362 -0.0662  0.4791 -0.0435
27186W        W46040  16.598   4.744   1.764  0.1230  0.0888 -0.1492
27187W        W46041   6.715   7.349   1.180 -0.0301  0.0221 -0.1247
27188W        W46042   8.786  14.079   1.375  0.0529  0.1534 -0.0917
27189W        W46043   7.251   1.025  13.660 -0.0671  0.1262  0.1083
27190W        W46044  11.822   8.373   0.987  0.1501 -0.0317  0.1075
27191W        W46045   7.118  11.588   2.640  0.1837 -0.0625 -0.0715
27192W        W46046  15.974  12.722  11.000 -0.0295 -0.6119 -0.5678
27193W        W46047   6.105   7.100  12.881 -0.0112  0.1220 -0.1632
27194W        W46048   2.908  15.916   3.919  0.1892 -0.2208 -0.2510
27195W        W46049  16.812   2.482  10.878  0.0112 -0.0080  0.3087
27196W        W46050   4.351   9.752  14.456  0.0424  0.2533 -0.1778
27197W        W46051  11.209  17.731  11.143  0.0246  0.2877 -0.0477
27198W        W46052   3.528  11.828  10.676 -0.0821  0.0666  0.1375
27199W        W46053  13.083   5.353   3.249  0.1421  0.0779 -0.0122
27200W        W46054   6.520   0.743  10.433 -0.1834  0.1755 -0.1807
27201W        W46055   2.217   3.895   3.966  0.0138  0.0906  0.0833
27202W        W46056  17.278   9.626   2.414  0.1837 -0.0233 -0.0215
27203W        W46057  16.578   6.878   2.695  0.1021 -0.3330  0.1893
27204W        W46058  13.374   7.404   2.493 -0.0280  0.3042  0.0449
27205W        W46059   0.812   0.878   3.901 -0.1007 -0.0238 -0.1253
27206W        W46060  12.043   8.606   0.297  0.1648 -0.0154  0.1046
27207W        W46061  17.527   3.299  10.661 -0.3759  0.1649 -0.0663
27208W        W46062   8.492   2.240   3.491 -0.1155  0.0006 -0.2592
27209W        W46063  18.858   9.967  12.930 -0.0720  0.4176 -0.1244
27210W        W46064   7.654   3.408   3.479  0.0633 -0.0974  0.3348
27211W        W46065   2.689  10.646  10.799  0.3861  0.2342  0.1139
27212W        W46066  18.599  17.910  11.818  0.0347  0.4001 -0.0359
27213W        W46067  17.311  17.440  13.591 -0.2609 -0.1608  0.0685
27214W        W46068   4.291   1.816   0.664  0.1104 -0.0997  0.0516
27215W        W46069  19.191   4.378  11.024  0.1075  0.3132 -0.2129
27216W        W46070   6.508  15.404   0.348 -0.0938 -0.0542  0.2703
27217W        W46071  13.598  15.677  13.758  0.1008  0.1389 -0.0331
27218W        W46072  17.168   7.176  11.481 -0.1819 -0.1689  0.0345
27219W        W46073  15.556  11.697  12.406  0.0397 -0.1958 -0.1681
27220W        W46074  11.483   0.182  11.204  0.0733  0.1262  0.0258
27221W        W46075   1.327   5.055   9.698 -0.1631  0.1610 -0.1365
27222W        W46076  17.032  14.728  14.731 -0.0439  0.0373  0.0011
27223W        W46077  15.066   9.363  11.700 -0.1630  0.2927  0.1444
27224W        W46078   8.165  11.784  11.903 -0.0744  0.0709 -0.2717
27225W        W46079   1.806  12.240   3.765 -0.1122 -0.0647  0.3506
27226W        W46080  16.004   7.147   1.918  0.0875  0.0214 -0.3192
27227W        W46081   8.633  13.681   3.566  0.0870 -0.0628  0.1580
27228W        W46082  16.436   6.097  13.484 -0.2219  0.4124  0.2543
27229W        W46083  14.337   3.382   1.562 -0.1691  0.0477 -0.1351
27230W        W46084   9.140   6.687  11.227  0.1589 -0.2482  0.0878
27231W        W46085   4.200  13.707   3.090 -0.1994 -0.0121 -0.1016
27232W        W46086  10.276   9.930  14.114  0.3014  0.1869  0.1224
27233W        W46087   3.995  17.387   4.119 -0.1119  0.0403 -0.4189
27234W        W46088   2.420   0.169   0.108 -0.0349  0.1492  0.1614
27235W        W46089   5.100   9.162   1.438 -0.2644  0.0052  0.0962
27236W        W46090  18.525   2.534   3.824  0.1802  0.1946 -0.0678
27237W        W46091   9.995  12.313  12.897 -0.0164  0.3115 -0.0966
27238W        W46092   3.794  18.255   1.691 -0.1206  0.0810 -0.3350
27239W        W46093   7.584   7.874  12.142 -0.1096  0.1989 -0.0127
27240W        W46094  11.455   2.456  14.005  0.0798 -0.1752 -0.0791
27241W        W46095   0.865  15.678  13.912  0.5567 -0.3890  0.3113
27242W        W46096   5.201  19.144   3.504 -0.0112 -0.3294  0.1366
27243W        W46097   9.736  16.632   2.302  0.2517  0.0521 -0.1846
27244W        W46098  18.834   6.328   2.434 -0.0800 -0.0488 -0.5272
27245W        W46099  10.616   5.731  10.676 -0.1640  0.0996 -0.1064
27246W        W46100  16.841  12.405  11.342  0.1556  0.1469 -0.0994
27247W        W46101  10.232  13.741   1.781 -0.1784  0.0250 -0.0656
27248W        W46102  12.373  15.251   4.557  0.0871 -0.0218  0.1551
27249W        W46103  12.839  14.998   2.381 -0.0204 -0.0931  0.1861
27250W        W46104   1.077   4.318  12.451  0.0095  0.1789  0.1105
27251W        W46105   2.362  10.082   1.430  0.0329 -0.0661  0.2742
27252W        W46106   1.185  15.935  12.760 -0.0329 -0.1707 -0.3319
27253W        W46107  14.198   7.471  12.903  0.3465  0.1908 -0.0220
27254W        W46108  14.009   2.221  11.742 -0.1618 -0.2157  0.0402
27255W        W46109   2.406   0.986   0.574  0.2918  0.1827  0.2111
27256W        W46110   9.794   8.663  11.447  0.0931  0.0522  0.2182
27257W        W46111  14.971   8.789   1.253  0.1932 -0.2297 -0.1461
27258W        W46112  12.973   5.652  13.122 -0.0520  0.0475 -0.0420
27259W        W46113   0.384  14.822   0.786 -0.0966  0.0292 -0.1036
27260W        W46114  12.864  11.592  13.945  0.0408 -0.0231  0.0990
27261W        W46115   9.342  16.245  13.165 -0.0150  0.1752 -0.2979
27262W        W46116   7.809   2.359  13.871  0.0314  0.1490 -0.2690
27263W        W46117  19.049  17.584  13.883 -0.0912  0.1881 -0.0786
27264W        W46118  17.025   3.562   3.587  0.0590 -0.0302  0.0827
27265W        W46119  11.617  15.563   9.536 -0.1707 -0.0823  0.0919
27266W        W46120  13.338   7.739  13.901 -0.1168  0.1459 -0.0672
27267W        W46121   0.169  11.980   5.144  0.3470 -0.1611 -0.0383
27268W        W46122  16.452   3.660  13.949  0.0777  0.2235  0.0502
27269W        W46123  17.539   1.024  12.022  0.0628 -0.0693  0.0457
27270W        W46124  15.643   2.658   2.775 -0.3630  0.1093 -0.0251
27271W        W46125   3.478   2.889  13.707 -0.0932 -0.1789 -0.1308
27272W        W46126   5.123  12.759   1.103 -0.0466 -0.0334 -0.2952
27273W        W46127   7.730   9.203   0.721  0.1258  0.2456  0.2492
27274W        W46128  14.245   6.615   1.173 -0.0398 -0.2579 -0.1373
27275W        W46129  12.531   5.881   0.438  0.2692  0.2250 -0.1422
27276W        W46130  11.184  15.749  14.168 -0.1130  0.2319  0.0619
27277W        W46131   7.087   7.616  11.489 -0.1304  0.0675  0.1217
27278W        W46132  18.157  18.709  14.279  0.1472 -0.1065 -0.2610
27279W        W46133  13.313   9.060  11.459 -0.2181  0.2937  0.1923
27280W        W46134   3.273   0.318  10.001  0.1703  0.2649  0.0720
27281W        W46135  15.614  16.653  10.582  0.1800 -0.2614  0.2506
27282W        W46136   1.805   7.204   4.299 -0.1013  0.0939  0.1406
27283W        W46137   1.843  13.575   4.029  0.1479  0.2806 -0.1700
27284W        W46138  14.753   7.693   1.184 -0.2088 -0.0928  0.0511
27285W        W46139   7.020  13.687  14.145 -0.0516 -0.3356  0.1037
27286W        W46140   9.178  19.080   2.856  0.0738  0.3279  0.1277
27287W        W46141  10.765   2.945  11.684 -0.2066  0.2985  0.1513
27288W        W46142  16.795  17.057   2.422  0.0928 -0.0263  0.0282
27289W        W46143  18.448   7.296   4.555  0.0084  0.1637 -0.2324
27290W        W46144  12.603  15.825  13.413 -0.3240  0.2288  0.1912
27291W        W46145   2.533  13.723  13.861 -0.0279 -0.4248 -0.2812
27292W        W46146   9.171   6.850   4.148 -0.1710  0.0742  0.0163
27293W        W46147   9.135   9.692  12.820 -0.0664  0.0628 -0.0744
27294W        W46148   9.939   7.952   3.009  0.0912 -0.2477 -0.0053
27295W        W46149   2.416   8.099   2.554 -0.0999  0.0271  0.0995
27296W        W46150   2.078   0.585   3.788 -0.1279 -0.1458 -0.2171
27297W        W46151  15.754  12.611  13.412 -0.0401 -0.2453 -0.1434
27298W        W46152  17.399   5.546   3.185 -0.2365 -0.2298 -0.1305
27299W        W46153  16.075   1.596  11.710 -0.3233  0.2798  0.1861
27300W        W46154  16.256  14.355   1.355  0.1985 -0.1482 -0.0414
27301W        W46155  12.168   2.223  13.348  0.0828 -0.2125 -0.1760
27302W        W46156  16.486   2.895  10.619 -0.2108 -0.3096 -0.0798
27303W        W46157  12.300   0.980  11.587 -0.1006  0.1839 -0.0167
27304W        W46158  10.068  13.481   3.703 -0.0406 -0.0303  0.2262
27305W        W46159  15.787  15.967  10.680 -0.1847  0.2183 -0.0243
27306W        W46160  14.090   4.937   3.664  0.1738  0.2881  0.0595
27307W        W46161  17.944   3.458   3.209  0.1873  0.0948 -0.1164
27308W        W46162  15.937  12.404   0.776  0.1437 -0.0855  0.4762
27309W        W46163   0.439   5.188   2.193 -0.2620  0.1878  0.0492
27310W        W46164   0.845   6.310  10.279  0.0087 -0.0651 -0.0180
27311W        W46165   0.454  14.408  14.188  0.0087 -0.3570  0.1617
27312W        W46166   2.246   3.142  10.346  0.1850  0.0078 -0.0714
27313W        W46167  13.235   9.362   0.089 -0.1184 -0.1899 -0.0258
27314W        W46168  10.734  11.182  12.245 -0.0981  0.2583  0.1787
27315W        W46169   5.400   3.403  12.462 -0.3352  0.4658 -0.0589
27316W        W46170  13.653  14.243   2.144  0.0173  0.3111 -0.1890
27317W        W46171  13.026  15.205  11.274  0.2442 -0.2453 -0.1436
27318W        W46172   1.646   8.611  10.821 -0.4399  0.2425  0.2457
27319W        W46173   7.720   2.945   1.437  0.1524  0.2233 -0.1287
27320W        W46174  12.443   4.918   0.082 -0.1586  0.0046  0.4731
27321W        W46175   6.961   0.647   1.619  0.2257  0.1324  0.1258
27322W        W46176  13.656  17.633   1.871  0.0505 -0.2729  0.0129
27323W        W46177   4.864   0.947   0.100 -0.3609 -0.0658 -0.1793
27324W        W46178   4.645  11.146   3.723  0.1713 -0.1979  0.1134
27325W        W46179   1.548  11.516   4.271  0.0877  0.0287 -0.6159
27326W        W46180  13.118   9.594  12.406  0.0412 -0.2395  0.0744
27327W        W46181  16.606   5.750   3.618  0.1431  0.0297  0.0958
27328W        W46182   8.166   1.382   9.609 -0.4541  0.3535  0.0827
27329W        W46183   2.149   4.731  12.183 -0.4360  0.0443 -0.0058
27330W        W46184  14.433  13.881   3.128  0.0298 -0.0337  0.1352
27331W        W46185   2.289   1.685  13.238  0.0496  0.1463  0.0461
27332W        W46186   9.219   4.271   3.692 -0.1069  0.0323  0.1138
27333W        W46187   1.204   9.130  11.744  0.1505 -0.2725  0.0587
27334W        W46188   3.819   3.563  12.987 -0.0404 -0.3498 -0.0842
27335W        W46189   6.539   4.163  11.965  0.2406  0.1076 -0.2740
27336W        W46190  18.615   5.079   2.049  0.0981 -0.1917  0.0708
27337W        W46191  16.712  14.424  12.030 -0.1762 -0.0459  0.0641
27338W        W46192   3.130   4.249   2.783 -0.3243 -0.0776  0.0745
27339W        W46193   0.253   0.754  12.359  0.2323  0.1050 -0.1247
27340W        W46194  14.743   8.237   0.307  0.0518 -0.2517  0.0402
27341W        W46195   6.781   5.557  14.027 -0.0587  0.2332 -0.1546
27342W        W46196   8.953  15.121   2.738  0.1606 -0.2138  0.2465
27343W        W46197  18.100   3.818   1.437  0.3098 -0.1025 -0.2851
27344W        W46198   2.782  13.260   1.978 -0.0533 -0.0604 -0.0661
27345W        W46199  16.017  19.106   0.894 -0.4345 -0.2157 -0.0756
27346W        W46200  14.049  13.631  12.009  0.0467  0.0595 -0.1043
27347W        W46201  15.613  10.573   0.283  0.1575  0.0819  0.2464
27348W        W46202   2.292  15.545  13.265  0.1288  0.0300 -0.0791
27349W        W46203   5.670   4.164  10.354  0.3351 -0.2735  0.0560
27350W        W46204   3.618   4.462   4.245 -0.1689 -0.0488 -0.1029
27351W        W46205  15.621  12.890   2.905  0.3349  0.1885 -0.0504
27352W        W46206  16.175  17.633   3.853 -0.2562 -0.0677 -0.0191
27353W        W46207  14.007  16.883  10.450 -0.0180  0.0208 -0.0140
27354W        W46208   6.438   4.629  12.053  0.2411  0.0663  0.1171
27355W        W46209   3.725   7.822  12.572 -0.1098 -0.1242  0.3134
27356W        W46210   0.322   4.925   2.629  0.2877 -0.2916  0.3767
27357W        W46211  17.209   7.850  14.122  0.2429  0.2121 -0.0729
27358W        W46212  17.374   3.867   0.326  0.0334 -0.3234  0.0652
27359W        W46213   9.392  14.104   2.017 -0.4406  0.0805  0.0026
27360W        W46214   9.564  10.746  13.245  0.1070 -0.1104 -0.2039
27361W        W46215   1.505   5.711  13.470 -0.3721  0.0865 -0.1869
27362W        W46216  16.601  13.354  11.038  0.1614  0.2440 -0.1881
27363W        W46217   1.405  16.597   1.751  0.2420 -0.0433  0.1910
27364W        W46218  14.842   3.456  14.724 -0.1472  0.0279 -0.3368
27365W        W46219  17.873   5.431   3.212  0.1715 -0.1803  0.2431
27366W        W46220   4.702  17.103  13.330  0.4331  0.2553 -0.0697
27367W        W46221  13.640   9.676   3.567  0.2643  0.2360 -0.0791
27368W        W46222   0.946  18.560   0.961  0.1823 -0.0687  0.1279
27369W        W46223   4.592   7.906   3.160  0.2345  0.1296 -0.0504
27370W        W46224   4.638  12.225  14.067 -0.2914 -0.0753 -0.0746
27371W        W46225   4.645  14.828  13.975 -0.3986  0.0969 -0.0249
27372W        W46226   2.629  17.460   1.105  0.2587  0.2979 -0.0821
27373W        W46227   4.321  18.281   3.577 -0.0245 -0.2345  0.2562
27374W        W46228   3.765  12.538  11.148  0.1686  0.0390 -0.0444
27375W        W46229  17.020  10.614  14.089  0.1110  0.2480  0.0960
27376W        W46230  10.318   6.791   3.844 -0.0437 -0.2369 -0.0120
27377W        W46231  10.748  16.666   1.393  0.0954 -0.0744 -0.0178
27378W        W46232   6.574  14.599  13.797 -0.0498 -0.0638 -0.0145
27379W        W46233   0.078   8.805   1.594  0.2818 -0.1421  0.1542
27380W        W46234   6.298   5.597  12.547  0.2278 -0.0480 -0.1650
27381W        W46235   2.146  10.991   3.863 -0.1252 -0.1191 -0.2214
27382W        W46236   0.822   0.209   4.464  0.0012 -0.0556  0.0564
27383W        W46237   9.916   9.834  12.815  0.1533 -0.2455 -0.0765
27384W        W46238  13.155   3.667   1.852 -0.0192 -0.1798 -0.1450
27385W        W46239  13.023  10.887   4.891  0.0668 -0.2612 -0.1652
27386W        W46240   9.515   1.485   1.418  0.0221  0.0321  0.1426
27387W        W46241   7.546   9.224  11.495  0.0977 -0.0403  0.0105
27388W        W46242   0.094  19.173   0.020  0.2628 -0.0041  0.0816
27389W        W46243   0.566   8.018   3.309  0.0768  0.1544  0.2310
27390W        W46244   8.192   0.186   3.763 -0.5488  0.2400 -0.0513
27391W        W46245   1.057  14.917  13.302  0.1400 -0.3926  0.1392
27392W        W46246  17.242  18.894   4.163 -0.0563 -0.4661 -0.0404
27393W        W46247  14.725  10.531   0.128  0.1320  0.2205  0.0728
27394W        W46248  17.462  10.620  11.841  0.4220 -0.0879 -0.1820
27395W        W46249   6.624   9.942  12.068  0.0535 -0.1855 -0.0563
27396W        W46250  18.718   0.350  13.465 -0.0331  0.0662 -0.0665
27397W        W46251  13.334   0.394   1.227  0.0743  0.0965  0.1551
27398W        W46252   1.493  13.348  10.670 -0.2389 -0.0994 -0.4571
27399W        W46253   4.317   1.719  14.266 -0.1587  0.0017 -0.0425
27400W        W46254   9.290   8.946   3.497  0.0942  0.1159 -0.1229
27401W        W46255   2.904   3.584  12.068  0.0239 -0.1629  0.4868
27402W        W46256  14.636   8.706  11.538 -0.1991 -0.2589 -0.0263
27403W        W46257  12.171   5.944   3.770  0.3283 -0.1886 -0.1672
27404W        W46258   9.247   1.809  11.656  0.0144  0.1640 -0.1955
27405W        W46259   4.643   6.228  12.553 -0.0981  0.0114 -0.0970
27406W        W46260   6.316  14.972  10.341 -0.1317 -0.1397 -0.1391
27407W        W46261  18.280   9.287   1.934 -0.0459  0.2289  0.1314
27408W        W46262  15.457  13.936   3.571  0.1755 -0.0877 -0.3730
27409W        W46263   1.767  12.536   0.111  0.1237 -0.0578 -0.0319
27410W        W46264   8.299  18.548  14.334  0.2188  0.1231  0.0497
27411W        W46265   7.321   7.626   4.921 -0.0537  0.2241 -0.0503
27412W        W46266  16.646   3.512  12.351  0.0164 -0.0755  0.3133
27413W        W46267   0.001   7.072   4.740  0.1905  0.4434  0.2489
27414W        W46268  16.730  11.979  12.287 -0.3462  0.4064  0.5639
27415W        W46269   2.165  13.035   1.254 -0.0523 -0.4844 -0.0845
27416W        W46270  18.480  17.812   0.636 -0.2029 -0.0555 -0.2538
27417W        W46271  10.841   1.198   0.387  0.0719  0.0057 -0.1909
27418W        W46272  10.867  14.060  10.422 -0.0118 -0.1935 -0.4761
27419W        W46273  16.278  13.833  14.319  0.2846  0.2194 -0.2001
27420W        W46274  15.272   0.764  14.589 -0.0201  0.2006 -0.0024
27421W        W46275   2.192   1.043  13.442  0.0726 -0.3229 -0.0500
27422W        W46276  17.118  11.861   4.658 -0.1652  0.2151  0.1426
27423W        W46277   5.484  16.875   1.874 -0.0251 -0.1707  0.1799
27424W        W46278  17.321   9.338   2.890  0.2632 -0.0704 -0.2183
27425W        W46279  16.071   3.151   0.764 -0.1145  0.0574  0.2457
27426W        W46280   0.145  10.331   0.143 -0.0767  0.1480 -0.2114
27427W        W46281  16.098  13.718  11.817 -0.0217  0.1597  0.1172
27428W        W46282  10.529  17.622  13.766 -0.0038  0.5446  0.1235
27429W        W46283   6.514  10.553  13.666 -0.1320  0.0748  0.1256
27430W        W46284   5.684   7.200  13.678  0.2642 -0.0126 -0.2122
27431W        W46285   7.721   3.062   3.933 -0.0623 -0.1523  0.1635
27432W        W46286  15.355   6.596   2.535 -0.1831 -0.3147  0.0557
27433W        W46287  11.795  12.982   2.953 -0.1048  0.1630 -0.0731
27434W        W46288   1.680   0.050   2.006 -0.0362 -0.4528  0.2956
27435W        W46289  18.957   3.480  10.949  0.2868  0.0849 -0.1363
27436W        W46290   5.346  14.085  13.899  0.2413 -0.0773 -0.1194
27437W        W46291   2.156   3.826  11.576  0.2006 -0.2238  0.0474
27438W        W46292  18.018  11.509  10.719  0.2501  0.2093  0.1094
27439W        W46293  12.047   2.425   0.508 -0.3465 -0.1982 -0.0180
27440W        W46294  10.697   8.425   0.231 -0.3771  0.1948 -0.3237
27441W        W46295   4.257  16.410  14.418  0.0438  0.0284  0.1554
27442W        W46296   6.698   0.442  10.872  0.0475  0.1842 -0.0782
27443W        W46297   7.292   8.122   2.074  0.1919  0.1585  0.0493
27444W        W46298  15.896   1.464   3.652  0.0434  0.2294  0.2036
27445W        W46299  17.887  16.449  11.393  0.0027 -0.1933  0.0974
27446W        W46300   9.042   0.429   3.195 -0.1506 -0.2569  0.1674
27447W        W46301  17.304   6.419  10.580  0.1680 -0.3700  0.0857
27448W        W46302  14.188   2.922  14.102  0.4408 -0.0099 -0.1402
27449W        W46303   2.571  13.772   0.776  0.4153  0.1670 -0.0802
27450W        W46304  17.752   6.594   3.447 -0.2847  0.1516 -0.3784
27451W        W46305   2.316  17.189   0.808  0.2281  0.4075 -0.1353
27452W        W46306   1.962   6.168   0.454  0.0193  0.4633  0.1885
27453W        W46307  16.867   5.123  11.280  0.5831  0.3465  0.0766
27454W        W46308  15.650  18.406  14.249 -0.2591  0.0785  0.0001
27455W        W46309  18.061  12.865   3.806 -0.0153  0.2622 -0.1476
27456W        W46310   9.561  12.719   3.074 -0.0345 -0.3283 -0.2075
27457W        W46311  14.397   8.899   0.632  0.0501 -0.2144  0.3569
27458W        W46312  11.496   7.864   4.930  0.1933  0.1464  0.1414
27459W        W46313   3.058  14.501   2.688 -0.2978  0.1443 -0.2957
27460W        W46314  13.129   8.798  11.968 -0.0317  0.1644  0.1776
27461W        W46315  17.141   5.818   3.538  0.5402  0.1121 -0.2730
27462W        W46316   8.801   2.647   2.871 -0.0373 -0.0682  0.0914
27463W        W46317   4.528   2.005   3.121 -0.5250 -0.1668  0.0424
27464W        W46318  11.890   4.950   2.277 -0.3114  0.1904 -0.0389
27465W        W46319   2.314  10.070  12.970  0.0503 -0.4582  0.0658
27466W        W46320   7.635   4.871   3.375  0.0702 -0.1545 -0.0019
27467W        W46321   2.719  19.091   3.797  0.1809 -0.0654 -0.0896
27468W        W46322   6.699  14.391   5.239  0.0821 -0.2425 -0.1369
27469W        W46323  12.889   9.084   2.711 -0.0843 -0.1212 -0.3864
27470W        W46324   6.944   1.869   2.757 -0.0007  0.1783  0.2200
27471W        W46325   4.579   0.717   1.186 -0.1208  0.0575  0.0567
27472W        W46326   3.073   7.740   3.736  0.1122 -0.2566 -0.0467
27473W        W46327   3.638   6.002   2.518 -0.0805  0.0992 -0.0059
27474W        W46328  12.216   8.420  12.496 -0.0274 -0.2350  0.1019
27475W        W46329  11.663   8.041  13.559 -0.1941 -0.1038  0.2142
27476W        W46330   7.453  13.901   0.967  0.2634  0.3422 -0.3128
27477W        W46331   1.410  12.354  12.290  0.1071 -0.0486 -0.0091
27478W        W46332   4.289   1.521   1.622  0.0496 -0.4403  0.2595
27479W        W46333   2.717  13.285  10.705 -0.2417 -0.3275 -0.0608
27480W        W46334  13.311  15.191   2.095  0.0394  0.2806 -0.1102
27481W        W46335  12.768   0.788   0.536 -0.2485 -0.0005 -0.0188
27482W        W46336   7.350   0.623   3.803 -0.1810  0.3635 -0.2013
27483W        W46337   6.559   7.875  12.458  0.2310  0.3960  0.0146
27484W        W46338  18.233   1.412   1.982  0.0183 -0.0288  0.4116
27485W        W46339   6.391  13.334   3.349 -0.2075  0.1033 -0.1061
27486W        W46340  14.216   6.485   3.497  0.1920  0.1013  0.1391
27487W        W46341  14.224   3.890  12.031  0.2974  0.1279  0.1349
27488W        W46342   0.825  16.858  12.403 -0.2502 -0.0418 -0.0855
27489W        W46343  14.658  12.944   2.169 -0.0836 -0.1400 -0.0121
27490W        W46344   3.164  14.827  11.170  0.2100 -0.0050  0.1179
27491W        W46345   2.269  14.768  11.310 -0.0966 -0.2010 -0.0049
27492W        W46346   7.112  14.188  14.318 -0.0080 -0.1904  0.0748
27493W        W46347   9.807   4.628  12.428  0.3035 -0.1281  0.1930
27494W        W46348   3.261   9.348   0.784  0.0368  0.1149 -0.0074
27495W        W46349  15.764  14.772  10.579  0.2790 -0.0542 -0.1088
27496W        W46350   0.458  18.623  12.967 -0.3827  0.1221 -0.3011
27497W        W46351   0.805  10.010  11.598 -0.1368  0.0760 -0.1940
27498W        W46352   1.399  11.373  14.667  0.1131  0.0283  0.0106
27499W        W46353  14.929   2.432  12.417  0.1184 -0.1881  0.1684
27500W        W46354   3.846   6.220  11.457  0.0514  0.2781  0.0161
27501W        W46355   1.763   6.999   0.561 -0.1602  0.3367 -0.1700
27502W        W46356  14.102  13.981  13.570 -0.1115  0.1722 -0.1593
27503W        W46357  12.895  17.468   0.051 -0.0929  0.1522 -0.0876
27504W        W46358   3.917   5.709  10.135  0.4310  0.1224 -0.1510
27505W        W46359  13.913  10.932  11.935 -0.2794 -0.2216 -0.0891
27506W        W46360  19.029  16.734  11.050 -0.1387  0.0514 -0.1695
27507W        W46361  18.036   8.687   4.229  0.2387  0.1670 -0.1912
27508W        W46362  10.799   6.533  14.080 -0.1858  0.0644 -0.2249
27509W        W46363   8.270   1.063   3.191 -0.0253 -0.1686 -0.1779
27510W        W46364  17.619   4.185   3.112  0.1099 -0.0136  0.1454
27511W        W46365   1.554   9.105   0.202  0.3228 -0.0941  0.1906
27512W        W46366  16.147  13.083   2.484  0.2376  0.0352  0.0725
27513W        W46367  13.095  14.460   1.207  0.1756  0.2276  0.2613
27514W        W46368   9.246   1.927  10.860  0.0977 -0.1267  0.4093
27515W        W46369  16.539  15.152  11.339  0.0485  0.2701 -0.0329
27516W        W46370   9.709   7.620   9.850  0.0449 -0.1071  0.0203
27517W        W46371   7.360  17.262  12.501 -0.1117  0.1163 -0.1895
27518W        W46372   7.994   3.467  11.118  0.2329  0.1030 -0.1364
27519W        W46373   8.789   3.951   3.875 -0.2277  0.3033  0.1300
27520W        W46374   6.609   6.835   1.754  0.1154 -0.0406  0.0752
27521W        W46375  18.318  19.197   0.834 -0.4377 -0.0620  0.0577
27522W        W46376  15.199   1.721   3.203  0.0955 -0.1887 -0.4280
27523W        W46377  18.139  18.482   2.970  0.2196 -0.1427  0.1352
27524W        W46378   9.395  18.898  12.888 -0.2622  0.0127 -0.1730
27525W        W46379   7.337  18.570   0.902  0.2749 -0.0111 -0.0118
27526W        W46380   6.060  10.743   2.231 -0.4523 -0.0044 -0.1092
27527W        W46381   5.393   8.368   2.351 -0.0352  0.2349  0.0584
27528W        W46382   3.487  18.717   0.061  0.2972  0.4406  0.0785
27529W        W46383  16.525   6.181  13.027 -0.1832  0.0117  0.0758
27530W        W46384   1.668  12.278  11.839  0.3590  0.3417 -0.3509
27531W        W46385  10.404   8.000  11.398 -0.0314  0.1843 -0.0359
27532W        W46386  16.885   0.006  12.469  0.2969 -0.1348  0.0338
27533W        W46387  17.955  12.965  12.026 -0.0977 -0.1582  0.2204
27534W        W46388   6.725   1.245  14.708 -0.2073 -0.1203  0.1078
27535W        W46389  10.322   8.196  12.446  0.2106 -0.1716  0.3607
27536W        W46390  16.846   0.611   3.325  0.0043 -0.3342 -0.1898
27537W        W46391  18.656   8.108   2.304 -0.0872  0.4465  0.2140
27538W        W46392  10.800   2.811  14.203  0.5395 -0.0558  0.2152
27539W        W46393   1.152  16.490  12.625  0.4212 -0.0129 -0.0623
27540W        W46394   2.856   6.382   1.449  0.2101 -0.0088 -0.2124
27541W        W46395   4.203   8.617  11.862 -0.1199 -0.2186 -0.0998
27542W        W46396   3.351   0.564   1.724 -0.3303 -0.1222 -0.0798
27543W        W46397  12.817  16.169   4.450 -0.1284  0.5716  0.1271
27544W        W46398  15.122   5.267   2.731 -0.0204  0.1048  0.0587
27545W        W46399   6.809   4.784  11.310 -0.1886  0.1464  0.1727
27546W        W46400  18.523   7.456  10.231 -0.2211 -0.0960  0.1885
27547W        W46401  16.856   0.678   2.141 -0.1900 -0.0353  0.1963
27548W        W46402  15.439   1.205   0.907  0.2410  0.4634 -0.1119
27549W        W46403   0.160   6.383  14.423  0.0241 -0.0439  0.1698
27550W        W46404  14.703  11.639   3.307  0.1538 -0.0026 -0.1295
27551W        W46405  17.431  12.448  14.040  0.0668  0.1022 -0.0635
27552W        W46406   1.026  18.262   1.426  0.2030 -0.1493  0.0592
27553W        W46407  10.990  11.577  10.998  0.2552  0.2453 -0.0853
27554W        W46408   4.750  15.360   9.653 -0.3877  0.2781  0.3501
27555W        W46409   0.553   4.655  10.362  0.0866 -0.0749 -0.0193
27556W        W46410  11.918  13.022   0.896  0.0374  0.0073 -0.3886
27557W        W46411  18.729  17.424  12.971 -0.3664  0.0283  0.0273
27558W        W46412  11.332   0.415   4.880 -0.0878 -0.1329  0.1148
27559W        W46413   3.190   0.896  10.089  0.0412  0.0428 -0.3797
27560W        W46414   5.840   6.539   0.060  0.1975 -0.0397 -0.0798
27561W        W46415  17.829   7.560  12.953 -0.0276 -0.2899  0.6735
27562W        W46416   4.646  16.058  13.255 -0.5289  0.2108  0.0090
27563W        W46417  13.724   4.972   1.774  0.3808  0.2455 -0.2625
27564W        W46418   4.347  14.152  11.359  0.0203  0.1358 -0.0762
27565W        W46419  14.259  13.004  11.287 -0.3449  0.0877 -0.3474
27566W        W46420   8.011  13.434   4.208 -0.1165 -0.0034  0.1173
27567W        W46421  18.215  14.465   1.058  0.2423 -0.0100 -0.1076
27568W        W46422   1.837   2.301  13.092 -0.2300  0.0518  0.2123
27569W        W46423  18.521   4.092  11.425 -0.2605 -0.0980 -0.0720
27570W        W46424  18.877  11.463   9.867  0.0975  0.0161 -0.0042
27571W        W46425   3.464  18.271  12.997 -0.2630 -0.2148  0.2900
27572W        W46426   8.518   6.645   2.000 -0.1248  0.4798  0.1527
27573W        W46427   3.766   7.329  10.372  0.0084  0.2140 -0.0760
27574W        W46428  13.566  13.569   3.008  0.1403  0.0693  0.3966
27575W        W46429   5.257  11.499  12.403  0.1648  0.0393 -0.0134
27576W        W46430  11.476   7.549   2.919  0.0055 -0.1473  0.0029
27577W        W46431   2.831   8.663  12.552 -0.1024 -0.2023 -0.4535
27578W        W46432   7.435  13.176  12.912 -0.0473  0.3808  0.0326
27579W        W46433  11.498  10.779  11.634 -0.1796  0.0733  0.0102
27580W        W46434   5.322  11.902  13.488  0.2992  0.0740  0.1364
27581W        W46435   9.297   1.009  11.388  0.3103 -0.0028  0.3379
27582W        W46436   7.138   7.616   1.363 -0.1463 -0.2341  0.1925
27583W        W46437  18.549   5.884  10.266 -0.0512  0.0392 -0.0136
27584W        W46438   0.644   2.862  13.768 -0.1737 -0.4044 -0.1388
27585W        W46439   8.842   3.472   3.704  0.1274  0.0518  0.0577
27586W        W46440   8.936  12.073  11.533  0.1151 -0.2118 -0.1701
27587W        W46441  19.152  10.441   3.724  0.1315  0.1888  0.0001
27588W        W46442   4.194  10.734  12.862  0.0884  0.1300  0.1469
27589W        W46443  13.482   6.687   4.545  0.1551  0.3794 -0.1369
27590W        W46444   3.677  14.737  14.344 -0.0445 -0.0673  0.0958
27591W        W46445   2.493   2.553   9.361 -0.0209 -0.3103  0.0117
27592W        W46446  11.760  19.170  12.891  0.2577 -0.0408 -0.4576
27593W        W46447   8.034  14.278   9.656 -0.1212  0.1360  0.1478
27594W        W46448  18.377   8.571  12.979  0.0368 -0.2169 -0.1780
27595W        W46449   5.731  13.114   3.765 -0.2062  0.0212 -0.0986
27596W        W46450   8.223  15.542   2.383 -0.1687  0.1245  0.1021
27597W        W46451   2.336   0.312   3.335  0.1581  0.0066  0.1091
27598W        W46452  14.098  12.876  12.863 -0.0407 -0.0395 -0.3009
27599W        W46453   0.520  17.171   4.094  0.0777 -0.1385  0.1201
27600W        W46454  12.939   1.204   0.853  0.0581 -0.1032 -0.3985
27601W        W46455   6.374  15.242   0.783  0.2699  0.0910 -0.0842
27602W        W46456  13.641  16.559   4.293 -0.0489 -0.0449 -0.0882
27603W        W46457   7.006  14.562   0.844 -0.1020  0.1208 -0.2819
27604W        W46458  12.691   3.612   2.885 -0.1103  0.1315 -0.0270
27605W        W46459  17.287  14.947  12.206 -0.4421 -0.0503 -0.0732
27606W        W46460  14.910  19.023  13.116 -0.2458  0.0359 -0.0346
27607W        W46461  14.199  16.843  14.516  0.0349  0.1831  0.2392
27608W        W46462  15.071   3.346  13.920  0.0708  0.0273  0.2562
27609W        W46463   7.101  18.399   2.212  0.0501 -0.2559  0.1245
27610W        W46464   6.573  18.428  12.155  0.1131 -0.0991  0.1781
27611W        W46465  14.150  15.603   1.969 -0.0627  0.2600 -0.0010
27612W        W46466   8.872   7.330   0.785  0.0512 -0.0449  0.0650
27613W        W46467  16.864  16.739  13.655 -0.3123  0.0212  0.0493
27614W        W46468  19.110   9.955   2.184 -0.1834  0.1839  0.1719
27615W        W46469  13.392  12.881  13.463  0.1852  0.0128 -0.0661
27616W        W46470   3.806   3.922  13.428 -0.3952  0.0735 -0.1216
27617W        W46471  13.553  13.749   5.205  0.0513 -0.1976 -0.2812
27618W        W46472   2.342   8.394  12.610  0.0569  0.2575 -0.2615
27619W        W46473   9.757   9.485   0.116 -0.0095  0.2067  0.2013
27620W        W46474   4.333   1.246  11.160 -0.2509 -0.0844 -0.3256
27621W        W46475  10.744  14.096  13.619 -0.1870  0.1083 -0.2986
27622W        W46476   4.728  17.007  12.772  0.4132  0.2826 -0.3405
27623W        W46477  15.535  13.083   2.375  0.1608  0.1428  0.1460
27624W        W46478   5.890   6.045  11.334 -0.0375 -0.1160 -0.1249
27625W        W46479  11.484   3.596   0.098  0.0149 -0.2456 -0.0119
27626W        W46480   3.615   8.758  12.510 -0.3002 -0.2042  0.0923
27627W        W46481   0.074   2.900   4.366  0.2496 -0.1639  0.0122
27628W        W46482  18.754   9.374   4.611 -0.0904  0.0232  0.2488
27629W        W46483  18.242  10.919   2.689  0.1225  0.0308  0.1604
27630W        W46484  10.850   5.481  14.289  0.1787 -0.0626  0.1484
27631W        W46485   3.201  18.800   1.440 -0.5802 -0.0466  0.2552
27632W        W46486  15.859  16.333   3.850  0.0780  0.2153  0.1797
27633W        W46487  13.125  14.184  11.847 -0.2027 -0.3176  0.0294
27634W        W46488   5.475  18.163   2.550  0.0834 -0.0922  0.0695
27635W        W46489   2.188  15.061   0.640 -0.2929  0.1164  0.0638
27636W        W46490  18.869   1.813   2.615 -0.2932  0.0256  0.0686
27637W        W46491   0.898  16.244   4.445  0.3759 -0.3307  0.3693
27638W        W46492   5.587  10.812   9.845 -0.1962  0.0492 -0.3128
27639W        W46493  18.233  15.530  12.038 -0.0151 -0.0302  0.0687
27640W        W46494   0.500   6.703   3.449 -0.0003  0.0615  0.0325
27641W        W46495   8.882  13.936   0.107 -0.2331 -0.0760 -0.0993
27642W        W46496   8.155  13.442   0.848 -0.1430  0.1666  0.3129
27643W        W46497  13.858  12.159  12.269 -0.0432  0.0478 -0.0705
27644W        W46498   2.733   3.330   4.083  0.1237  0.0552 -0.2793
27645W        W46499   7.916   2.706   0.973  0.0013 -0.5175 -0.1773
27646W        W46500   5.277  14.232   2.939  0.0574  0.1237  0.0080
27647W        W46501   7.032  18.694   4.815  0.0802  0.1697  0.0743
27648W        W46502  17.591   9.672   3.327  0.1829  0.0897  0.0750
27649W        W46503  18.854   5.993   1.501 -0.4352 -0.2404 -0.2227
27650W        W46504   1.090  16.233  11.720  0.0316 -0.0014  0.4942
27651W        W46505  12.217  13.836   4.277  0.0338  0.0212 -0.0504
27652W        W46506  12.937  14.477   3.900 -0.1778  0.0821  0.2154
27653W        W46507  13.129  13.426   2.833  0.1537 -0.1903  0.0770
27654W        W46508  11.265  15.161  12.099 -0.4870  0.0698  0.1513
27655W        W46509   0.083  14.371   1.616 -0.1936  0.0979  0.0351
27656W        W46510   5.348  13.525   0.006  0.0481  0.1950  0.3927
27657W        W46511  18.156   1.056   1.505 -0.0901 -0.1369 -0.0128
27658W        W46512   9.974   8.834   9.701  0.0102  0.1307  0.2242
27659W        W46513   5.608  12.487   1.919  0.2099 -0.0533  0.2032
27660W        W46514   4.656   8.555   0.215 -0.0269  0.1960 -0.1678
27661W        W46515  13.108  18.155   0.989 -0.0698  0.2534 -0.0780
27662W        W46516   6.789   1.427   2.210  0.1697 -0.1817  0.1517
27663W        W46517  15.037   4.527   1.541  0.2633  0.1020 -0.0832
27664W        W46518  10.142  11.391  14.404  0.2223 -0.2248  0.0322
27665W        W46519   4.506   8.806  12.235 -0.0329 -0.0156 -0.1948
27666W        W46520  17.958   8.367   9.437 -0.1123  0.0693 -0.0521
27667W        W46521  18.067   5.579  13.504 -0.3313 -0.3682  0.2763
27668W        W46522   4.023  14.593   2.865  0.1119 -0.1341  0.3741
27669W        W46523   7.518  18.941   2.233 -0.3696 -0.2673 -0.1181
27670W        W46524   5.589   3.619   1.946 -0.1014 -0.0524  0.0982
27671W        W46525   1.053  15.738  11.452 -0.1011 -0.1130 -0.3847
27672W        W46526  13.207  13.067   4.932  0.2993 -0.1784  0.0215
27673W        W46527   5.692   4.085   2.595  0.0350  0.1271 -0.0269
27674W        W46528  17.718  13.113   2.568 -0.2116 -0.1477 -0.2022
27675W        W46529  14.691   8.281   1.356  0.0322 -0.3166  0.1024
27676W        W46530  13.825  14.417  13.942  0.1052 -0.0594 -0.1105
27677W        W46531   5.571   9.634  13.733  0.0203  0.1316  0.1510
27678W        W46532  15.955   1.962   3.841 -0.0446 -0.1042 -0.0818
27679W        W46533   8.745   4.407   0.914 -0.0136 -0.0923  0.1546
27680W        W46534   5.102  18.913   0.102  0.0773  0.0605  0.2915
27681W        W46535  11.728   6.681   0.266 -0.1019 -0.1662  0.2805
27682W        W46536  16.293   2.303   1.622 -0.0225 -0.1609  0.2832
27683W        W46537  13.912   3.765   9.408  0.0776  0.1594  0.0450
27684W        W46538  14.904   5.900  14.422  0.3587 -0.1348  0.1432
27685W        W46539  12.810   1.790  11.261  0.0864 -0.3166  0.0870
27686W        W46540   7.643  17.652   2.687 -0.0057 -0.1278  0.0593
27687W        W46541   3.381  14.155   1.144  0.1517  0.1902  0.3103
27688W        W46542  13.199   9.585  12.871  0.1340 -0.2715 -0.0775
27689W        W46543  17.383  17.280   0.048 -0.2530  0.1127 -0.1170
27690W        W46544   1.376   8.232  10.815  0.0448  0.1195  0.0841
27691W        W46545  17.729   3.581  11.033  0.1632 -0.0213  0.0200
27692W        W46546  16.246   2.081  11.738  0.0283 -0.0650  0.2417
27693W        W46547  17.833  18.090  11.333  0.1499  0.2121 -0.1778
27694W        W46548   0.891  14.683   2.650  0.0921 -0.0497 -0.0638
27695W        W46549   8.412  17.839   0.754 -0.2600  0.0986  0.2447
27696W        W46550  18.185  12.847  12.435  0.1571  0.1435 -0.0214
27697W        W46551   7.564   7.732   2.803 -0.1949  0.0745  0.1235
27698W        W46552   9.652  14.032  12.059 -0.0977  0.1044 -0.2760
27699W        W46553  10.995   6.230  13.735  0.3413 -0.1264 -0.1525
27700W        W46554  18.348  13.134  10.821  0.2392  0.0853 -0.1853
27701W        W46555  17.003   5.288  13.007  0.0546  0.1403  0.0909
27702W        W46556  12.303   5.776   1.517  0.3034 -0.0728 -0.1371
27703W        W46557  13.993  14.072  10.698 -0.0072  0.0579  0.1477
27704W        W46558   8.162   7.121  10.562 -0.1631  0.1233 -0.1460
27705W        W46559  11.851  17.028  12.316  0.3676  0.0442 -0.3027
27706W        W46560   8.488  19.078  11.586  0.0470  0.1197 -0.0762
27707W        W46561   3.930  11.480  11.074 -0.2025 -0.2534  0.2846
27708W        W46562  15.979   5.766   1.468 -0.0918  0.3323  0.0461
27709W        W46563  15.317   3.605  13.042 -0.2891 -0.0837 -0.0157
27710W        W46564  15.717  17.931  14.218 -0.1681  0.2249 -0.2660
27711W        W46565   1.204  10.078   0.408 -0.2106 -0.1576  0.2983
27712W        W46566  13.934  13.226   0.694 -0.0392  0.2747 -0.0216
27713W        W46567  12.622   9.438   2.460  0.3129  0.1854  0.2150
27714W        W46568  10.446  15.723   1.529 -0.0664  0.0421  0.1745
27715W        W46569  17.536  15.519  14.200 -0.1657 -0.1332 -0.0095
27716W        W46570  11.133   9.619   3.429  0.2245  0.0042  0.0468
27717W        W46571   9.892  18.492   1.204 -0.3320  0.1067  0.1013
27718W        W46572  16.968   0.867   2.657 -0.0144 -0.2881  0.0414
27719W        W46573   6.015   5.959   3.102  0.1954 -0.2447 -0.1478
27720W        W46574   2.269  11.945  12.312  0.0629  0.0653  0.1463
27721W        W46575   6.154  18.121  12.957 -0.1078 -0.0885 -0.0266
27722W        W46576  12.614  18.957   1.846 -0.1230  0.1705  0.1647
27723W        W46577  15.314   6.054  13.306  0.0138  0.2571 -0.1448
27724W        W46578  16.417   9.046  10.196  0.1131 -0.1404 -0.2098
27725W        W46579  10.227   9.018  10.657 -0.0378 -0.0941  0.1228
27726W        W46580   0.635   6.667  12.280 -0.1004 -0.1363 -0.0451
27727W        W46581  16.365   1.995   0.928 -0.0659  0.1046 -0.0745
27728W        W46582  18.139   5.833  14.617 -0.0242  0.4087 -0.2902
27729W        W46583   8.730   3.677   1.278 -0.2177  0.2276 -0.1197
27730W        W46584   4.075  13.507   3.866  0.1301  0.1495  0.0586
27731W        W46585  12.276   6.860  10.737  0.1204 -0.1380 -0.0830
27732W        W46586  12.510  16.072   1.420  0.3224  0.0722 -0.0186
27733W        W46587  18.896  12.058   4.940  0.1685  0.1663  0.2609
27734W        W46588   4.574   2.208  10.498 -0.1398 -0.0298  0.0565
27735W        W46589  18.435   8.773   3.907  0.3028 -0.0335 -0.1300
27736W        W46590  11.691  14.346  10.787 -0.4468 -0.0334  0.1016
27737W        W46591   5.289  13.469  13.169 -0.1138  0.0416  0.2892
27738W        W46592   5.532  11.557   1.843 -0.2087 -0.2664 -0.1749
27739W        W46593   8.189   6.019   2.874 -0.2100 -0.0454 -0.1614
27740W        W46594   3.820   1.407  11.249 -0.3226 -0.0767 -0.0435
27741W        W46595   3.859   0.946   0.915  0.3020 -0.3904 -0.2296
27742W        W46596  15.489   8.824   2.644 -0.1440  0.1168 -0.0774
27743W        W46597   2.896  15.029  14.470 -0.1487 -0.0988 -0.0462
27744W        W46598   1.224  13.039   0.801 -0.2151 -0.2323  0.2143
27745W        W46599   9.049   1.166   3.565  0.0725 -0.1354  0.2548
27746W        W46600   9.019   1.631   3.105 -0.0933 -0.2182  0.2047
27747W        W46601   1.986  16.680  13.167 -0.3406  0.0340  0.1941
27748W        W46602   5.775  18.385  11.692  0.0685  0.1035 -0.2710
27749W        W46603   5.337   6.908   3.631  0.0364 -0.2189 -0.0325
27750W        W46604   3.564   8.846   2.817  0.2219 -0.2926 -0.0053
27751W        W46605  18.300   4.730   1.846 -0.4612  0.0437  0.0790
27752W        W46606  15.192  18.472  13.474 -0.2397  0.0142  0.3983
27753W        W46607  14.087   4.377   1.301  0.0187 -0.0853  0.3674
27754W        W46608   4.686  10.969  13.793 -0.4158  0.0436 -0.0407
27755W        W46609  18.239  11.956  12.784  0.1337 -0.0874 -0.3236
27756W        W46610  10.081   1.154  14.663 -0.0885  0.0068 -0.0646
27757W        W46611   4.363   1.254  13.436  0.3726 -0.0390  0.3420
27758W        W46612   9.522   4.021   0.749 -0.1824  0.1092  0.1236
27759W        W46613   6.654  12.276  13.556  0.1167  0.0181  0.1380
27760W        W46614   2.700  10.228   1.045  0.0401 -0.0406  0.1234
27761W        W46615   2.181   6.228  11.021  0.2490  0.1271 -0.0899
27762W        W46616   3.769  14.669  10.363  0.1268 -0.3134  0.2320
27763W        W46617  11.433  11.682  11.319 -0.1460  0.0517  0.1007
27764W        W46618  10.675   8.420   1.744  0.0199 -0.1878  0.1044
27765W        W46619   5.644  15.525  11.122 -0.4623 -0.1090  0.2987
27766W        W46620  17.660  14.356   0.938  0.2278 -0.1099 -0.0436
27767W        W46621  18.887  18.623  14.082  0.1801  0.0218  0.1000
27768W        W46622  16.085   9.102   1.830 -0.4473  0.0218 -0.1061
27769W        W46623   6.944  18.002  12.433 -0.0810 -0.1880  0.1378
27770W        W46624  11.120  10.320  14.143 -0.0154 -0.3025  0.1333
27771W        W46625   2.556   2.138  12.286 -0.0608 -0.2613  0.0830
27772W        W46626  11.696  14.003   0.632 -0.0416 -0.0926 -0.1942
27773W        W46627  14.455   1.152   1.850 -0.1516 -0.1048  0.0392
27774W        W46628   6.613   6.789  13.615 -0.1682  0.0047  0.2109
27775W        W46629  18.781   6.623  13.061 -0.2670 -0.0272 -0.1298
27776W        W46630   9.631   3.547   0.503 -0.1764 -0.0865  0.0296
27777W        W46631  12.596   2.977   1.766  0.0154  0.0293  0.1034
27778W        W46632   7.431   1.355   0.897 -0.2887  0.0237 -0.0213
27779W        W46633   3.183   1.984   2.268  0.4096 -0.0740 -0.1637
27780W        W46634  15.647   7.499   4.196 -0.0593  0.0842  0.0790
27781W        W46635   3.827   5.206   5.154 -0.2184 -0.1097  0.0383
27782W        W46636  11.435   4.225   1.894  0.2208  0.1944  0.0002
27783W        W46637   1.545   4.054  12.171 -0.0384  0.1986 -0.1017
27784W        W46638   4.388   8.242   0.867  0.0313 -0.2932  0.1575
27785W        W46639   9.190  13.359  13.874 -0.0690  0.1166 -0.0987
27786W        W46640   4.863  11.867  14.311 -0.3298 -0.0331 -0.0323
27787W        W46641  16.823  15.321  12.985  0.1822 -0.1291  0.1286
27788W        W46642  14.804  13.465  10.780 -0.0976 -0.0649  0.1276
27789W        W46643   4.219  10.136  13.413 -0.1141  0.0569 -0.1039
27790W        W46644   0.494   9.133  13.400  0.0470 -0.2342 -0.0679
27791W        W46645   1.612   1.540   2.241 -0.0455  0.1608  0.0772
27792W        W46646   5.335   7.322  11.129  0.2501 -0.0320 -0.2153
27793W        W46647   3.359   3.835  12.118  0.0015  0.0087 -0.0815
27794W        W46648   5.332   6.360   4.138  0.2088  0.3779  0.3937
27795W        W46649   2.665   8.087  12.460 -0.0456 -0.5388  0.3395
27796W        W46650  15.106   5.225  11.530 -0.0548  0.3784 -0.3762
27797W        W46651   6.443   7.413  14.287  0.1255 -0.2497 -0.0480
27798W        W46652  18.681   1.070  14.264  0.6015  0.0348  0.2538
27799W        W46653   9.413  19.142  12.412  0.0662 -0.2205 -0.0303
27800W        W46654   7.887   1.094  12.354  0.2914  0.1538  0.0547
27801W        W46655  15.017   3.559   9.892  0.4589  0.0804 -0.3958
27802W        W46656  18.386  10.600  12.379 -0.2508 -0.1923  0.0589
27803W        W46657   4.528   1.144   3.831  0.0859 -0.3449 -0.2471
27804W        W46658  15.126  18.652   3.786 -0.2322  0.1209 -0.0037
27805W        W46659   9.660  14.293  13.726 -0.0123  0.0245 -0.0549
27806W        W46660   4.338   3.157   4.132  0.2852  0.1639  0.1557
27807W        W46661  15.838  17.586  12.611  0.1834 -0.0745  0.2379
27808W        W46662   4.878   8.389   2.711  0.1225 -0.1270  0.0599
27809W        W46663  12.344  17.172  14.001  0.0475  0.0880  0.2540
27810W        W46664  16.536   3.846   5.146 -0.2405 -0.0217  0.0358
27811W        W46665  16.175   6.316   2.197 -0.0636  0.2263  0.3222
27812W        W46666   8.420  13.618   3.124  0.1651 -0.0415  0.1459
27813W        W46667   8.180  14.431  13.645 -0.2096  0.0126 -0.0967
27814W        W46668  17.594  19.045  13.670 -0.0869 -0.0062  0.0406
27815W        W46669   6.738  12.373  12.472 -0.0295  0.1620 -0.2905
27816W        W46670   0.881   4.504   1.747  0.0945  0.0799 -0.0991
27817W        W46671   0.180   1.368   5.141  0.0549  0.0593 -0.3261
27818W        W46672  10.609  11.338  11.219 -0.0273 -0.1618  0.2092
27819W        W46673  10.242  15.516   4.121  0.1022  0.1356 -0.1850
27820W        W46674   3.009  12.314  12.275  0.3053 -0.0755  0.0371
27821W        W46675  10.614  12.439  12.371 -0.0296  0.1492 -0.0108
27822W        W46676  14.565   9.068  13.828  0.0734  0.1144 -0.1072
27823W        W46677   1.542   7.193   3.065 -0.4919  0.1560 -0.0738
27824W        W46678   7.446   2.320  13.364 -0.1071  0.4831  0.0914
27825W        W46679  15.819   3.826   9.884  0.0617  0.2579 -0.0555
27826W        W46680   2.205   0.419  11.222  0.2195 -0.0512 -0.0373
27827W        W46681  18.862  12.068   2.091 -0.3452 -0.0467 -0.0343
27828W        W46682   2.596   9.827  14.277 -0.1915  0.0558 -0.1508
27829W        W46683   7.788   2.408  11.174 -0.0219  0.0125  0.3566
27830W        W46684   2.577   7.593  13.620  0.0860  0.0065 -0.3461
27831W        W46685  11.591  17.938  14.009  0.1783  0.1234  0.1419
27832W        W46686   6.122   7.234  13.916  0.3601 -0.0608 -0.4598
27833W        W46687   8.313   0.183  11.208  0.2016 -0.3771  0.0004
27834W        W46688   3.753  12.599  14.410 -0.1362  0.4234 -0.3752
27835W        W46689  13.921   3.884   2.871 -0.2811 -0.2484  0.0442
27836W        W46690  15.000  12.290  14.464 -0.1190  0.0849  0.1917
27837W        W46691   0.576  17.915  11.336  0.1686 -0.2058  0.0594
27838W        W46692  13.480   2.699  12.455  0.2066 -0.0954  0.0951
27839W        W46693  11.426   6.806  11.961  0.0510 -0.0784 -0.2492
27840W        W46694   9.478   7.686   0.798 -0.0095  0.2317  0.0100
27841W        W46695  15.301  16.950   3.123 -0.1292 -0.0617 -0.2058
27842W        W46696   5.529   4.701   4.727 -0.1614  0.1730  0.0374
27843W        W46697   8.543   0.058  13.604  0.0620 -0.2098  0.0679
27844W        W46698   1.187  15.845  13.295 -0.3662  0.1620 -0.0719
27845W        W46699  11.723  12.658  14.433  0.0629  0.1028  0.3956
27846W        W46700   3.630   4.741  12.753 -0.0418  0.1467  0.0798
27847W        W46701  14.054   6.642  14.366 -0.1260  0.1967 -0.2380
27848W        W46702   6.744  11.351  11.247 -0.0766  0.0572  0.0394
27849W        W46703   0.605   6.419  13.492 -0.1179  0.0312  0.0686
27850W        W46704   7.702   6.383  12.407  0.0034  0.0660  0.1940
27851W        W46705   8.844  12.516  11.245  0.3217  0.3461  0.1732
27852W        W46706  16.116   7.422  10.222  0.0817  0.0316  0.4611
27853W        W46707   9.921  15.302   2.843 -0.1653  0.2551  0.2004
27854W        W46708  11.064  11.763   3.152 -0.3406  0.1311  0.0804
27855W        W46709  11.249   4.217  10.069 -0.0012  0.1906  0.0601
27856W        W46710  15.418  13.860  14.352  0.1129  0.1806 -0.2738
27857W        W46711   6.365   8.927  11.773 -0.0169  0.0076  0.2153
27858W        W46712  16.865  16.352  11.737 -0.1385  0.3374  0.3319
27859W        W46713  14.200   9.037   0.131  0.1914  0.1067  0.2757
27860W        W46714   5.474   4.766   1.137  0.0621  0.0584 -0.0939
27861W        W46715   2.365  14.279   3.408 -0.0779  0.0075  0.3890
27862W        W46716   3.760  17.783  13.920 -0.0765 -0.1824 -0.0080
27863W        W46717  13.793  14.973   0.811  0.0973  0.2890 -0.0039
27864W        W46718  18.363   8.299  13.850  0.2298  0.1326  0.1973
27865W        W46719  18.388   7.064  13.272  0.1042  0.1362 -0.2284
27866W        W46720   6.094  10.355  14.087 -0.0744  0.0171  0.1078
27867W        W46721  16.579  13.465  14.552  0.1586 -0.0383 -0.0194
27868W        W46722  13.764  11.752  10.802  0.0994 -0.0432  0.2680
27869W        W46723   6.107   1.324  12.144 -0.1016  0.0148 -0.0706
27870W        W46724   3.306   5.963  12.458 -0.2486  0.2394 -0.2571
27871W        W46725   3.158  10.942  14.166 -0.2523 -0.1062  0.1741
27872W        W46726  18.716  18.750   3.766 -0.4386 -0.1239 -0.0899
27873W        W46727   0.323  18.851  14.380  0.2909  0.2803  0.1034
27874W        W46728   8.745  18.681   2.306 -0.1024 -0.2971  0.0668
27875W        W46729   7.671   8.495  14.712  0.1487  0.1526 -0.0299
27876W        W46730   5.208  13.511  11.882  0.0658 -0.1080  0.3218
27877W        W46731   6.731  14.592   3.284  0.2487 -0.0782 -0.3099
27878W        W46732  11.887  15.362  12.244  0.0761  0.1880  0.2359
27879W        W46733  17.155  17.765  13.905  0.3057  0.1437 -0.3979
27880W        W46734   2.677  13.727  12.405 -0.1632 -0.0768 -0.0346
27881W        W46735   9.075   7.761  12.641  0.1076  0.0148 -0.0903
27882W        W46736  14.663  15.130   3.969  0.1202 -0.2475 -0.0455
27883W        W46737  16.282   1.268   4.574  0.0300 -0.4469 -0.2208
27884W        W46738  15.400  11.492   1.600  0.2987  0.1443  0.0046
27885W        W46739   4.872   9.813  14.465  0.0527  0.0257  0.0023
27886W        W46740   8.327   1.085   0.983  0.0063  0.1246  0.0388
27887W        W46741   8.990   8.418   5.094  0.2201 -0.3885 -0.0583
27888W        W46742  10.910   7.639   1.574  0.3410  0.2871 -0.2044
27889W        W46743   0.035   1.902   0.147 -0.3212  0.0361 -0.0278
27890W        W46744   7.426   9.850  12.515  0.1603  0.0446  0.2413
27891W        W46745   7.916  10.872  13.938 -0.2814  0.2909 -0.0879
27892W        W46746   5.577  14.377  12.114  0.0915  0.0829 -0.0242
27893W        W46747   6.901  11.897  13.296  0.0661  0.1870 -0.1914
27894W        W46748   0.899   0.416   2.991 -0.0983  0.0809 -0.3008
27895W        W46749  17.657  10.577   0.094 -0.1985  0.1823 -0.1677
27896W        W46750  16.488   9.255   2.073  0.0154  0.2161  0.2064
27897W        W46751   7.396   2.616   4.384  0.0783  0.0174  0.2110
27898W        W46752   4.969   7.073  12.731  0.0368 -0.0053  0.0727
27899W        W46753  11.261  18.749  12.172 -0.0043  0.1421 -0.5448
27900W        W46754   4.697   1.350   9.905  0.1012 -0.0534 -0.0543
27901W        W46755   4.119   1.619  13.852 -0.1122  0.1575  0.1884
27902W        W46756   7.317   8.560   1.265  0.2012 -0.1308  0.0340
27903W        W46757  14.166   6.742  11.995 -0.0602  0.0299  0.1312
27904W        W46758  15.042   9.225  12.639  0.2028  0.3269  0.1794
27905W        W46759   3.341  12.198  12.862  0.0950 -0.0851 -0.1329
27906W        W46760   1.527   6.118   4.087  0.3694 -0.2863 -0.1769
27907W        W46761   3.224  15.278   2.415  0.3634  0.2866  0.1621
27908W        W46762  18.850   1.756  10.091  0.1039 -0.2296  0.4366
27909W        W46763  14.952   7.781  12.507 -0.0555 -0.0054 -0.2070
27910W        W46764   6.601   8.776   0.865  0.1099  0.0920  0.1572
27911W        W46765   3.161   1.838  11.660 -0.0544 -0.0221  0.3623
27912W        W46766  19.075  15.281  11.719  0.0068  0.2550 -0.4013
27913W        W46767  13.547   5.031   0.516  0.0078  0.5378  0.3164
27914W        W46768   4.013   2.931  12.993 -0.0651  0.0381 -0.3600
27915W        W46769  18.053   5.337   0.282 -0.0570  0.2503  0.0359
27916W        W46770  14.273  10.676   2.687 -0.4096  0.0011 -0.0929
27917W        W46771   9.726   5.970   9.635  0.3048  0.4329 -0.1217
27918W        W46772   0.733  14.990   4.551 -0.0440 -0.3869  0.1258
27919W        W46773  10.534   7.515  13.869 -0.1945 -0.1975  0.3506
27920W        W46774  10.124  10.508   2.463 -0.1170  0.1328  0.0767
27921W        W46775   3.695  18.993  13.836  0.0665 -0.0073 -0.0985
27922W        W46776  17.839   5.915   3.275  0.0459  0.1086 -0.0373
27923W        W46777  17.806   3.004  10.210 -0.1156 -0.2543  0.0018
27924W        W46778   1.653   5.309   0.693 -0.0908  0.2937  0.0948
27925W        W46779   7.283  16.707  13.971 -0.2375 -0.0815 -0.1912
27926W        W46780   3.167   4.619  13.509  0.1375  0.1369 -0.1557
27927W        W46781  12.238   8.514   2.031  0.0600  0.2183 -0.1510
27928W        W46782   6.518   5.692   1.394 -0.1196 -0.2685  0.1373
27929W        W46783   1.587  12.757   0.576  0.0949  0.2419  0.2235
27930W        W46784  12.951  10.404   9.276  0.1011 -0.0443 -0.2589
27931W        W46785  15.800   4.905  14.615 -0.3151  0.0271 -0.3809
27932W        W46786  11.273   4.597   0.696  0.0050 -0.3643  0.0546
27933W        W46787   6.571  11.420  12.058 -0.0394  0.1183 -0.2589
27934W        W46788  11.815  15.096   0.355  0.1644 -0.2439  0.1088
27935W        W46789  16.610  10.760  13.150 -0.4325  0.3031  0.0224
27936W        W46790   7.095  16.744   1.164 -0.0653 -0.2168 -0.1041
27937W        W46791   5.412   9.743   2.530 -0.1354 -0.0011  0.1176
27938W        W46792  18.274   3.261  12.772 -0.3054  0.1324 -0.2355
27939W        W46793  11.975   7.195   3.813  0.2122  0.1726  0.3902
27940W        W46794   6.281  16.920   2.562  0.0294 -0.0815  0.0946
27941W        W46795   5.596  11.253   3.141 -0.1147  0.0236  0.3508
27942W        W46796  16.151  12.329  14.118  0.4075 -0.2706  0.3396
27943W        W46797   7.881   8.552  13.620  0.2349 -0.0584  0.0865
27944W        W46798  15.819   1.442   0.206  0.0480  0.0525 -0.1271
27945W        W46799   6.840   1.820  12.821 -0.0314  0.3093  0.2372
27946W        W46800  16.539  14.915  12.764 -0.1441 -0.0027 -0.1565
27947W        W46801   9.430  10.844  10.076 -0.1142 -0.1941 -0.1134
27948W        W46802   7.457   5.829  14.548 -0.0086  0.0838 -0.1782
27949W        W46803   8.479   9.536   1.020  0.4269 -0.0513 -0.1198
27950W        W46804  13.412  13.135   1.517 -0.0779  0.1409  0.0107
27951W        W46805  14.709   9.377   2.871  0.1598  0.2489 -0.1444
27952W        W46806   2.253   2.048   2.755 -0.2532 -0.0467 -0.1136
27953W        W46807   6.183  11.207   0.687  0.0965 -0.1292 -0.0371
27954W        W46808   7.584  11.435   0.008  0.0033  0.3917  0.0614
27955W        W46809   5.527   9.938  11.657 -0.0082 -0.0093  0.0100
27956W        W46810   8.897  13.837  13.909  0.1384 -0.4942 -0.1436
27957W        W46811  12.654  13.679  13.174 -0.0323  0.2678 -0.3281
27958W        W46812   9.725  12.770  12.248 -0.0615  0.2929 -0.2039
27959W        W46813  12.209   3.983  12.746 -0.2092 -0.0337  0.0884
27960W        W46814  17.357  16.403   4.083 -0.0428 -0.0179  0.2127
27961W        W46815  13.277   5.635   1.231  0.0088 -0.1897  0.1942
27962W        W46816  13.275  10.056   1.273  0.0469 -0.2614 -0.0970
27963W        W46817   5.898   7.637   3.589 -0.1995 -0.1946  0.1896
27964W        W46818  10.118  12.395  12.338 -0.1068 -0.3632 -0.0683
27965W        W46819   6.728   2.493  13.789 -0.1644  0.0638  0.1819
27966W        W46820  18.860   7.770  12.161  0.2357  0.1526  0.0478
27967W        W46821  12.747  13.081  12.246 -0.0284  0.2827 -0.2484
27968W        W46822   1.840   0.590  12.030  0.3708  0.1333  0.1514
27969W        W46823  15.314  18.235   3.501 -0.1189  0.0675  0.0552
27970W        W46824  17.037  17.562  11.658  0.1033  0.0583  0.1789
27971W        W46825  16.150   1.842   3.325 -0.0826 -0.2987  0.3107
27972W        W46826  16.222   4.449   3.218 -0.2146  0.1295  0.1004
27973W        W46827   4.536   6.951   3.883  0.3700  0.1177 -0.2993
27974W        W46828   9.449   4.960   0.828 -0.2322  0.1499  0.1187
27975W        W46829  11.092   0.220   3.631  0.3947 -0.3441 -0.3618
27976W        W46830   0.600  10.849  11.097 -0.0448  0.1887  0.2489
27977W        W46831   1.048  13.322   1.407 -0.0298 -0.0355  0.1856
27978W        W46832   2.993   4.131   3.207  0.0898 -0.2350  0.0181
27979W        W46833   9.911   2.446   2.939 -0.2366  0.2466 -0.0399
27980W        W46834   7.100  13.798  14.670 -0.0840 -0.1465 -0.1374
27981W        W46835   8.158   3.489  13.861  0.0510 -0.0747 -0.0571
27982W        W46836   7.824  13.096   1.978 -0.4338  0.4663  0.1385
27983W        W46837  16.254   9.203  11.172  0.1770 -0.2078  0.1102
27984W        W46838   0.143  15.268  12.189  0.0741  0.3133  0.0844
27985W        W46839   9.656   6.336   2.294  0.1302  0.0632 -0.0713
27986W        W46840   0.626  10.967  13.402  0.0052 -0.2555 -0.0526
27987W        W46841  15.663  11.917   0.749  0.0038 -0.4816  0.0363
27988W        W46842  12.495  18.421  12.123  0.2518  0.2285  0.0785
27989W        W46843  11.132  12.160   3.930 -0.1452  0.3546 -0.1263
27990W        W46844  13.808   0.836  14.204 -0.1849  0.0991  0.1156
27991W        W46845   0.101   0.293   3.943 -0.1362 -0.1111  0.0950
27992W        W46846   6.537  14.744  13.275  0.2154  0.0974  0.3599
27993W        W46847  18.247   5.145  13.171  0.0841 -0.2094  0.1425
27994W        W46848  14.858  13.084   0.407 -0.1076  0.1186 -0.0685
27995W        W46849   5.200   4.660  11.379 -0.1831  0.1518 -0.1712
27996W        W46850  11.075   6.574  10.451  0.0580  0.2321  0.1788
27997W        W46851   1.295  13.688   2.832 -0.2084 -0.0301  0.2204
27998W        W46852   4.443  18.356  11.116 -0.1084  0.0402 -0.0950
27999W        W46853   0.258   9.738  12.473 -0.1767 -0.2442  0.4277
28000W        W46854  11.512   9.052  11.326  0.4467  0.2463  0.0767
28001W        W46855  17.815   1.852  13.989 -0.3555  0.0948  0.1191
28002W        W46856   7.888   0.505   1.659 -0.2305 -0.0873 -0.1647
28003W        W46857   0.553   9.637  13.342  0.0916 -0.0444  0.2461
28004W        W46858   7.394   6.492  14.023  0.0910  0.1240 -0.0516
28005W        W46859   1.763   3.014  12.691  0.1924  0.0993 -0.0987
28006W        W46860   4.131  15.048  10.851 -0.0433 -0.1732 -0.1089
28007W        W46861  10.154   8.864  13.114  0.0989  0.0268 -0.0167
28008W        W46862  12.011  17.252   2.190 -0.1624 -0.0995 -0.1329
28009W        W46863  17.151   9.632  10.772  0.1955  0.0100  0.3473
28010W        W46864  18.547   6.337   1.192 -0.2409  0.0556  0.0065
28011W        W46865  10.355  16.776   0.051  0.3406  0.1188  0.0822
28012W        W46866   1.143   6.362   1.653 -0.1540 -0.0940  0.4977
28013W        W46867  10.665   7.875   1.027 -0.0880  0.0126 -0.2466
28014W        W46868  11.527   4.012  12.430 -0.3093 -0.2354 -0.0020
28015W        W46869  10.407  10.863   0.862 -0.0600  0.1786 -0.3524
28016W        W46870  17.771  17.521  13.466  0.1758 -0.0775  0.2239
28017W        W46871  13.303   5.382   0.823  0.0781 -0.1744  0.0179
28018W        W46872   0.513   1.590   0.144 -0.1399  0.0282  0.0543
28019W        W46873   8.768   5.187   1.980 -0.2411  0.0478  0.0305
28020W        W46874  11.099  11.692   1.672  0.1620  0.1217  0.1329
28021W        W46875   1.681   9.595  14.108  0.2123 -0.1118  0.2911
28022W        W46876  11.513  14.649   2.346 -0.2089  0.1913  0.0894
28023W        W46877   0.722  19.019  11.767 -0.0416 -0.0553 -0.1229
28024W        W46878   4.153  12.768   2.757  0.0275 -0.1833 -0.1154
28025W        W46879  15.420  11.396  13.677  0.0832 -0.2673 -0.1463
28026W        W46880  16.725  13.928   3.713  0.2081 -0.0061 -0.0840
28027W        W46881  15.502  14.117   0.695  0.0280 -0.0694 -0.2443
28028W        W46882   2.526  12.589  14.155  0.1679 -0.0776  0.0193
28029W        W46883  17.334   6.317  13.062 -0.0691 -0.3261  0.0511
28030W        W46884   2.755  16.242   4.252  0.1716 -0.1017 -0.1020
28031W        W46885   0.032   5.620   0.847 -0.2555 -0.1138 -0.2791
28032W        W46886   9.288  11.724   0.768 -0.0208 -0.1137  0.0065
28033W        W46887   6.529   5.030  11.748 -0.5113 -0.4889 -0.0972
28034W        W46888  17.680  15.656  10.969  0.0143 -0.3781  0.0367
28035W        W46889   0.346   3.653  12.155  0.3207 -0.5055 -0.4015
28036W        W46890   9.867   3.311   1.574  0.2323  0.0623 -0.2933
28037W        W46891  15.059   8.294  11.475  0.3631  0.1560 -0.3562
28038W        W46892  15.836  10.418   3.864 -0.2967  0.3967 -0.0378
28039W        W46893   9.859   1.868  11.607 -0.1980  0.0100 -0.0738
28040W        W46894  10.633   4.137  12.288  0.1391 -0.0444 -0.1057
28041W        W46895   5.623   4.743  13.562 -0.2849 -0.1516 -0.0627
28042W        W46896   1.816  13.770  11.832  0.2665 -0.3381  0.3922
28043W        W46897  12.679   5.816  10.276  0.1676  0.0381 -0.0720
28044W        W46898   0.078  18.110  12.665  0.0955  0.0531 -0.0895
28045W        W46899   9.000   5.294  10.102  0.3496  0.0469 -0.0372
28046W        W46900   3.062  16.178   0.918  0.3011  0.0132 -0.1157
28047W        W46901   9.181   3.640   2.335 -0.2669  0.1660 -0.1465
28048W        W46902  13.193   4.675   3.302  0.2715  0.1188  0.0233
28049W        W46903   1.665  14.040  12.586  0.2485 -0.3403  0.2261
28050W        W46904   6.578  16.401   4.283 -0.0611  0.1673  0.1877
28051W        W46905  16.147   7.021  13.153  0.0971  0.1560  0.0460
28052W        W46906   8.250   6.128  10.807 -0.0473  0.2312  0.1506
28053W        W46907   9.122  16.270   3.614 -0.2419 -0.2630 -0.0290
28054W        W46908   0.996   3.332   2.221  0.1592  0.1225 -0.4169
28055W        W46909   8.600  13.776  11.388 -0.2377  0.1919 -0.0688
28056W        W46910  11.572   7.133   0.456  0.1723  0.1319  0.0921
28057W        W46911   9.271  14.302  10.755  0.1357 -0.0515  0.3357
28058W        W46912  18.147   7.271   3.915  0.1366 -0.3596  0.0791
28059W        W46913  11.678   7.315   3.299 -0.2025 -0.2469 -0.1061
28060W        W46914   9.076  16.953  13.175 -0.0861  0.0848  0.2919
28061W        W46915   8.004   2.120   3.825 -0.1702  0.0676  0.0399
28062W        W46916  14.727   1.267   2.663  0.1027 -0.0837  0.3642
28063W        W46917   0.069  14.574  12.965  0.0652 -0.0343 -0.0657
28064W        W46918  16.449   7.880   3.643  0.2283  0.2750 -0.0660
28065W        W46919   5.055  11.039  10.652 -0.1010 -0.1570  0.2919
28066W        W46920   7.036   1.305   3.070 -0.4813  0.0657  0.0372
28067W        W46921  14.942  18.751   4.238  0.0159  0.0484 -0.1363
28068W        W46922   7.909  15.472   3.132 -0.1209  0.1912 -0.0942
28069W        W46923   6.641   3.456   3.784 -0.0491  0.1209 -0.0981
28070W        W46924  18.969   0.823  12.177 -0.0536  0.2097 -0.0221
28071W        W46925  15.587   5.539   0.815  0.1180  0.3246 -0.0223
28072W        W46926  19.081  12.075  11.980 -0.3966  0.2474 -0.3634
28073W        W46927   2.626  15.587  11.765 -0.0272 -0.1771 -0.2731
28074W        W46928  18.070  16.881   1.312 -0.0848  0.0095  0.0955
28075W        W46929  18.627  16.811   5.181 -0.1065 -0.1548 -0.2554
28076W        W46930  15.438   0.776  13.667 -0.0663  0.0578  0.2486
28077W        W46931  16.988   7.256   5.321  0.1285 -0.2276 -0.2615
28078W        W46932   4.564  13.821   1.828  0.4050 -0.1927 -0.0322
28079W        W46933  18.509  14.628  13.464  0.3330 -0.0604  0.1369
28080W        W46934   3.514   1.186   3.757 -0.2293 -0.1551  0.1803
28081W        W46935   6.900   7.957   4.817 -0.2036 -0.1094  0.0172
28082W        W46936   7.441   1.039   4.183  0.1198 -0.2935  0.3825
28083W        W46937   8.689   9.095  12.183  0.0271  0.0720  0.0554
28084W        W46938   2.928  16.765  13.993 -0.0952 -0.2806 -0.3505
28085W        W46939   0.736  12.544   3.006 -0.0320  0.0302 -0.0014
28086W        W46940  11.665   2.516   0.881  0.3398  0.0765 -0.1966
28087W        W46941  15.817  14.444   0.422 -0.1702  0.0766 -0.0990
28088W        W46942  15.569   6.808   9.803  0.1263 -0.0327 -0.1261
28089W        W46943   2.124   4.835   2.829 -0.1289 -0.1287 -0.2407
28090W        W46944  11.191  17.276   0.176 -0.2165  0.1532  0.3132
28091W        W46945  10.973  14.551  11.976 -0.0182  0.1147 -0.0755
28092W        W46946   0.525  11.240   0.183  0.1067 -0.2009 -0.2065
28093W        W46947   0.685   6.170   0.069 -0.0157  0.2134  0.1106
28094W        W46948  19.058   3.330  14.137 -0.1358 -0.1603 -0.5259
28095W        W46949  13.356  18.980   4.546 -0.1312  0.2290 -0.3012
28096W        W46950  18.111  15.495   2.234 -0.0463  0.1612 -0.0101
28097W        W46951   5.497  17.101  14.595 -0.2129  0.1012  0.1538
28098W        W46952   6.908  17.958  10.618 -0.1997  0.1909 -0.1905
28099W        W46953   2.048   2.772   3.704  0.1554  0.4008 -0.0272
28100W        W46954  13.892  18.240   2.269  0.1224 -0.1392 -0.2184
28101W        W46955  19.134   5.705  11.121  0.0827  0.4637  0.0024
28102W        W46956   4.421   1.516   4.214  0.0553  0.1392 -0.1177
28103W        W46957   6.503  16.147   0.698  0.0606 -0.1331  0.1447
28104W        W46958  13.975   6.949   3.502 -0.1962 -0.0538 -0.6146
28105W        W46959   4.981  18.698  11.865  0.3896 -0.0925  0.1682
28106W        W46960  14.643  14.057   0.256  0.0463 -0.0480  0.1270
28107W        W46961  14.870  13.142   1.236  0.2056  0.2531 -0.0657
28108W        W46962   1.672   7.194  13.829 -0.0869  0.0844 -0.1777
28109W        W46963   8.582  11.283  13.246 -0.0897 -0.4624  0.4280
28110W        W46964  19.148  13.648  12.742  0.0818  0.2450  0.1218
28111W        W46965  11.555  12.354  14.083  0.0729 -0.0808 -0.0454
28112W        W46966  14.445   4.535  10.819 -0.0029 -0.0930  0.0042
28113W        W46967  14.973  12.144  13.161 -0.0197 -0.1017 -0.3536
28114W        W46968  12.281  12.232   0.999 -0.0281 -0.1276 -0.6486
28115W        W46969   2.047   5.902  14.321  0.0271 -0.1664 -0.0438
28116W        W46970   4.322   9.188  14.129 -0.2102 -0.1099  0.1231
28117W        W46971   2.872  18.773  11.987 -0.1414 -0.1574 -0.0837
28118W        W46972   9.900  16.686   1.397 -0.1247  0.0943  0.0228
28119W        W46973   5.958   8.984   2.858 -0.0561 -0.0794 -0.2044
28120W        W46974   6.044   9.942   2.924  0.0731  0.1402  0.0163
28121W        W46975  15.445   2.705   1.439  0.0236  0.0384  0.1137
28122W        W46976  11.335   9.402  12.277  0.3640  0.2630  0.1220
28123W        W46977  10.304   2.131   3.854 -0.0002  0.1281  0.2144
28124W        W46978  16.289   5.373   3.504  0.3093  0.2016 -0.3184
28125W        W46979   2.567  15.057  11.762  0.1373  0.0245  0.0056
28126W        W46980   5.760  14.678  12.539 -0.0604 -0.2221 -0.0137
28127W        W46981   9.571  18.646   1.558  0.0432 -0.0206 -0.0594
28128W        W46982  10.201   8.047   1.167 -0.2456  0.2108  0.2100
28129W        W46983  17.503   5.722   1.305 -0.0089 -0.0113  0.0240
28130W        W46984  15.351   7.047   2.281  0.1464  0.2610 -0.0806
28131W        W46985  13.922  13.469  12.621 -0.1498 -0.0994 -0.0842
28132W        W46986   1.200  15.034  12.827  0.2330  0.1751 -0.1053
28133W        W46987   4.642   4.313  13.418 -0.3023  0.0425  0.0885
28134W        W46988   8.363  17.476  13.638  0.1303 -0.2835 -0.1260
28135W        W46989  11.490   2.628  10.577 -0.0529 -0.2756  0.2072
28136W        W46990   9.839  19.195   2.377 -0.3572 -0.0732 -0.0646
28137W        W46991  17.044  13.173   0.825 -0.1195 -0.1712 -0.1169
28138W        W46992  12.500  13.165   0.823 -0.2928 -0.1646 -0.1971
28139W        W46993  11.265  13.995  10.729  0.3840  0.0497 -0.5094
28140W        W46994  17.569   7.523   1.030 -0.2184  0.2205  0.0999
28141W        W46995   2.827   9.242  11.505 -0.1701  0.2714 -0.3076
28142W        W46996  13.782   2.442   1.205 -0.1276 -0.2531 -0.4040
28143W        W46997  14.780   2.674   3.617 -0.0140  0.2208  0.2568
28144W        W46998  14.675  16.175   4.519  0.2970  0.1381 -0.0610
28145W        W46999  16.918  17.207   3.574  0.4654 -0.0414  0.0302
28146W        W47000  18.007  16.441   2.397 -0.3063  0.0432 -0.1124
28147W        W47001   1.761   9.675   4.899 -0.4233  0.0878 -0.0749
28148W        W47002   9.143  11.232   3.542  0.1501  0.1482 -0.1230
28149W        W47003  17.928   8.833   1.728 -0.2849  0.0137  0.2064
28150W        W47004   1.144  11.003   0.646 -0.3093  0.2164 -0.2065
28151W        W47005  18.904  14.630   4.218  0.4608 -0.3300  0.5127
28152W        W47006  13.164  16.904   0.471 -0.2191  0.0530  0.3750
28153W        W47007   8.928   9.824  10.684 -0.1082 -0.3632  0.2012
28154W        W47008  13.395   0.073  13.816 -0.1452 -0.0870 -0.0012
28155W        W47009  10.324   6.029   2.051 -0.0664  0.1336 -0.0316
28156W        W47010   9.271  11.314  12.418  0.3517  0.2326  0.0543
28157W        W47011   0.597   1.250  10.520 -0.0421  0.4030 -0.0810
28158W        W47012  17.487   9.569  13.801 -0.1307 -0.0597  0.1856
28159W        W47013  15.344   7.603   2.216 -0.1517 -0.0337 -0.0840
28160W        W47014  12.265   2.886  12.854 -0.3289  0.1240 -0.1142
28161W        W47015  16.660  14.642   3.806 -0.1048 -0.1863 -0.0049
28162W        W47016   6.354   8.102  11.274  0.1184  0.0682  0.1341
28163W        W47017  11.251   5.156   4.382  0.1020  0.0915 -0.0194
28164W        W47018   5.409  17.741   2.917 -0.1351  0.3475  0.1813
28165W        W47019   1.285  10.647   9.988  0.2330 -0.1644 -0.1155
28166W        W47020   6.422  16.371   3.740  0.1669 -0.5138 -0.0459
28167W        W47021   9.514   0.813   0.183  0.1119 -0.0399  0.0753
28168W        W47022  16.038  10.421   3.371  0.0477  0.0556 -0.0419
28169W        W47023   1.646  15.857  12.435 -0.0053 -0.1035  0.2111
28170W        W47024  16.913  18.373   4.491  0.1688 -0.2075 -0.0039
28171W        W47025   8.149  10.064  11.376  0.0891  0.1566  0.0498
28172W        W47026   1.730   5.782   0.777  0.3316 -0.0785 -0.0470
28173W        W47027   2.551  13.196   0.990  0.0589 -0.2806 -0.1440
28174W        W47028   2.368   4.533   1.481  0.0042  0.1607  0.1628
28175W        W47029  15.173   2.439   2.800  0.2563 -0.1352 -0.3559
28176W        W47030  10.183   1.425  12.724  0.0729 -0.0591 -0.0506
28177W        W47031  18.932   3.406   3.311 -0.2481  0.0258 -0.1911
28178W        W47032   0.071  14.893   3.271  0.0532  0.0347 -0.0713
28179W        W47033  13.446  11.270  13.769 -0.4811  0.1216  0.2015
28180W        W47034   4.209  12.070  11.887  0.2594 -0.2170  0.1123
28181W        W47035  11.278  16.272   0.239  0.2386  0.3026  0.0752
28182W        W47036  11.273   0.055   0.445  0.0371  0.0466 -0.1949
28183W        W47037  18.060  11.217   3.438  0.0926 -0.0727  0.2465
28184W        W47038  17.461  12.345   2.479  0.0432  0.2015  0.1782
28185W        W47039   5.068  12.388   1.424 -0.2136  0.0288 -0.0651
28186W        W47040  13.487   7.370  10.422 -0.2250  0.2350 -0.0804
28187W        W47041   6.814  13.300   0.105  0.1222 -0.1685  0.2609
28188W        W47042   1.974   4.581   4.605  0.4283  0.2224  0.1398
28189W        W47043   5.131   7.971   2.166  0.1934  0.4425  0.1607
28190W        W47044   1.894  17.715  10.881  0.2432 -0.0468  0.3040
28191W        W47045   2.287  18.757   2.790 -0.2114 -0.2675  0.0314
28192W        W47046   2.772  10.932  11.706  0.0532 -0.1403  0.1155
28193W        W47047  18.271  15.871  12.707  0.2135  0.1846 -0.0493
28194W        W47048   9.706  18.772   4.284  0.3545 -0.2161  0.4231
28195W        W47049   6.966   5.021  10.655 -0.2188 -0.1036 -0.1245
28196W        W47050   8.826   3.571  13.845  0.0477 -0.0501 -0.1246
28197W        W47051  13.981   4.118   1.817 -0.0206  0.1868 -0.3178
28198W        W47052   4.463  13.722  12.338 -0.0487 -0.2540  0.0294
28199W        W47053  15.918  14.961   0.642 -0.3106  0.1380  0.0472
28200W        W47054  18.483  12.170  11.208  0.2077 -0.0486  0.0704
28201W        W47055  17.172   3.503   2.633 -0.3601 -0.0580 -0.0057
28202W        W47056   0.790  12.760   3.960 -0.1001 -0.3556 -0.2381
28203W        W47057  11.736   0.785   2.522 -0.3085  0.2195 -0.0195
28204W        W47058   4.784  12.295  13.531  0.1852  0.2823 -0.2544
28205W        W47059  11.774   1.540   5.271 -0.2565 -0.4261  0.2870
28206W        W47060   2.062   4.307   2.336 -0.0654 -0.0242  0.2221
28207W        W47061   9.027  17.382   2.008 -0.0670 -0.0616 -0.0405
28208W        W47062  17.751  11.969  11.480  0.1521  0.2920  0.0293
28209W        W47063  13.611  15.246   4.843 -0.1538  0.0050  0.0869
28210W        W47064   1.730   8.798  11.674  0.0021 -0.1473 -0.1355
28211W        W47065   1.188  14.158   0.705  0.2897  0.1568  0.2589
28212W        W47066  17.393   0.195  12.413  0.0886  0.3973  0.0768
28213W        W47067   0.913  17.952  10.398  0.3506 -0.1639 -0.1338
28214W        W47068  13.541   8.047   3.602 -0.1963  0.2335 -0.1264
28215W        W47069   9.003   4.105   1.328  0.4510 -0.0246 -0.1014
28216W        W47070   4.538   3.980  14.437 -0.0679 -0.2079  0.2617
28217W        W47071   5.041   4.084  13.628  0.1799  0.0510  0.0779
28218W        W47072   2.532   9.155  14.365 -0.3569 -0.1551  0.2009
28219W        W47073   5.198  18.260  11.901  0.1576 -0.3288 -0.0861
28220W        W47074   7.423  18.293   4.176 -0.1893  0.2244 -0.0378
28221W        W47075   3.376   2.407  13.674 -0.1098  0.3071 -0.0846
28222W        W47076   6.260  16.056  12.822 -0.0120 -0.0217 -0.2956
28223W        W47077   4.846   8.195   1.084  0.0316  0.1365  0.0885
28224W        W47078  10.625  15.186   4.288 -0.1671  0.1344  0.2762
28225W        W47079  17.643   3.577  13.081  0.1335 -0.2729 -0.0490
28226W        W47080   6.118   0.791  14.311  0.2076  0.1220 -0.0825
28227W        W47081  13.275   2.527   3.533  0.2465  0.0976  0.2023
28228W        W47082   9.914   7.379  14.127  0.0834  0.2362 -0.1395
28229W        W47083  13.355  13.636  11.101  0.1721 -0.0236  0.0854
28230W        W47084  16.614   7.040  13.412  0.1194 -0.1838 -0.0259
28231W        W47085   9.063  13.408   2.517 -0.4236  0.0348  0.1803
28232W        W47086   0.792   9.199   0.676  0.1518  0.0821 -0.0789
28233W        W47087   2.425  14.729  12.651  0.0540  0.0803  0.5546
28234W        W47088   6.141  13.886   2.019 -0.4225  0.1708  0.0069
28235W        W47089  18.435  14.091  13.362 -0.0424  0.1486  0.1186
28236W        W47090   6.252  15.577   2.682 -0.3894 -0.1749  0.0535
28237W        W47091  15.446   8.841  10.450 -0.0697 -0.2060 -0.0939
28238W        W47092   5.074  16.757   4.146  0.2652 -0.0492  0.1009
28239W        W47093  16.736  16.063   3.232  0.0335 -0.2494  0.0542
28240W        W47094  15.122  16.799   1.805  0.0444 -0.0827  0.1026
28241W        W47095  10.469  13.528   1.321  0.1080  0.0455 -0.1008
28242W        W47096  10.337  16.933  13.792  0.0975  0.0446  0.1330
28243W        W47097   4.505  18.620   2.410 -0.0893  0.0631 -0.1050
28244W        W47098   9.266   5.828   3.975  0.1715  0.2555 -0.2430
28245W        W47099   6.914   4.457   0.033 -0.4105  0.2255  0.1038
28246W        W47100  12.091   0.050   3.780 -0.3132  0.1978 -0.0617
28247W        W47101  16.518  10.638   9.665 -0.2011 -0.0781  0.0329
28248W        W47102  17.794   7.742   3.365  0.1755  0.1657 -0.0199
28249W        W47103   8.684   3.123   4.036 -0.1483  0.2081  0.5120
28250W        W47104  16.662  16.542   0.133  0.1384 -0.1792 -0.2993
28251W        W47105   7.671  14.149  13.466  0.0550  0.0027 -0.2073
28252W        W47106   4.498   4.796   1.552 -0.1446  0.1406 -0.0699
28253W        W47107  11.879   2.286  10.009 -0.1309 -0.1088  0.0896
28254W        W47108   9.013  19.042  14.168  0.3569  0.1286  0.0695
28255W        W47109   2.059  12.763   4.376  0.0091 -0.0087 -0.1159
28256W        W47110  11.768   7.604   0.286  0.1496  0.1531  0.0842
28257W        W47111  11.432  11.064  14.454 -0.3778 -0.1000  0.0185
28258W        W47112  11.759  14.510   0.562  0.0187  0.3397 -0.2714
28259W        W47113  14.233   1.725   2.877 -0.1581 -0.0328 -0.3243
28260W        W47114  17.692   0.291   1.326  0.0597  0.1642 -0.1316
28261W        W47115   2.738   1.543   0.419 -0.4074 -0.2082  0.1005
28262W        W47116   8.345   7.576   1.723 -0.0418  0.1525  0.1605
28263W        W47117   2.982  13.653  13.542 -0.1187  0.0630  0.1258
28264W        W47118   2.571   3.239  12.283  0.1920  0.3924 -0.1917
28265W        W47119   3.207   3.620   3.974  0.1854 -0.0696  0.1027
28266W        W47120   4.035  16.252   0.983 -0.1669  0.0285 -0.5354
28267W        W47121  16.082  18.687  13.421 -0.0050 -0.1143 -0.1476
28268W        W47122  12.766   4.936   3.245  0.3915  0.0939  0.1972
28269W        W47123   6.861  17.132   2.716  0.0140 -0.2823  0.2695
28270W        W47124   9.778  15.688   4.196  0.0396  0.0116 -0.1592
28271W        W47125   1.546   3.571  13.394 -0.2548  0.2458 -0.0107
28272W        W47126  15.614   7.804  10.330  0.2035 -0.2195 -0.0995
28273W        W47127   1.420   2.070  13.090  0.0970  0.0982 -0.0467
28274W        W47128   3.508  18.447  10.757  0.4543  0.0692 -0.0092
28275W        W47129   4.438   4.187  13.851 -0.0978  0.1325 -0.0398
28276W        W47130  14.637  16.810   0.559 -0.1490 -0.0523  0.2468
28277W        W47131   6.053  18.890  10.983 -0.0249 -0.0534  0.0645
28278W        W47132  14.727  13.782  11.146 -0.0069  0.0606  0.0869
28279W        W47133  17.581  18.198   1.369 -0.2516 -0.0086 -0.0136
28280W        W47134   3.740   4.112  10.854 -0.0418  0.1155  0.1639
28281W        W47135  15.575   5.226  12.384  0.0580 -0.2181  0.1587
28282W        W47136  11.379   7.679   1.289 -0.4633 -0.2077 -0.0620
28283W        W47137  12.049  13.215   3.621  0.2306 -0.2833  0.2221
28284W        W47138  14.758  11.768  12.195  0.0348  0.1762 -0.3528
28285W        W47139  17.470   9.635   4.268 -0.1401  0.1318  0.1583
28286W        W47140  16.668  12.303  13.225  0.2371 -0.2916  0.1413
28287W        W47141  14.763   2.245   1.603 -0.0273 -0.1075 -0.1901
28288W        W47142   4.976  18.529  12.641 -0.0343 -0.4252  0.0747
28289W        W47143  12.729  12.135  14.067  0.1343 -0.2465 -0.1994
28290W        W47144   3.952   3.084  11.550 -0.2083  0.0344 -0.1765
28291W        W47145  16.917  11.180  13.268  0.2941  0.0855  0.0245
28292W        W47146   8.259  14.132   0.099  0.2857  0.0366  0.1698
28293W        W47147  15.071  11.020  13.762 -0.0671 -0.3109 -0.2140
28294W        W47148   0.916   1.418  10.935 -0.0892  0.0563  0.0293
28295W        W47149  15.938   4.791  11.997 -0.4249 -0.0957 -0.0847
28296W        W47150  16.515   5.675   1.620  0.1497 -0.1077  0.2293
28297W        W47151  12.883   4.472   2.072 -0.0380  0.0567  0.2055
28298W        W47152   2.052  11.511  11.492 -0.2420 -0.0316 -0.1133
28299W        W47153   5.208  16.892   3.099  0.0257  0.0603 -0.0610
28300W        W47154  19.177  14.094   1.256 -0.0396 -0.2185  0.0511
28301W        W47155  11.717   5.836  11.642 -0.1947 -0.0805  0.1030
28302W        W47156  10.454  12.782  10.877 -0.1995 -0.3939 -0.2477
28303W        W47157   0.707   7.071   4.677  0.0741 -0.0557 -0.1566
28304W        W47158   6.512   4.463   3.949 -0.1843  0.1521 -0.1803
28305W        W47159  16.392   9.449  13.689  0.0289  0.3010 -0.3035
28306W        W47160   8.764  10.941   1.705 -0.2657  0.3155 -0.1751
28307W        W47161  13.946   4.763  10.495 -0.0295 -0.4820  0.1899
28308W        W47162   0.434   5.802   2.196  0.1477  0.2238 -0.0886
28309W        W47163   7.317  17.731  10.310  0.1089  0.1028  0.0349
28310W        W47164  13.601  10.127   2.188 -0.0623  0.1909 -0.1978
28311W        W47165  12.499  12.811   2.359  0.1189 -0.0353  0.0632
28312W        W47166  17.408  14.083   1.341  0.3326  0.0760 -0.1217
28313W        W47167   8.426   8.640   0.923  0.0567 -0.0616 -0.0262
28314W        W47168   4.050   4.591   2.435  0.2593 -0.0043 -0.1196
28315W        W47169   1.312   8.415   0.014 -0.1223 -0.2416 -0.0953
28316W        W47170   8.558   2.071  12.243  0.0853  0.1577 -0.1219
28317W        W47171   7.558   2.537  10.690 -0.1642 -0.0898  0.1080
28318W        W47172  16.223   1.668  12.221  0.0111  0.1902  0.0779
28319W        W47173   5.521  15.038   4.068  0.3949  0.3332  0.0527
28320W        W47174   9.011  10.561   9.844 -0.1947 -0.0930  0.4177
28321W        W47175   6.940   3.625  11.992  0.0856 -0.2439  0.0147
28322W        W47176   0.994  14.651  12.510  0.0062 -0.2661 -0.1627
28323W        W47177  18.397  11.839   2.400 -0.0473 -0.0040 -0.0141
28324W        W47178  16.787  12.837   0.601  0.0986  0.1458  0.2275
28325W        W47179   3.575   9.532  11.131 -0.0850  0.1511  0.0823
28326W        W47180   8.980  17.966   0.725  0.1720 -0.1181  0.1389
28327W        W47181  15.359  12.919   3.564 -0.2479 -0.2348  0.0652
28328W        W47182   4.532   4.547  14.402 -0.2943  0.1687  0.0217
28329W        W47183   5.980  15.680   2.128 -0.1804  0.0188  0.5216
28330W        W47184   8.039   2.000   3.248 -0.2483 -0.2580 -0.0543
28331W        W47185  11.276  18.383   3.333  0.0160  0.2655  0.1975
28332W        W47186  17.949  13.303   0.217  0.1414  0.0623 -0.0103
28333W        W47187   6.190   4.046   4.217  0.2034  0.1441  0.1209
28334W        W47188   7.011  18.362  10.954  0.2726  0.0523 -0.2448
28335W        W47189  15.859  14.175  14.228 -0.3104 -0.0744  0.0911
28336W        W47190  17.779  10.112   4.154  0.1779  0.2589 -0.1255
28337W        W47191   8.810   9.620   0.663  0.1457 -0.0230  0.0863
28338W        W47192  12.777   8.130   0.706  0.1296 -0.2445 -0.1911
28339W        W47193   4.781   7.343   1.107  0.1164 -0.0777 -0.1574
28340W        W47194  15.758  14.511   3.951 -0.2082 -0.3275 -0.2031
28341W        W47195  11.147   3.674  13.406  0.2954 -0.1709 -0.0134
28342W        W47196   7.447  16.004   2.009  0.0605 -0.1895  0.1819
28343W        W47197   7.545   2.047   0.405  0.1084  0.2099  0.0854
28344W        W47198   0.094  11.645  13.880  0.2967 -0.0246  0.2465
28345W        W47199  16.573   7.407  14.357 -0.2997  0.0182  0.1964
28346W        W47200  18.262  15.048   0.050 -0.0632 -0.2180  0.2439
28347W        W47201  13.131  15.116  14.376  0.2607  0.0684  0.0356
28348W        W47202  18.081  17.525   0.465  0.0264  0.2329  0.1190
28349W        W47203   4.195  15.342  11.895 -0.1414 -0.0780  0.1564
28350W        W47204   3.439   9.554   4.569  0.0550  0.0120  0.2783
28351W        W47205   9.855  10.621   2.890  0.0041 -0.0689 -0.1070
28352W        W47206  15.047   6.389   1.277  0.1417 -0.2020 -0.0945
28353W        W47207  10.935  18.724  14.483  0.2129  0.1816 -0.0140
28354W        W47208   5.534  12.556  11.169 -0.0254 -0.0707 -0.0126
28355W        W47209  15.950  14.439   2.000  0.1577  0.2877  0.1807
28356W        W47210   6.109  13.983   0.931  0.1496  0.0684 -0.0647
28357W        W47211  16.365  16.333   2.015  0.2523  0.2413  0.0098
28358W        W47212  14.784   9.294   4.704  0.1236 -0.0685 -0.0746
28359W        W47213  10.724  15.356  14.049  0.2671  0.2442 -0.0042
28360W        W47214   3.297   5.577   3.500  0.0598  0.0022 -0.3310
28361W        W47215   8.376  15.335  13.662 -0.1384  0.1566  0.0873
28362W        W47216   7.420  17.867  13.304  0.0474 -0.0840  0.1972
28363W        W47217   0.600  17.011   1.784 -0.0549 -0.1876 -0.2045
28364W        W47218  18.621   9.336  11.853  0.0838  0.1316  0.1456
28365W        W47219   7.090  10.738  10.782  0.1347 -0.0804  0.0458
28366W        W47220  16.707   5.227   1.396  0.0466 -0.1644 -0.1250
28367W        W47221  14.560  14.137  14.309  0.2651  0.1008 -0.0175
28368W        W47222   9.803   6.782   1.001 -0.2908 -0.2416  0.2413
28369W        W47223   0.620   3.057  11.026 -0.0139 -0.0199 -0.0718
28370W        W47224  13.875  12.883  14.541 -0.3940  0.1335  0.0444
28371W        W47225   9.062   1.861   0.754 -0.1502  0.2029 -0.1029
28372W        W47226   9.276   2.074   3.465 -0.2299 -0.3272  0.0519
28373W        W47227   9.871  13.700   2.743  0.1428 -0.1151 -0.1050
28374W        W47228  11.988  17.021  13.629 -0.1144  0.2916  0.1223
28375W        W47229   6.740  19.118  10.591 -0.1546  0.0349  0.1887
28376W        W47230   9.161  16.840   3.796  0.0158  0.4165  0.1728
28377W        W47231   8.593  11.840   4.112 -0.0403 -0.0274 -0.0254
28378W        W47232  11.878   7.647   5.279  0.0878  0.0543  0.1890
28379W        W47233   9.645  11.798   0.446  0.0221  0.2009  0.1897
28380W        W47234  16.357   6.747   3.595 -0.2364  0.5046 -0.0411
28381W        W47235  11.323   0.812   0.040  0.0591  0.1765 -0.4842
28382W        W47236   4.456   9.715   1.691 -0.0741  0.0130 -0.1662
28383W        W47237  18.517   9.581  10.079  0.1745  0.0660  0.1335
28384W        W47238   7.531   4.559   0.113  0.0863  0.2283 -0.1809
28385W        W47239   1.950   2.196  11.178 -0.2763 -0.0927 -0.0262
28386W        W47240   9.791  13.213   3.016 -0.1568  0.0970  0.1569
28387W        W47241   6.436  15.719  14.131 -0.1760  0.0277  0.0700
28388W        W47242   9.468  14.639   3.139  0.0317 -0.2992 -0.1736
28389W        W47243   9.379  11.685  13.941  0.2931 -0.2481 -0.0954
28390W        W47244   6.355   2.552   3.705 -0.1678  0.0222  0.1432
28391W        W47245   2.087   1.780  11.502 -0.0771 -0.0486 -0.0060
28392W        W47246  12.884  15.993  14.197  0.1765 -0.2279 -0.2095
28393W        W47247   6.310  12.251  10.983  0.1427  0.4860  0.1084
28394W        W47248   3.758  16.048   3.268 -0.1920  0.1830 -0.2851
28395W        W47249  10.240   8.931   0.561 -0.1097  0.1396  0.2450
28396W        W47250  12.243   4.083   2.167  0.2194  0.3764  0.1845
28397W        W47251   2.230   1.054   1.134  0.0220  0.1420  0.2234
28398W        W47252   1.443   4.609  11.760  0.2311  0.4186  0.1079
28399W        W47253  18.948   5.600   0.371  0.0350  0.1640 -0.1297
28400W        W47254   4.832  17.684   4.202  0.0068  0.2010 -0.0873
28401W        W47255  15.303  18.525   2.982  0.4456  0.0027 -0.2750
28402W        W47256   8.260  14.884  12.936  0.1150 -0.0140  0.1707
28403W        W47257   1.336  17.754   9.899 -0.0097  0.1555  0.1290
28404W        W47258   9.335   6.666  10.269 -0.0665  0.2202  0.2235
28405W        W47259  15.148  10.590   3.081  0.2525 -0.0773  0.0524
28406W        W47260   7.094   0.064   1.680 -0.2938  0.0484 -0.0985
28407W        W47261   1.411  18.719   0.740 -0.2333  0.0735 -0.0597
28408W        W47262   4.979   0.897   3.784  0.1983  0.0280 -0.0581
28409W        W47263   5.707  15.815   0.552  0.2114 -0.1916  0.0443
28410W        W47264   6.111  18.652  13.393  0.1243 -0.1386 -0.1779
28411W        W47265   6.796   4.774   1.202 -0.4908  0.0349 -0.1966
28412W        W47266  11.623  15.472  14.332  0.1566  0.2978  0.0976
28413W        W47267   9.993   8.145  14.187  0.0738 -0.2936  0.1771
28414W        W47268   6.234  13.563   9.489  0.0972 -0.2422  0.1485
28415W        W47269   9.561  11.247  13.753  0.1331  0.2483  0.0523
28416W        W47270  16.735  15.286  14.411  0.0766 -0.1368  0.1805
28417W        W47271   0.058   2.900  11.205 -0.2576 -0.1065  0.2545
28418W        W47272  14.011   8.746  10.607  0.1511 -0.1219 -0.1072
28419W        W47273  14.590  17.105   0.026 -0.1839  0.0342  0.0442
28420W        W47274   1.609   9.671   4.391  0.0637  0.2930 -0.3696
28421W        W47275   0.802  10.853  14.690  0.1387 -0.0528  0.3065
28422W        W47276  13.996  17.354   2.131  0.1498  0.0797  0.1015
28423W        W47277   9.704   5.889  12.286 -0.2928  0.3566  0.0921
28424W        W47278  15.378  19.093   3.094 -0.2918  0.0977 -0.2638
28425W        W47279   2.272  18.466   0.178  0.2151 -0.1442 -0.4795
28426W        W47280  10.473   7.258   3.741 -0.0736  0.0657 -0.1161
28427W        W47281  18.761  10.039   1.302  0.0058  0.1204 -0.0047
28428W        W47282   1.834   7.531   0.700  0.0021 -0.0336  0.1154
28429W        W47283  12.659   7.768  11.618  0.1175  0.0174 -0.0836
28430W        W47284  15.262  11.268  14.649 -0.0937 -0.0121  0.1399
28431W        W47285  13.301   8.392   3.858 -0.1397 -0.4965  0.0340
28432W        W47286   5.354  15.985  12.147 -0.0013 -0.1107  0.0335
28433W        W47287   7.574  14.632   3.750  0.0609  0.2085  0.0234
28434W        W47288   9.965  16.955  14.232  0.1838 -0.0049  0.2548
28435W        W47289  10.338   6.285  12.921  0.0203  0.0056 -0.1624
28436W        W47290   3.150   4.896   4.371 -0.1923  0.1066  0.0911
28437W        W47291   2.521  18.876  13.721 -0.1133 -0.1518 -0.1940
28438W        W47292   5.466   7.936   0.250 -0.2562 -0.0581 -0.2056
28439W        W47293  13.627  10.933   3.797  0.1068 -0.0872 -0.1263
28440W        W47294   7.974   9.137   2.955  0.1570  0.1642  0.0877
28441W        W47295  10.372   0.122  11.012 -0.1442 -0.0252  0.3394
28442W        W47296  17.790   6.414  13.330  0.2112 -0.1944 -0.2155
28443W        W47297   9.281  15.333  13.984 -0.0060 -0.1822  0.1363
28444W        W47298   6.010   7.732  12.072 -0.1811  0.1135  0.2863
28445W        W47299   7.298   6.750  11.568  0.0497 -0.0048  0.2158
28446W        W47300  13.479   3.436  10.268 -0.0323 -0.1518 -0.0163
28447W        W47301   8.973   5.654  11.804 -0.3970 -0.2228 -0.1285
28448W        W47302  10.057  15.000   2.050 -0.0174  0.1626 -0.0849
28449W        W47303  15.665  17.674  11.677  0.0898  0.0038  0.2409
28450W        W47304  12.181   5.491  13.559 -0.2404  0.3433  0.1428
28451W        W47305   6.682   4.020  12.859  0.0492 -0.0039  0.0045
28452W        W47306   5.326   6.369   3.653 -0.1885  0.2399  0.0087
28453W        W47307   5.913  10.298   2.117  0.1561  0.4632  0.3395
28454W        W47308   5.495  12.841  13.907 -0.0862  0.1858  0.1343
28455W        W47309   7.373   1.169   1.358 -0.0676 -0.1710 -0.1406
28456W        W47310   4.018   6.964  10.710 -0.0709 -0.2952  0.3620
28457W        W47311   6.201  14.249  11.223  0.3251  0.1066 -0.0423
28458W        W47312  12.352  13.077  12.574  0.0753  0.0474  0.0494
28459W        W47313  10.845   4.953   1.372 -0.0628  0.0548 -0.1081
28460W        W47314  12.527  13.087  14.618  0.0768 -0.1860 -0.1632
28461W        W47315   5.981  17.232  12.099 -0.2889 -0.1866  0.2627
28462W        W47316  18.570  15.786  12.283  0.1984 -0.1044 -0.1243
28463W        W47317   0.600  10.843   5.173  0.1317  0.0383  0.0210
28464W        W47318   3.294  10.827  10.779  0.0422 -0.0147 -0.0669
28465W        W47319  18.984  17.921   4.306 -0.1149  0.1111 -0.2211
28466W        W47320   9.501   7.658   0.014 -0.0147  0.0109  0.1708
28467W        W47321   9.031   1.363  11.660 -0.0176  0.0145 -0.0803
28468W        W47322   6.279   5.329  11.441  0.1338 -0.0622 -0.0773
28469W        W47323  11.995  13.865   0.245  0.3068  0.0171  0.0834
28470W        W47324  15.985   2.195   3.050 -0.0582  0.0979  0.1057
28471W        W47325   1.332   6.052  12.345  0.1398 -0.2441  0.1487
28472W        W47326   6.735   4.707   2.222 -0.2451  0.1643  0.0049
28473W        W47327   8.804   4.410   2.273 -0.1874 -0.0804  0.1220
28474W        W47328  11.453   7.018  14.270  0.0151 -0.2609 -0.1921
28475W        W47329   0.570  13.610   2.112  0.1287 -0.0574 -0.0663
28476W        W47330  18.904   1.969  13.905 -0.0868 -0.1022  0.0599
28477W        W47331  12.856   2.590   1.383  0.1771  0.4072 -0.1438
28478W        W47332  14.589   1.415   4.756 -0.0075 -0.0847 -0.1220
28479W        W47333  17.916   6.677  14.725  0.0480 -0.2716  0.0946
28480W        W47334   9.189   5.194  11.937 -0.1213  0.2068  0.0571
28481W        W47335  16.010   6.665  13.556 -0.0808  0.0419 -0.1840
28482W        W47336   8.038   8.189  13.929 -0.0425 -0.4451  0.0524
28483W        W47337   1.620  15.027   4.521 -0.1400 -0.3190 -0.4835
28484W        W47338  11.634   3.812  10.945 -0.6513  0.1167  0.0466
28485W        W47339  12.411  15.285  14.542 -0.3370 -0.4690  0.0345
28486W        W47340  10.768   4.507   0.230  0.3037 -0.1869  0.0506
28487W        W47341  19.004   0.729  13.514 -0.2332 -0.1487  0.1533
28488W        W47342   5.926   7.157   2.318 -0.1885 -0.0814  0.1755
28489W        W47343  12.782   9.739   0.070  0.0253 -0.0126 -0.3291
28490W        W47344   2.324  10.466  11.098 -0.0802 -0.2019  0.0906
28491W        W47345   8.854  14.984  11.986 -0.1676 -0.0113 -0.0323
28492W        W47346  12.794  18.954   1.219  0.0627  0.0613  0.0852
28493W        W47347  13.683   5.420   2.645 -0.0602  0.0344 -0.1374
28494W        W47348   6.985   0.469  13.706  0.1027 -0.0872  0.1314
28495W        W47349   6.925  18.297   0.719  0.2872  0.2235  0.1735
28496W        W47350  19.180  18.503   1.537  0.0145  0.3687  0.1618
28497W        W47351  11.514  18.252   0.253  0.2354  0.2006 -0.0789
28498W        W47352   9.859  11.159   3.596  0.0025  0.2432  0.3443
28499W        W47353  13.316  16.494   3.210 -0.1137 -0.1926 -0.0484
28500W        W47354  14.571  14.751  14.615 -0.0397  0.1287 -0.2253
28501W        W47355   4.201  15.748  13.266 -0.0801 -0.0931 -0.0742
28502W        W47356   7.659   1.223   5.258 -0.0918 -0.0483  0.2590
28503W        W47357   6.479  17.659  12.884 -0.0089 -0.0805  0.1083
28504W        W47358   5.566   0.708   1.563 -0.0116 -0.1071 -0.0543
28505W        W47359   6.387  12.621   1.639 -0.1535  0.0001 -0.1368
28506W        W47360  10.747   6.757   3.115  0.0923  0.2853 -0.0578
28507W        W47361  17.715   9.311   2.013  0.2267 -0.0632 -0.0062
28508W        W47362   8.971   1.403   1.600  0.1568 -0.0543 -0.0303
28509W        W47363  16.174  16.723   0.036  0.2945  0.0287 -0.1842
28510W        W47364  16.255  10.005   9.541 -0.0965 -0.1275 -0.0562
28511W        W47365   5.849   8.123  11.226  0.1864 -0.0679  0.1797
28512W        W47366  10.426   2.915  13.612 -0.0381  0.1981  0.1895
28513W        W47367  19.146  15.609   4.588  0.2768 -0.0265  0.1227
28514W        W47368   9.392  13.870  13.797 -0.0892  0.0360 -0.3195
28515W        W47369  10.482  13.134   2.307 -0.0970 -0.2595  0.1516
28516W        W47370   5.520  10.498   3.736  0.0153  0.3805 -0.2426
28517W        W47371   2.401   3.772   2.690  0.3392 -0.0337 -0.0539
28518W        W47372  17.765  12.842   0.011 -0.1588 -0.0607 -0.2518
28519W        W47373   6.374   2.046   0.698 -0.0914  0.1758 -0.3628
28520W        W47374   3.646   2.277   1.855  0.0750 -0.4185 -0.2295
28521W        W47375   6.831  17.807   2.607  0.1773 -0.3151 -0.1450
28522W        W47376  18.433  11.455   0.232 -0.0452 -0.3331 -0.0916
28523W        W47377   2.210   6.537  11.485 -0.0851  0.0248  0.1460
28524W        W47378  11.664   0.630  13.968  0.2256  0.2255 -0.0417
28525W        W47379  17.246   8.963   3.380 -0.0582 -0.0922  0.0950
28526W        W47380  10.656  14.915  14.676 -0.0709 -0.0773 -0.4899
28527W        W47381  19.110   4.538  13.936  0.1029 -0.0271  0.0207
28528W        W47382  12.246   3.309   3.430 -0.2134  0.6189  0.0909
28529W        W47383  14.475   4.071  11.675 -0.2091 -0.1399  0.1451
28530W        W47384   1.726  15.606  13.951 -0.1668  0.1893  0.1150
28531W        W47385   0.991  12.148  14.065  0.0143  0.1781  0.0358
28532W        W47386   4.924  11.105   2.524 -0.0766  0.0129 -0.0333
28533W        W47387  10.511  15.452   2.178 -0.0834 -0.3244  0.3784
28534W        W47388  12.437  10.094  11.126 -0.1066 -0.1295  0.1598
28535W        W47389   7.991  13.895   0.866 -0.2997  0.0437  0.0557
28536W        W47390  13.707  15.975   4.682 -0.2641  0.0283 -0.0044
28537W        W47391   2.646  11.974  13.115 -0.1069 -0.0460  0.0275
28538W        W47392  17.106  17.204   4.008 -0.1434  0.0333  0.2384
28539W        W47393  10.830  17.669   1.837  0.1327  0.0488 -0.1700
28540W        W47394  19.030  10.338   0.514  0.0987 -0.0867 -0.1535
28541W        W47395   0.438  10.008   3.630 -0.1823 -0.5141 -0.1050
28542W        W47396   0.260  13.820   1.756 -0.0688  0.2354 -0.0576
28543W        W47397  10.047   8.987  11.224  0.0733 -0.0321 -0.1397
28544W        W47398   4.648  17.941  13.646 -0.2196 -0.1406  0.0515
28545W        W47399  12.266   4.498  10.858 -0.0639  0.0544 -0.3216
28546W        W47400  15.451  15.168  11.382 -0.1525 -0.1704  0.0765
28547W        W47401  13.903   9.423   2.004 -0.0383  0.0693 -0.2115
28548W        W47402   6.012   5.059  12.753  0.3085  0.3196  0.4046
28549W        W47403  14.999   4.643  10.996  0.0209 -0.0147 -0.2777
28550W        W47404   3.718  18.424   4.073 -0.2666 -0.0974 -0.0770
28551W        W47405  17.324   3.937  12.757 -0.1285 -0.1932  0.0613
28552W        W47406  14.370   5.670   3.902 -0.0662 -0.3203  0.2065
28553W        W47407   6.055  13.304  10.509 -0.3100  0.1428 -0.1099
28554W        W47408   2.913   6.770  12.433 -0.0413  0.1220  0.0216
28555W        W47409  16.051  17.146   1.801  0.1923  0.0805  0.3331
28556W        W47410   3.969  11.553  11.542 -0.1293  0.1659  0.0398
28557W        W47411  15.551   6.639  11.909  0.0916  0.0784 -0.0110
28558W        W47412  13.003  12.314   0.950 -0.2147  0.0117  0.1786
28559W        W47413  13.937   6.552  12.507 -0.3641  0.0030 -0.2236
28560W        W47414  13.191  12.774  10.559 -0.0986 -0.0996  0.0352
28561W        W47415  16.162   5.878   3.346  0.1852  0.1159  0.0494
28562W        W47416  16.729   8.499   4.227  0.2345 -0.2238  0.0359
28563W        W47417   6.525   9.301  11.432  0.0459 -0.0193 -0.2188
28564W        W47418   3.592   7.392   2.624 -0.0286 -0.2321  0.0107
28565W        W47419   4.823   1.648   3.903 -0.0288 -0.0516 -0.3254
28566W        W47420   3.350   4.537   3.481  0.2647  0.1373  0.3479
28567W        W47421   7.785   5.978  13.339 -0.2665  0.1964  0.0485
28568W        W47422   7.878  17.219   4.506  0.0790  0.1082 -0.2958
28569W        W47423  19.189   7.524   4.229 -0.2947  0.2659 -0.0542
28570W        W47424   1.534   3.985  14.003  0.3222  0.1238  0.2171
28571W        W47425  14.624   7.969  13.347  0.1058  0.3486  0.0540
28572W        W47426   1.470   5.243  13.004  0.3540 -0.0956 -0.4001
28573W        W47427   5.470   2.735  12.375  0.0375  0.0219 -0.0237
28574W        W47428   5.525   6.349  11.507  0.0783  0.4468 -0.3540
28575W        W47429   4.245  12.859  12.782  0.0100 -0.1371  0.1944
28576W        W47430  18.035   8.838  11.717 -0.1985 -0.2849  0.0023
28577W        W47431  18.203  15.197   1.559 -0.3562  0.3025  0.2545
28578W        W47432   2.469  11.410  11.211 -0.2221 -0.1277 -0.2172
28579W        W47433   7.275   0.748   0.822 -0.0260 -0.3577 -0.0866
28580W        W47434   5.999  18.756   2.615  0.0863  0.0769 -0.0977
28581W        W47435   8.709   7.489  12.984  0.4773 -0.0353  0.1095
28582W        W47436  14.899   2.086  12.813  0.3216  0.1220 -0.1751
28583W        W47437  12.785   4.372  11.079  0.1016  0.5019  0.3453
28584W        W47438   1.267  18.737   2.111  0.1426  0.0212  0.1193
28585W        W47439  17.550  14.077  14.232  0.2516  0.0148  0.0258
28586W        W47440  16.821  13.598   0.309 -0.0825 -0.0121 -0.0133
28587W        W47441  10.828   8.356  10.438  0.1537  0.1502 -0.0428
28588W        W47442  15.876  10.974   0.079 -0.1859  0.2635 -0.1716
28589W        W47443   6.687   6.392   4.038 -0.0813 -0.3639 -0.1003
28590W        W47444  10.763  14.980   0.919  0.1066 -0.0507 -0.2151
28591W        W47445  14.837  13.481   4.337  0.2306  0.2472  0.1993
28592W        W47446   7.105   6.009   2.816  0.0176  0.2466  0.1247
28593W        W47447   7.395  13.149  10.698 -0.0928 -0.0592  0.1954
28594W        W47448  13.513  17.591  12.533 -0.3030 -0.0471 -0.3499
28595W        W47449   9.519  12.889   0.332  0.0489 -0.0889  0.0024
28596W        W47450   0.178  13.211   3.750 -0.0554 -0.2389 -0.0411
28597W        W47451   0.042   8.570  12.273  0.1660  0.1019  0.0495
28598W        W47452   3.608   3.396  13.666 -0.0504  0.1496  0.1858
28599W        W47453   6.780   3.242   2.723 -0.1653  0.0203  0.0178
28600W        W47454  12.275   3.809  12.239 -0.1310  0.2480  0.0795
28601W        W47455   2.402   6.420   4.532 -0.1311 -0.1421  0.1244
28602W        W47456  18.811  16.408  13.378  0.2632  0.3512 -0.1046
28603W        W47457  18.862  10.183   3.277 -0.3033 -0.0769 -0.0589
28604W        W47458  18.890  14.261  11.508  0.1663 -0.1473 -0.4522
28605W        W47459   4.404   8.251   1.938 -0.4118  0.4404 -0.1367
28606W        W47460   2.492   8.715   4.119  0.0799 -0.3737 -0.0019
28607W        W47461  14.893   3.498  11.026  0.1133  0.1415  0.2077
28608W        W47462  14.311  14.668  11.190  0.0987 -0.2197 -0.2644
28609W        W47463   0.050   3.600  13.240 -0.1694  0.3529  0.3067
28610W        W47464   7.998   0.988  11.449 -0.3073  0.1991 -0.0915
28611W        W47465   7.695   0.819   9.563 -0.2054  0.0245  0.1767
28612W        W47466   2.111  15.499   1.824  0.1783  0.2831 -0.0241
28613W        W47467  14.958   8.058  14.537  0.0220  0.0398 -0.0590
28614W        W47468   0.062   5.836  14.103  0.2370 -0.0954  0.1282
28615W        W47469   4.218   0.336   2.126  0.0721  0.2861 -0.0034
28616W        W47470   4.193  18.759   0.036  0.2058 -0.3526  0.1075
28617W        W47471  11.709   8.970   2.527  0.0640  0.3499  0.2283
28618W        W47472  13.060   9.638   0.551  0.0665  0.0254 -0.0493
28619W        W47473  14.598  11.330  13.609  0.0093 -0.2505 -0.0680
28620W        W47474   5.269  10.687   0.903 -0.0320  0.0508  0.0247
28621W        W47475   3.002  16.044  10.984 -0.1996  0.0609  0.0488
28622W        W47476  15.828  11.617   1.827 -0.1217 -0.1885 -0.3482
28623W        W47477   3.077  17.783   0.558 -0.2517  0.0385  0.0636
28624W        W47478   4.452  12.433  13.141 -0.1754 -0.1509 -0.0709
28625W        W47479   8.784  16.460  11.521 -0.2579  0.2441  0.0381
28626W        W47480   9.530   7.470  12.111 -0.5793 -0.0937  0.4254
28627W        W47481  13.071  12.754   1.475  0.1467 -0.2395 -0.4848
28628W        W47482  17.860   5.698  12.481  0.1580 -0.1589  0.1240
28629W        W47483  18.490  11.597  13.916  0.1534  0.4062  0.1478
28630W        W47484   5.046  17.453   3.187 -0.0352  0.0915  0.1310
28631W        W47485   5.288   3.061  11.175 -0.0771 -0.0211  0.2072
28632W        W47486   4.389   7.955  13.902 -0.4158  0.1224 -0.3239
28633W        W47487   9.303   8.952   3.957  0.0204 -0.1383  0.2069
28634W        W47488   2.090   6.649  14.364  0.1884  0.1267 -0.2717
28635W        W47489  10.604  10.726   0.294  0.2380  0.2118  0.1302
28636W        W47490  14.072   9.947  14.367  0.2029 -0.0359  0.0056
28637W        W47491  17.875   5.858  10.866  0.4669 -0.0527 -0.2750
28638W        W47492  11.966  15.112  10.429 -0.0121  0.1649 -0.0709
28639W        W47493  11.428  10.109   3.550  0.0971 -0.2252  0.3826
28640W        W47494  19.067   5.831  12.370 -0.0672  0.0065 -0.1617
28641W        W47495  18.499  17.780   3.524 -0.1541 -0.1306  0.2389
28642W        W47496  18.798   6.305  11.585 -0.4489 -0.1936 -0.2417
28643W        W47497  17.008  19.156  10.419 -0.1775 -0.2648 -0.2032
28644W        W47498  14.065  10.918   1.169 -0.0074  0.0027 -0.1684
28645W        W47499  11.222   7.470   2.013  0.0363 -0.1618 -0.1372
28646W        W47500  18.785  14.589   3.348  0.0527 -0.0111  0.3096
28647W        W47501   4.200  10.157  14.192 -0.0127  0.1330 -0.2985
28648W        W47502   4.118  16.871  14.664  0.3047 -0.0000  0.0580
28649W        W47503   3.156   5.567   0.418 -0.0199  0.1570  0.0962
28650W        W47504   8.512  16.868  14.679 -0.1987  0.0930  0.2148
28651W        W47505  18.240   0.700  13.043 -0.2429 -0.2375 -0.4380
28652W        W47506   6.880  14.633   1.818 -0.0904 -0.2261 -0.0782
28653W        W47507  13.322   5.178   2.355  0.3693 -0.3349 -0.1960
28654W        W47508  17.594  10.115   3.646 -0.0910  0.4853  0.3017
28655W        W47509  15.992   8.057   2.423  0.0277  0.0501 -0.2661
28656W        W47510  10.313   9.103  11.669  0.0349  0.1821  0.1246
28657W        W47511  11.347  14.579   0.321  0.2364  0.1541  0.1596
28658W        W47512  19.133  13.896  11.758 -0.1460  0.0648 -0.2727
28659W        W47513   7.721   1.719   2.158 -0.2090  0.2720  0.0424
28660W        W47514   8.993  12.989  14.256 -0.1585  0.3625 -0.0695
28661W        W47515  17.625   3.647   1.447  0.1466 -0.0317  0.0893
28662W        W47516   9.859   0.246   1.558 -0.0133 -0.0116 -0.0870
28663W        W47517  11.159  10.014   3.109 -0.1139 -0.1822  0.5467
28664W        W47518   4.129  18.645  12.124 -0.0675 -0.1617  0.0597
28665W        W47519  18.968   7.055   1.570 -0.1676 -0.1080 -0.0304
28666W        W47520  16.216  10.215   4.137  0.0343 -0.3409 -0.0549
28667W        W47521   1.994   3.871   2.001 -0.3178 -0.0424 -0.1984
28668W        W47522   8.984  11.204   0.704  0.0073  0.3641  0.0506
28669W        W47523   1.800  16.313  12.741 -0.0153 -0.0608  0.3348
28670W        W47524   5.640   9.190  14.614  0.2392 -0.1333  0.4007
28671W        W47525   9.064   5.962   2.387 -0.0258 -0.0953  0.0405
28672W        W47526   5.928   4.597  12.967 -0.2919  0.0562 -0.2025
28673W        W47527   3.158  17.490   0.947  0.2625 -0.1551 -0.1245
28674W        W47528  16.301  16.831   4.417  0.2754  0.0110  0.2654
28675W        W47529   4.734   2.592   1.412 -0.2020  0.6247  0.1079
28676W        W47530   3.949  13.893  11.417 -0.3084  0.0227 -0.1210
28677W        W47531   7.986  18.061   0.691 -0.1084 -0.0551  0.1144
28678W        W47532   5.916   9.623  11.554  0.1358  0.0107  0.2213
28679W        W47533  14.682   7.077  13.703  0.2871 -0.1857 -0.1986
28680W        W47534  18.464  13.571   2.627  0.2267 -0.1650 -0.0316
28681W        W47535   2.456  16.552  14.015  0.0469  0.0597  0.1450
28682W        W47536  11.768  13.337   1.363 -0.1018  0.0462  0.0570
28683W        W47537  13.861  18.387  13.586  0.3711 -0.0844  0.2841
28684W        W47538   2.754   8.685   1.322  0.0779 -0.0704 -0.0455
28685W        W47539  12.018  10.795   4.999 -0.1529  0.1511  0.1920
28686W        W47540   6.656   8.669   3.696 -0.0810  0.0969  0.1205
28687W        W47541   9.483   4.792   1.262  0.1157 -0.0725  0.1173
28688W        W47542   6.151  15.846  14.576 -0.3071 -0.1452 -0.1988
28689W        W47543   9.861  10.839  11.986  0.0173  0.1294 -0.1385
28690W        W47544   2.037   1.399   1.464 -0.2779 -0.1109 -0.1600
28691W        W47545   7.414  11.056   1.046  0.2604  0.1417 -0.1210
28692W        W47546  13.445   9.797  14.547  0.0483 -0.3333  0.0593
28693W        W47547  10.060   6.858  14.466  0.0679 -0.1869 -0.2316
28694W        W47548   4.571  16.596   2.335 -0.0724  0.4384  0.0339
28695W        W47549   9.343   5.105   0.347  0.0758  0.1793 -0.1360
28696W        W47550  10.666   1.733  10.600  0.3115 -0.0668 -0.1189
28697W        W47551  18.335  17.980  10.668 -0.0300 -0.0773 -0.1026
28698W        W47552   2.673   0.692   3.435 -0.0679 -0.2238  0.0221
28699W        W47553  14.252  10.352  13.578  0.0197 -0.1499  0.1716
28700W        W47554   4.917   8.368  11.169 -0.1813 -0.0671  0.0385
28701W        W47555  10.474  10.257  10.919  0.2177  0.0735  0.1812
28702W        W47556   3.486   7.332   3.105 -0.0336 -0.1331  0.4350
28703W        W47557   2.437   8.627  11.271  0.2851  0.1381 -0.0468
28704W        W47558   1.781  17.428   2.489 -0.0792  0.2501  0.1687
28705W        W47559   1.482  14.617  12.628 -0.0748 -0.0194 -0.0225
28706W        W47560  11.401  13.088   1.628  0.1480  0.2711  0.2768
28707W        W47561  15.995   2.786  10.640 -0.0110 -0.0201 -0.2172
28708W        W47562  17.069   6.707  13.988 -0.2054  0.1752  0.2925
28709W        W47563   4.391   3.465   2.507 -0.1873 -0.0196  0.0020
28710W        W47564   1.326  13.816  14.177  0.1087  0.2911  0.0686
28711W        W47565   0.638  18.269  10.741 -0.0600  0.1543 -0.0091
28712W        W47566  19.031  12.289   1.381  0.0638 -0.0838 -0.0374
28713W        W47567  12.238   1.728  11.241 -0.1636  0.0044 -0.4031
28714W        W47568   1.576  19.158   0.427  0.1528  0.1295 -0.2143
28715W        W47569  12.915   2.110   0.432  0.3495  0.1373 -0.1596
28716W        W47570  13.773  16.760  13.434  0.0668  0.0164  0.1830
28717W        W47571  12.997   5.758  13.963 -0.0171  0.1563 -0.0414
28718W        W47572   9.705  13.246   0.036  0.0543 -0.2761  0.0467
28719W        W47573   7.922   5.841   1.748  0.0972  0.4199 -0.1031
28720W        W47574  12.970   7.088   1.636  0.0530 -0.0568  0.4343
28721W        W47575   8.464   3.312  14.717 -0.4360  0.0904 -0.0902
28722W        W47576  16.677  12.276   1.828  0.2482  0.0842  0.0145
28723W        W47577   2.629   5.721   1.113  0.0689  0.0948 -0.0051
28724W        W47578   8.355  10.996   1.104 -0.3835  0.1149  0.3588
28725W        W47579   7.073   2.291  10.632 -0.1537  0.0487 -0.3137
28726W        W47580   1.840   8.799   3.497  0.0392 -0.3141  0.1537
28727W        W47581   1.682  17.528   4.102 -0.1905  0.2574  0.0093
28728W        W47582  12.183   8.597  10.830  0.0954 -0.1513  0.1880
28729W        W47583  18.803  15.029   2.817 -0.3460 -0.1371 -0.3211
28730W        W47584   2.494  14.361  10.507  0.2368  0.2261  0.3122
28731W        W47585  12.740   2.704  11.707  0.2394  0.2482 -0.1163
28732W        W47586  14.973   3.566  12.438  0.5372  0.3008 -0.1768
28733W        W47587  16.736   0.937   3.866 -0.1672  0.0712  0.1131
28734W        W47588   4.629   1.801   1.451  0.3604  0.0441 -0.2739
28735W        W47589  18.683  15.039   1.674  0.1160 -0.2116 -0.1061
28736W        W47590  16.381   3.280   3.210 -0.0243  0.0917 -0.0299
28737W        W47591   9.559   2.046   3.044  0.0635  0.0449  0.1682
28738W        W47592  18.375  11.543  12.150 -0.0556  0.0752  0.0341
28739W        W47593   5.728  11.732   2.326 -0.0192  0.0333  0.3102
28740W        W47594  15.132   2.867   2.370  0.0301  0.0844  0.1470
28741W        W47595   5.126  17.265  13.936  0.0803  0.1650  0.3300
28742W        W47596  12.943  17.141   3.231  0.2475  0.2882  0.3532
28743W        W47597  14.321   5.532  10.152 -0.4485 -0.1411  0.1493
28744W        W47598  10.012   8.402   2.740  0.0412  0.2585  0.0528
28745W        W47599  17.047  13.671   4.462  0.2961  0.1967  0.1376
28746W        W47600  10.504  12.960  12.302  0.2209 -0.1907  0.1804
28747W        W47601  11.020   4.091   0.856  0.1165 -0.0203 -0.3504
28748W        W47602  17.378   4.233  13.818  0.1479  0.1567  0.0331
28749W        W47603  17.408   6.571   4.732  0.2195  0.0365  0.0325
28750W        W47604   6.267   0.018   2.568  0.0324 -0.1137  0.1438
28751W        W47605   8.506   7.964  13.780  0.0421 -0.3243  0.0748
28752W        W47606   9.423   8.080   9.203 -0.0667 -0.3554 -0.0514
28753W        W47607   6.285   2.481  13.457  0.4718  0.1490  0.0269
28754W        W47608  10.034  13.744  14.548 -0.1235 -0.1534  0.2910
28755W        W47609   3.000   4.402  13.075 -0.3482 -0.1414  0.0275
28756W        W47610   5.386   4.381   0.721 -0.4549 -0.2991  0.1516
28757W        W47611   5.005   0.421   0.774 -0.2432 -0.4808 -0.0286
28758W        W47612   9.570  14.005   9.981  0.1833  0.1489  0.0538
28759W        W47613   8.477  17.197  13.143  0.0839 -0.3808 -0.0930
28760W        W47614  17.392   6.975   4.397  0.2115 -0.1811  0.0525
28761W        W47615  18.063  12.230   4.517  0.0726 -0.0550  0.0708
28762W        W47616   3.224   1.824  12.833  0.1845  0.0336  0.1424
28763W        W47617   3.613  18.754   1.766  0.0724  0.1252 -0.2378
28764W        W47618  10.956  13.773   2.761  0.0950  0.0898 -0.0356
28765W        W47619  18.845   0.665   2.467  0.0298 -0.1177 -0.2172
28766W        W47620  10.491  12.478  10.497  0.0517  0.1477  0.2287
28767W        W47621   0.643  14.311   3.274  0.1037 -0.1649  0.1358
28768W        W47622   1.099   4.869   1.416  0.0237 -0.0451 -0.4076
28769W        W47623  15.061  17.773   0.566 -0.0661 -0.0821  0.0729
28770W        W47624  18.135   4.433   9.851 -0.2348  0.0301 -0.0354
28771W        W47625   8.284  13.124   2.151 -0.0990  0.0872  0.0148
28772W        W47626  10.295   5.988   0.450 -0.0907  0.0303 -0.0635
28773W        W47627   7.504   5.789  11.046  0.1052 -0.1012  0.0540
28774W        W47628   2.573   5.649   3.258 -0.0495  0.1427 -0.2136
28775W        W47629  13.382   4.533   3.829 -0.1269 -0.3431  0.0491
28776W        W47630  13.430   1.282   0.939 -0.3957  0.0309  0.1386
28777W        W47631  14.667   9.670   1.641 -0.4128  0.0100 -0.2190
28778W        W47632  16.039   0.526   0.972  0.0001  0.0666 -0.0232
28779W        W47633   7.491  17.765  11.721  0.0480  0.0300 -0.0662
28780W        W47634  17.943  16.560   4.013  0.0967 -0.0254 -0.0833
28781W        W47635   8.830   6.413   1.422 -0.0662 -0.2492 -0.2739
28782W        W47636  13.026   4.526  14.070  0.2608  0.0351 -0.3380
28783W        W47637   2.019   6.375   1.319  0.0179 -0.0667  0.3026
28784W        W47638   6.708   7.807   0.271  0.2939 -0.2890 -0.3927
28785W        W47639  11.059   1.655  10.260 -0.1211 -0.3361  0.1684
28786W        W47640  17.969  18.413  12.347  0.0033  0.1038 -0.1256
28787W        W47641   7.168   0.377  12.284  0.0423 -0.2551 -0.4063
28788W        W47642  10.988   3.519   2.243 -0.0235 -0.0336 -0.0871
28789W        W47643   1.150  16.079   3.156  0.0282 -0.0461 -0.2073
28790W        W47644  19.161   4.287   2.154 -0.0949 -0.3223 -0.0615
28791W        W47645  12.677  11.925  11.912  0.0329 -0.0464 -0.0686
28792W        W47646  11.594   2.571   2.541 -0.4676 -0.2116 -0.2099
28793W        W47647   6.096  18.178   1.624  0.1974 -0.1999  0.2116
28794W        W47648   3.141  13.080   0.854 -0.3109 -0.1287  0.0770
28795W        W47649   5.768   0.922   0.518 -0.0302  0.0341 -0.0357
28796W        W47650  19.094   2.420   0.322  0.1685  0.1703 -0.0790
28797W        W47651   8.444   4.651  14.721  0.1426  0.3178 -0.0674
28798W        W47652  14.777  11.393   2.338 -0.2168 -0.0982 -0.2331
28799W        W47653  11.353   1.870   2.481 -0.3320 -0.1092  0.1758
28800W        W47654   2.462   5.268  13.772 -0.1067  0.1026  0.1725
28801W        W47655  17.518  10.617   2.234  0.1173 -0.1075  0.1854
28802W        W47656   6.692   4.346  14.362 -0.2174 -0.0027 -0.1526
28803W        W47657  11.199  19.000   3.211 -0.1015  0.2170 -0.2197
28804W        W47658   8.849   0.831   2.770  0.3685 -0.0912 -0.2739
28805W        W47659   1.517   4.464  13.093  0.0388 -0.2490 -0.1818
28806W        W47660   0.875   6.923  11.027 -0.1253  0.0746 -0.2324
28807W        W47661   0.104   8.430   2.796 -0.1288  0.0036  0.2174
28808W        W47662   9.156  16.496  12.803 -0.1435 -0.2537 -0.0751
28809W        W47663   4.338  14.084   0.885  0.0045  0.6666 -0.0841
28810W        W47664   2.782  19.057  13.303 -0.0391  0.0923  0.2372
28811W        W47665  16.163   8.040  14.364 -0.0928  0.2891  0.0789
28812W        W47666   4.497  17.925  14.243 -0.0535  0.2256  0.0824
28813W        W47667   9.570   4.072   2.755  0.2141  0.1769  0.3620
28814W        W47668   0.486  11.021  12.936 -0.2728  0.2488  0.1060
28815W        W47669   1.106   9.312   0.332  0.1427 -0.2610  0.4650
28816W        W47670  17.243  17.601  10.442  0.2139  0.3114  0.3087
28817W        W47671  15.732  16.745  12.851  0.3686 -0.0828  0.1959
28818W        W47672   4.125   4.914  14.284  0.1627 -0.0767 -0.1955
28819W        W47673   7.341  12.185  10.908 -0.0142  0.0678  0.4635
28820W        W47674  16.534   2.222  14.507  0.1871  0.0844  0.1620
28821W        W47675   8.955   6.520  14.576 -0.2055 -0.0426 -0.0097
28822W        W47676   9.419   8.028  13.867  0.0253 -0.0717 -0.2176
28823W        W47677  12.043  16.551   1.821  0.1585  0.0355  0.2343
28824W        W47678   6.038   8.982  13.692 -0.1331 -0.0610  0.1275
28825W        W47679   4.575   9.832  13.587 -0.1134  0.1988  0.0832
28826W        W47680  10.749   8.027  11.707  0.1664  0.0667  0.0968
28827W        W47681  15.964   2.317   4.454  0.1196 -0.4167 -0.1669
28828W        W47682   0.353   1.175   2.904 -0.1389  0.0588 -0.0301
28829W        W47683  15.730   6.859   2.677  0.2564 -0.2740 -0.0130
28830W        W47684  17.195   5.295  14.647 -0.0114  0.0624  0.1513
28831W        W47685   6.825   5.945   4.189 -0.0834  0.0444 -0.0809
28832W        W47686  12.731   6.520  12.877  0.0333  0.0319  0.1487
28833W        W47687  17.045  18.269   1.361  0.2011 -0.0620 -0.2114
28834W        W47688   1.849  12.859   2.353  0.0508 -0.1233 -0.2725
28835W        W47689   8.360   9.068  12.847 -0.3049  0.0113 -0.1639
28836W        W47690   2.237   2.777  11.884  0.0450 -0.0460 -0.0557
28837W        W47691  11.836  16.011   2.779  0.2579 -0.4229 -0.2062
28838W        W47692   3.117   1.928  13.829  0.0652 -0.1010 -0.0403
28839W        W47693  12.190  13.455   2.232 -0.1747 -0.1674 -0.0550
28840W        W47694   8.077   3.812   0.673 -0.0733  0.1307 -0.1078
28841W        W47695   7.563  11.352  10.639 -0.2575 -0.4820  0.0019
28842W        W47696  14.335   8.652   4.923 -0.0423  0.1582 -0.0136
28843W        W47697   3.826   8.575  10.976 -0.2817  0.5106 -0.0388
28844W        W47698   8.990  14.462  11.923 -0.3888 -0.0206  0.2630
28845W        W47699  14.237  15.025   1.054 -0.0497 -0.1539 -0.0495
28846W        W47700   5.212   3.773   0.625 -0.1037  0.1413  0.0564
28847W        W47701   5.540  18.614   3.889 -0.0696 -0.0627 -0.0822
28848W        W47702   2.065   2.308  12.088 -0.0110 -0.0159 -0.3228
28849W        W47703   7.096  11.505   3.256 -0.1017  0.0794  0.0903
28850W        W47704   8.478   1.188  14.433 -0.0419 -0.0172  0.0675
28851W        W47705  15.327  13.654   3.205  0.0695  0.3669 -0.4111
28852W        W47706  13.308  13.635   1.497 -0.1403  0.2630 -0.2574
28853W        W47707   8.130   2.427  12.430 -0.0452  0.2369  0.1820
28854W        W47708  15.393   4.730   2.921  0.2812 -0.1458 -0.0978
28855W        W47709   3.940  13.928   3.476 -0.2105  0.3640  0.1033
28856W        W47710  15.335   7.112  10.695 -0.0262  0.1464  0.1753
28857W        W47711   0.164   3.393   9.978  0.0843  0.1774  0.0581
28858W        W47712   6.394   0.472   2.274  0.2697  0.0896 -0.1512
28859W        W47713   0.023  17.040  10.651  0.0724 -0.0243  0.2211
28860W        W47714  18.433  18.707   0.442 -0.1585  0.0821 -0.0527
28861W        W47715  18.795   8.146  12.932  0.0312 -0.0259 -0.1063
28862W        W47716   6.307  11.986  13.269  0.3472  0.2638  0.1958
28863W        W47717   2.845   4.990   3.281  0.0953 -0.1745 -0.1012
28864W        W47718  12.395  14.784   2.229  0.1961  0.2572 -0.4098
28865W        W47719   9.481   3.859   3.318  0.1465  0.3384 -0.0429
28866W        W47720   3.565   1.844  14.712  0.2193  0.2887 -0.2041
28867W        W47721   3.644   3.253  12.624 -0.4927  0.1498  0.0221
28868W        W47722   9.657   6.094   2.801  0.0500  0.0404 -0.4488
28869W        W47723   3.853   6.692   0.521  0.0377  0.4415  0.1796
28870W        W47724   6.291  12.756   3.730 -0.2916 -0.0890  0.0613
28871W        W47725   2.582   8.754   3.650 -0.3490 -0.0108  0.1514
28872W        W47726  17.397   6.413   4.190  0.4403  0.2753  0.4051
28873W        W47727  13.816   1.221   3.527 -0.0319 -0.1412  0.1118
28874W        W47728  16.814  10.212  13.833 -0.0183 -0.3691  0.0183
28875W        W47729  17.701  10.586   3.935  0.0348 -0.2280 -0.2806
28876W        W47730   6.065   9.730  13.782 -0.2279 -0.1684  0.2373
28877W        W47731   7.910  17.564  11.775  0.1049 -0.0497  0.4620
28878W        W47732   4.054   9.960  10.408 -0.0385 -0.1193 -0.1737
28879W        W47733   1.930  10.129   1.891 -0.0965  0.1672 -0.1109
28880W        W47734   2.144  10.889  14.329 -0.0653 -0.0534 -0.0967
28881W        W47735  15.646   6.932  14.374  0.2138 -0.2955 -0.2151
28882W        W47736   6.665   1.086   2.521 -0.0704  0.0565  0.0111
28883W        W47737  14.339  17.039   3.453  0.1981  0.1698 -0.2532
28884W        W47738  14.992   0.115   0.841  0.3087 -0.2499 -0.1291
28885W        W47739   3.924   8.082  13.809  0.1894  0.1661  0.2876
28886W        W47740   0.960  12.631   2.569 -0.1510 -0.0146 -0.0938
28887W        W47741   5.795   8.994   3.407 -0.1218 -0.1047  0.0874
28888W        W47742  14.910  15.670  10.417  0.1134 -0.1242  0.1667
28889W        W47743   5.286  17.766   3.969 -0.3045  0.0624  0.2240
28890W        W47744  16.581   0.332  12.698 -0.0145 -0.1475 -0.1894
28891W        W47745   0.517  16.767  12.916 -0.0557 -0.1831 -0.1111
28892W        W47746   2.159  11.601   2.542  0.1544  0.1183  0.2142
28893W        W47747  10.119  11.458  12.655  0.2120 -0.2679 -0.3564
28894W        W47748  16.761  16.656  12.132 -0.0909 -0.1508  0.0593
28895W        W47749   5.802   3.959  10.904  0.1110  0.0052  0.2421
28896W        W47750  12.487   5.780   0.951  0.0771 -0.1399 -0.0855
28897W        W47751  10.528   3.242  12.718 -0.0260 -0.1285  0.2425
28898W        W47752  17.912   7.456  10.754 -0.1378  0.0833  0.1329
28899W        W47753  12.669   7.709   3.923  0.0357 -0.4287  0.3789
28900W        W47754   4.689  11.051  14.464 -0.1219 -0.0440  0.1133
28901W        W47755   2.947  15.464  11.051  0.0779  0.0687 -0.1602
28902W        W47756   2.531   5.130  13.232  0.1354  0.0894 -0.0269
28903W        W47757  15.864  15.958   2.075  0.0486  0.1243 -0.2089
28904W        W47758  14.814  18.979   4.656 -0.2941  0.2352 -0.5487
28905W        W47759  19.083   6.047   3.766 -0.1594 -0.0468 -0.2441
28906W        W47760  19.117   3.363  10.427  0.0743  0.2031 -0.1866
28907W        W47761   7.381  14.766  12.743  0.0042 -0.0865 -0.0576
28908W        W47762  14.631  17.739   2.918  0.0791  0.4901 -0.0866
28909W        W47763   9.881   9.932  13.764 -0.0243 -0.1270  0.0955
28910W        W47764  15.642   9.811  10.492 -0.0533  0.1514  0.1704
28911W        W47765  17.053   9.200  14.409 -0.2168  0.1456 -0.1054
28912W        W47766   8.355   8.075   1.451  0.1729 -0.0159  0.0432
28913W        W47767  18.171  10.869   0.126 -0.0857  0.0610  0.1802
28914W        W47768   9.537  11.090  12.793 -0.1997 -0.0007 -0.0047
28915W        W47769  10.781   5.648  13.686 -0.1313 -0.3086 -0.0004
28916W        W47770  16.699  11.175  12.750 -0.0017  0.0990  0.0280
28917W        W47771   6.092  11.965  10.651  0.2424 -0.0882  0.2766
28918W        W47772   8.336   9.290   1.635  0.0090  0.1387  0.0882
28919W        W47773  15.121  11.502   0.320  0.3252  0.3205  0.0979
28920W        W47774   6.996  12.942   2.206  0.2908  0.1578  0.4953
28921W        W47775   0.594   0.863   1.692  0.2390 -0.0905 -0.0436
28922W        W47776   7.437   6.981  13.102  0.1264 -0.0299  0.3134
28923W        W47777   9.485   3.138   2.305  0.1345 -0.2716 -0.0630
28924W        W47778  12.955   0.928  13.779 -0.1284  0.1519  0.2057
28925W        W47779  12.800   1.601   0.606 -0.1492 -0.1800  0.4351
28926W        W47780  13.735  18.053  13.204 -0.2163  0.0376 -0.1588
28927W        W47781   4.339  14.919   3.720  0.1743  0.0808 -0.2986
28928W        W47782   4.136   1.670  14.730 -0.1435  0.0332 -0.2566
28929W        W47783   5.400  12.774   1.527 -0.3224 -0.1470 -0.1404
28930W        W47784  13.451  15.905   9.631  0.4671  0.3089  0.0064
28931W        W47785  17.233  10.828  10.768  0.0004  0.1586 -0.1409
28932W        W47786  15.192   3.210   0.473  0.0631 -0.1808 -0.1718
28933W        W47787  12.768   1.246   0.252 -0.1936  0.2197  0.2658
28934W        W47788   3.945  10.683   1.605 -0.3735  0.0749  0.0447
28935W        W47789  12.446   5.582  13.065  0.2299  0.0812 -0.1301
28936W        W47790  10.976   6.420   3.437 -0.0715 -0.0851  0.3784
28937W        W47791   1.688  10.734   2.530  0.1728  0.2076 -0.0261
28938W        W47792  14.955   9.619  11.206 -0.0918  0.2596 -0.4306
28939W        W47793   4.068  18.670  13.530 -0.0491 -0.4843 -0.2804
28940W        W47794  12.684  14.753   1.363 -0.6278  0.1284  0.2203
28941W        W47795   6.726  18.823  14.102 -0.0192  0.0236 -0.2142
28942W        W47796  18.601  16.488  11.267  0.1324 -0.1532  0.0028
28943W        W47797   3.316  11.916  14.226 -0.0194  0.0134  0.5239
28944W        W47798  15.449   1.388   1.373  0.3198 -0.3248 -0.0650
28945W        W47799  15.213   4.189  14.489  0.1228 -0.1079 -0.0313
28946W        W47800  17.294  15.014  12.830 -0.1323  0.0789 -0.0209
28947W        W47801   4.570  10.530  12.552  0.1786  0.1145  0.0451
28948W        W47802  15.041  16.354   3.819  0.0986  0.0943 -0.0615
28949W        W47803  15.297  15.041  14.079  0.1584  0.1349  0.0425
28950W        W47804  10.046   0.541  11.224  0.0191  0.1941 -0.3422
28951W        W47805  11.412   8.369   3.126  0.0640 -0.3082  0.0194
28952W        W47806  12.908   1.319  13.473 -0.0828 -0.4003 -0.0892
28953W        W47807   1.631   1.076  13.198  0.2536  0.0972 -0.1938
28954ION     NA47808   6.044   0.570   0.720 -0.3254  0.0354 -0.0170
28955ION     NA47809  14.353   5.602   4.906 -0.0963 -0.0026  0.1128
28956ION     NA47810   8.061   0.324  13.769  0.2929 -0.1284  0.1582
28957ION     NA47811  14.653   7.488   9.478 -0.0942 -0.3365 -0.1325
28958ION     NA47812  17.674  18.540  14.525 -0.0730  0.0423  0.0298
28959ION     NA47813  12.353  18.155   4.578 -0.1132 -0.0197 -0.0659
28960ION     NA47814  11.493   0.225   9.734  0.1095 -0.0613  0.0505
28961ION     NA47815   5.934  11.070   9.531  0.2452 -0.1252 -0.2484
28962ION     NA47816   2.122  16.993  10.902  0.4781 -0.0094 -0.2021
28963ION     NA47817   4.556   5.709   5.235 -0.0341 -0.0125 -0.0033
28964ION     NA47818   2.632  16.000   5.322 -0.2642 -0.1587 -0.2105
28965ION     NA47819  13.273   2.342   5.376  0.0139 -0.2512  0.0153
28966ION     NA47820  18.597   4.367   9.707  0.0549  0.0155 -0.0478
28967ION     NA47821  10.742  17.069   9.919 -0.2525  0.0548 -0.2063
28968ION     NA47822  13.773   1.528   1.164  0.0141  0.1192 -0.1554
28969ION     NA47823  10.921   0.862  10.030  0.2012  0.0783  0.1482
28970ION     NA47824  15.172  15.372  10.131 -0.1255  0.1759  0.0881
28971ION     NA47825   4.559  14.031  14.480 -0.1079  0.0139  0.3015
28972ION     NA47826  14.690  18.272   4.304 -0.1188 -0.4209 -0.0185
28973ION     NA47827   0.570   4.398   9.990  0.1853  0.3595  0.1137
28974ION     NA47828   6.097   1.130   4.913  0.3418 -0.0602 -0.4141
28975ION     NA47829  10.669   9.396   9.446  0.3281 -0.1673 -0.1033
28976ION     NA47830  11.567   9.385   9.733  0.3031 -0.3480  0.1310
28977ION     NA47831   8.197  10.129   3.995 -0.0885 -0.1175 -0.3195
28978ION     NA47832  11.239   9.446  13.139 -0.0009 -0.1836  0.0073
28979ION     NA47833  18.668   7.051   4.903  0.0287 -0.1657 -0.3199
28980ION     NA47834  15.780   6.828   1.321  0.0428  0.2105  0.4600
28981ION     NA47835   6.714   5.156   5.288 -0.0062 -0.2109  0.2708
28982ION     NA47836   6.293   8.690   4.730  0.2185 -0.0113 -0.0982
28983ION     NA47837  15.951  13.783  13.526 -0.3813 -0.0770 -0.0345
28984ION     NA47838   5.706  14.306   3.294  0.2552 -0.2385  0.0925
28985ION     NA47839   3.627   2.930  11.906  0.1578  0.0586 -0.1569
28986ION     NA47840  11.593  13.514   0.387 -0.1552 -0.1754  0.0519
28987ION     NA47841   2.262  10.540   0.698  0.3551  0.0424  0.2069
28988ION     NA47842  10.884   4.348  10.592 -0.0390  0.1040  0.2270
28989ION     NA47843   6.795   6.990   9.593 -0.4334  0.4609  0.2781
28990ION     NA47844  11.696   4.218   3.427  0.1209 -0.1686  0.0944
28991ION     NA47845   2.746   9.268   0.952 -0.0779 -0.0302  0.1853
28992ION     NA47846   4.952  11.480   9.627 -0.1695 -0.1018 -0.0182
28993ION     NA47847   8.744  15.540   0.419 -0.0488  0.1537  0.0493
28994ION     NA47848  11.968   8.456   4.773  0.2337 -0.1204 -0.0664
28995ION     NA47849   5.485   8.894   2.489 -0.1384 -0.3763  0.0762
28996ION     NA47850  13.521  15.487   5.328 -0.2048  0.1156  0.0624
28997ION     NA47851   7.845  13.990   2.471  0.0910 -0.1927 -0.0103
28998ION     NA47852   2.171  11.922   2.158  0.2012  0.0293  0.0703
28999ION     NA47853   4.658  12.066  11.676  0.2037 -0.3976  0.1699
29000ION     NA47854   2.635   9.133   9.663 -0.0852  0.2964 -0.1429
29001ION     NA47855   4.923  13.700   5.170 -0.0239 -0.1361  0.2785
29002ION     NA47856   7.612   1.679  12.120  0.1263 -0.2946 -0.3661
29003ION     NA47857   8.793   8.460   4.614 -0.0436 -0.1486 -0.2366
29004ION     NA47858  13.699   4.013  12.277  0.1601 -0.3404 -0.0362
29005ION     NA47859   6.310  18.424   2.933 -0.0757 -0.4012 -0.1618
29006ION     NA47860   9.320   1.985  12.888 -0.0805 -0.4258  0.1656
29007ION     NA47861   8.824   3.129   4.520 -0.3567 -0.5112 -0.3794
29008ION     NA47862   3.694   0.464   9.578 -0.0013  0.1997 -0.0105
29009ION     NA47863  17.402   8.925  14.274  0.1670 -0.0311 -0.1325
29010ION     NA47864  13.146  17.497   0.517  0.0507  0.2220  0.0158
29011ION     NA47865  12.907  15.654  13.775  0.0898  0.1727  0.1544
29012ION     NA47866   5.655   9.011   9.416 -0.0878 -0.0193  0.0310
29013ION     NA47867   7.570  13.268   9.755  0.0107 -0.0145  0.0262
29014ION     NA47868  12.501   9.675   4.728  0.1856  0.1851  0.1373
29015ION     NA47869   3.455   5.731   9.882  0.0642  0.1973 -0.1558
29016ION     NA47870   1.959   5.271   4.727 -0.4641  0.3042  0.1758
29017ION     NA47871  18.153   3.556   9.390  0.1493 -0.0639  0.1085
29018ION     NA47872   2.253   7.090   5.198 -0.0562 -0.2414  0.1715
29019ION     NA47873   4.090  15.744   2.516  0.0607 -0.1750  0.0978
29020ION     NA47874  17.273  11.452  14.653  0.1235  0.0251  0.1445
29021ION     NA47875  13.254   6.312  14.024 -0.0021 -0.4245  0.2111
29022ION     NA47876   7.056   8.053  10.001 -0.3292 -0.1931 -0.0435
29023ION     NA47877   2.670  11.975   4.997  0.1917  0.0627  0.1155
29024ION     NA47878   7.558   5.641   0.334  0.0645  0.0477 -0.0588
29025ION     NA47879   9.381  17.264  14.410  0.0255 -0.2431  0.2475
29026ION     NA47880  17.539   3.999   4.811  0.2852 -0.0809 -0.0059
29027ION     NA47881  16.867  16.164  14.430 -0.0872  0.2941 -0.2791
29028ION     NA47882   0.210  16.772   9.895  0.2265  0.1701 -0.0309
29029ION     NA47883  16.278  18.303   5.040  0.0515 -0.1096 -0.3335
29030ION     NA47884  13.846   2.888   5.008 -0.2213 -0.2675  0.3597
29031ION     NA47885  11.413   2.065  12.474  0.5152  0.0095 -0.2177
29032ION     NA47886   5.720   2.735   0.868  0.0905  0.1254 -0.0093
29033ION     NA47887   2.823  13.028   5.004 -0.2337  0.0515 -0.1656
29034ION     NA47888   5.009  11.478   3.883 -0.0570  0.2070 -0.0627
29035ION     NA47889   0.200  11.284  13.538 -0.1746  0.0185 -0.1890
29036ION     NA47890   3.018   4.178   0.926  0.0789  0.0855  0.1610
29037ION     NA47891   8.281   5.603   4.836  0.0680 -0.1334  0.1714
29038ION     NA47892   8.423  15.455  14.248 -0.0420  0.1728  0.2186
29039ION     NA47893  15.773   5.520   5.460  0.2369  0.0862 -0.2979
29040ION     NA47894   1.179   0.678   9.813  0.0297 -0.1697  0.1130
29041ION     NA47895   8.705   3.357  10.184 -0.0391  0.0590  0.1183
29042ION     NA47896  11.241  11.062   4.823  0.1403 -0.1992  0.4075
29043ION     NA47897   0.077  18.519  10.069  0.1913 -0.0949  0.2970
29044ION     NA47898   6.666  14.850   9.997 -0.1864 -0.1550 -0.0037
29045ION     NA47899   3.943  17.810   9.993 -0.0933 -0.0047 -0.0002
29046ION     NA47900  17.171  17.374   4.537 -0.1048  0.2063  0.1516
29047ION     NA47901  19.006  14.935   5.221 -0.1008 -0.0673  0.3742
29048ION     NA47902  11.058   1.836   9.623 -0.0259 -0.0679  0.2120
29049ION     NA47903   8.479  14.702  10.334  0.3507  0.0314  0.1316
29050ION     NA47904  11.493  18.675   5.083 -0.2280  0.2902  0.1280
29051ION     NA47905   9.448   3.844   5.056 -0.1507  0.0109 -0.1382
29052ION     NA47906  11.133   7.087   9.403 -0.0444  0.0964  0.2825
29053ION     NA47907  16.674   3.585   9.553  0.2526 -0.2424 -0.1180
29054ION     NA47908  10.491  17.599   0.361 -0.0398 -0.0173  0.2261
29055ION     NA47909  15.384  12.737   9.805 -0.1175 -0.2164  0.4951
29056ION     NA47910   9.235   4.408   5.080 -0.1619  0.0672 -0.0852
29057ION     NA47911  15.184  16.591   2.754 -0.0134 -0.2403  0.0020
29058ION     NA47912  12.903   5.838   4.559 -0.0093 -0.1220  0.1349
29059ION     NA47913   0.563   2.881   1.216  0.1969  0.1170  0.2126
29060ION     NA47914   9.951   2.118   9.669 -0.2264 -0.1633 -0.1326
29061ION     NA47915   7.034   7.830  13.663  0.0003 -0.0487  0.1455
29062ION     NA47916  12.863  14.684   9.807 -0.0928  0.1529  0.0450
29063ION     NA47917   2.525   5.886   5.130  0.0037  0.3659  0.0524
29064ION     NA47918  14.289  15.079   5.124 -0.0802  0.2654  0.0867
29065ION     NA47919  15.364   2.020   5.075  0.1907 -0.0993 -0.2232
29066ION     NA47920  15.893  12.788   5.102  0.1065  0.0465  0.0055
29067ION     NA47921   1.675   8.137   9.648  0.4327 -0.2043 -0.0617
29068ION     NA47922   4.319   6.341  13.736  0.0129  0.3377  0.3021
29069ION     NA47923   1.924  14.922   5.194  0.2276  0.1134 -0.1396
29070ION     NA47924  14.130  14.888   9.656  0.3045 -0.0117 -0.0536
29071ION     NA47925  17.588   5.599   4.621 -0.0062 -0.0062  0.0438
29072ION     NA47926   7.633   8.552   4.716 -0.3130  0.2970 -0.2637
29073ION     NA47927   0.667  14.801   2.119  0.0227  0.0030  0.2936
29074ION     NA47928   2.272   8.694  14.396  0.4928  0.0697 -0.1860
29075ION     NA47929  14.695   3.170   9.902 -0.0277  0.3037 -0.1085
29076ION     NA47930  10.412  12.144   4.516 -0.3524 -0.0961 -0.1083
29077ION     NA47931   3.645  10.682   9.815  0.4194  0.2071  0.1593
29078ION     NA47932  18.492   9.618   5.010  0.0453  0.0585  0.0398
29079ION     NA47933   2.799  11.066   4.913 -0.0536 -0.3209 -0.1912
29080ION     NA47934  12.744  12.635  10.955 -0.1463 -0.1398 -0.1758
29081ION     NA47935   0.001   5.604   9.795  0.0529  0.1631  0.0513
29082ION     NA47936   5.734   2.111  14.423  0.0061  0.0328  0.0625
29083ION     NA47937  17.638   9.700   4.761 -0.1531 -0.1673 -0.2353
29084ION     NA47938  10.778  11.388   3.454 -0.1991 -0.0195 -0.0678
29085ION     NA47939   0.196   2.431  12.304  0.0594 -0.0724 -0.1931
29086ION     NA47940   1.046   2.825  11.790 -0.0757 -0.0606 -0.3598
29087ION     NA47941   6.485   6.317  10.074 -0.1530 -0.3069  0.0569
29088ION     NA47942  13.144   7.662   4.645  0.0218  0.5288  0.2062
29089ION     NA47943   9.566   6.133  11.172  0.2962 -0.2510  0.0824
29090ION     NA47944   7.910   4.634   3.018 -0.1608 -0.0290 -0.1696
29091ION     NA47945   9.469   2.690   9.859 -0.0616  0.2273  0.1416
29092ION     NA47946  10.352  11.331   4.948 -0.2894 -0.1497 -0.0394
29093ION     NA47947   0.733  13.593   5.295 -0.0280 -0.0063 -0.0499
29094ION     NA47948  12.699  13.238   4.966 -0.1415 -0.2306  0.0041
29095ION     NA47949   4.989  14.868   4.823 -0.0469 -0.0060  0.1291
29096ION     NA47950   0.452   8.663   9.978 -0.0568  0.0920 -0.3301
29097ION     NA47951  17.287   5.136   2.044 -0.0298 -0.3354 -0.0645
29098ION     NA47952  17.810  15.911   9.884  0.2201  0.2086  0.0026
29099ION     NA47953  19.163  17.695  14.384  0.1706  0.0233 -0.0863
29100ION     NA47954  15.652  14.276  10.760  0.0855 -0.1413  0.1474
29101ION     NA47955   8.489   5.131  12.569  0.1925  0.2598  0.0531
29102ION     NA47956  10.507   3.546   9.900  0.1985 -0.1542  0.0278
29103ION     NA47957   0.881  12.499   4.799 -0.0869 -0.0255  0.1390
29104ION     NA47958  16.859  18.321   9.983  0.0963  0.1680 -0.0730
29105ION     NA47959  12.697  18.322  13.218 -0.0819 -0.2531 -0.0904
29106ION     NA47960   8.615  14.054  11.898  0.0841 -0.1235 -0.3001
29107ION     NA47961  10.088  17.607   9.855 -0.3102 -0.0167 -0.2204
29108ION     NA47962  17.549   0.769   5.097 -0.0324 -0.2819 -0.0532
29109ION     NA47963  10.412   3.147   4.857 -0.0523 -0.1526  0.2679
29110ION     NA47964   5.637   8.524   1.538  0.1372  0.1206  0.1755
29111ION     NA47965   0.195  12.275  10.001  0.0729  0.2106 -0.0116
29112ION     NA47966  14.929   5.996   9.740 -0.0776 -0.0234 -0.0914
29113ION     NA47967   9.873  10.470   0.938  0.0118 -0.2500  0.0375
29114ION     NA47968  19.184  10.240   5.382  0.0905 -0.0264 -0.1938
29115ION     NA47969  18.901   3.251   4.763  0.1052  0.0208  0.0793
29116ION     NA47970   0.490   5.293  12.391 -0.1475  0.1053 -0.1782
29117ION     NA47971   7.665  11.015  13.475  0.0475 -0.1326  0.2379
29118ION     NA47972   3.366   5.349   5.235  0.1694  0.0326 -0.0352
29119ION     NA47973   9.835   3.021  10.065  0.0360 -0.1765  0.0967
29120ION     NA47974   5.398  15.466  10.445  0.1047  0.3136  0.2346
29121ION     NA47975  15.081   5.411   1.216  0.1593  0.2456 -0.4178
29122ION     NA47976   1.937   9.425   2.142  0.1329  0.2417  0.0978
29123ION     NA47977  12.790  11.057  14.331 -0.0615 -0.3173 -0.2976
29124ION     NA47978  16.064   1.782   9.874  0.1822 -0.1824  0.3972
29125ION     NA47979  15.449  12.164   1.112 -0.0015 -0.0998  0.2751
29126ION     NA47980  17.767  18.698   3.422  0.1093  0.2282 -0.1234
29127ION     NA47981  17.734  18.197   9.796 -0.2231 -0.0623  0.0855
29128ION     NA47982   8.980   2.830  10.738  0.4908 -0.2519 -0.0337
29129ION     NA47983  17.028  15.740   9.836 -0.2628 -0.3963 -0.0397
29130ION     NA47984  10.883  16.526   5.097 -0.0692  0.0676  0.1067
29131ION     NA47985  13.594   1.639   5.068  0.0160  0.0112 -0.1623
29132ION     NA47986   6.816   7.804   1.021 -0.0180  0.0599 -0.1977
29133ION     NA47987  17.953  18.214  10.309 -0.1794  0.0174 -0.0543
29134ION     NA47988   0.005   8.981   5.162 -0.2225  0.0104 -0.0260
29135ION     NA47989  18.049   1.248   0.094 -0.2802  0.0645 -0.1019
29136ION     NA47990   5.742  17.444   9.937 -0.0515  0.0739 -0.1789
29137ION     NA47991  12.531  10.775   1.658 -0.2886 -0.2247 -0.1282
29138ION     NA47992   2.419  14.760  14.386 -0.1393  0.0617 -0.1880
29139ION     NA47993  12.275   5.442   0.647  0.1442 -0.1918  0.2883
29140ION     NA47994  16.536   8.943   4.397 -0.4013  0.1350  0.0821
29141ION     NA47995  12.051   4.697   9.693 -0.1991  0.1403 -0.1116
29142ION     NA47996  10.835   7.571  11.730  0.0680  0.3438  0.0941
29143ION     NA47997   0.804  10.149   5.590  0.1326  0.0294 -0.0832
29144ION     NA47998   9.128   3.610  10.176 -0.0255 -0.1284  0.2162
29145ION     NA47999  12.782   3.407   9.655 -0.0173 -0.2417 -0.3665
29146ION     NA48000   8.878  12.262   4.843 -0.2056 -0.0192 -0.1591
29147ION     NA48001   3.232   7.634   0.809  0.2902  0.3027 -0.0916
29148ION     NA48002   4.142  12.051   1.730  0.0833 -0.0603 -0.1153
29149ION     NA48003   7.506   8.397  12.017  0.5118  0.0500  0.1907
29150ION     NA48004   5.553  16.009   5.495 -0.0612 -0.2652 -0.0905
29151ION     NA48005  18.603  18.280   3.644 -0.0592 -0.1748  0.0358
29152ION     NA48006  11.706  11.596   0.780 -0.3099 -0.3286 -0.0430
29153ION     NA48007   6.946  17.722   5.046  0.0954  0.1325  0.1206
29154ION     NA48008   2.454   9.741   9.633  0.2608  0.1619  0.1707
29155ION     NA48009   8.202   7.292   9.631 -0.1178  0.0634  0.2554
29156ION     NA48010  14.168  11.959   0.141 -0.0382 -0.1080  0.3944
29157ION     NA48011   6.794  10.191   2.889 -0.2542 -0.0158 -0.0638
29158ION     NA48012   3.241  18.777   4.803  0.1328 -0.2489 -0.0921
29159ION     NA48013   9.984   3.794   5.000  0.0087  0.1059  0.1092
29160ION     NA48014   1.842  11.763   5.325  0.0864  0.2291 -0.0888
29161ION     NA48015   8.587  16.473  10.234 -0.0565 -0.0116 -0.3956
29162ION     NA48016   9.074  18.388   4.955 -0.0874 -0.0004  0.1651
29163ION     NA48017   0.521   2.262   9.621 -0.1783  0.1859  0.0259
29164ION     NA48018   1.084   4.435   0.393  0.0589 -0.0747 -0.1229
29165ION     NA48019   6.305   4.831   3.502 -0.2882 -0.0520  0.3305
29166ION     NA48020   5.663   4.777   9.478 -0.0053  0.0843  0.1356
29167ION     NA48021   1.220   4.006   4.966  0.0621  0.3272  0.0878
29168ION     NA48022   6.536   0.003   9.567 -0.1541  0.0631  0.1267
29169ION     NA48023   3.899  18.845   9.982  0.0916  0.0358  0.2047
29170ION     NA48024  10.065   6.856   9.751  0.1663 -0.0241 -0.0004
29171ION     NA48025   5.428   9.684   1.137  0.0497  0.2160  0.0361
29172ION     NA48026   3.958  10.312  11.358  0.2194  0.2793 -0.1515
29173ION     NA48027   8.813   2.696   1.447  0.1052 -0.1141 -0.4407
29174ION     NA48028   4.213  16.233   5.167  0.0975  0.0563  0.0045
29175ION     NA48029   0.871   8.013  12.850  0.0842 -0.3954 -0.0571
29176ION     NA48030  11.193   4.847  12.588  0.1640  0.5191  0.0771
29177ION     NA48031   2.030  13.960   9.979  0.0343 -0.1178  0.3732
29178ION     NA48032   5.566  12.114   9.533  0.2211 -0.0445 -0.0806
29179ION     NA48033   0.818   4.946   9.982  0.0127  0.0321 -0.0905
29180ION     NA48034   0.966   8.989   5.043 -0.0770  0.2082 -0.1428
29181ION     NA48035  19.196   6.287   4.870 -0.0898  0.0146 -0.3410
29182ION     NA48036   2.345   0.346   9.911 -0.0187  0.0969  0.4174
29183ION     NA48037   6.681  13.406   9.792  0.1499  0.2306  0.0796
29184ION     NA48038   6.845  13.208  14.337  0.0982  0.0893  0.2419
29185ION     NA48039  16.544  14.793  14.570 -0.2195 -0.3225 -0.1008
29186ION     NA48040  14.357  10.301  10.163  0.1950 -0.1038 -0.2434
29187ION     NA48041  19.109   0.568   9.744  0.1084 -0.0392  0.1965
29188ION     NA48042  10.425   1.175   9.718  0.2442  0.2986 -0.2305
29189ION     NA48043  11.147   2.568   1.044 -0.0894  0.1576  0.1670
29190ION     NA48044   9.777   0.654   4.763 -0.1339  0.1348  0.1578
29191ION     NA48045  12.536  18.479   9.861  0.2150  0.3522 -0.0861
29192ION     NA48046   1.193  17.915   2.365  0.0455 -0.1633  0.3290
29193ION     NA48047   6.533  11.594   4.730  0.0123 -0.3276 -0.0747
29194ION     NA48048   4.360   2.160   1.679 -0.0715  0.1101 -0.1077
29195ION     NA48049  14.032  15.747  10.256  0.2761  0.3959 -0.1755
29196ION     NA48050   7.798  13.527   5.068 -0.2040  0.0927  0.4177
29197ION     NA48051  14.220  10.444   9.704 -0.2464 -0.2170  0.2990
29198ION     NA48052   0.089   4.167   4.890 -0.0951 -0.1104  0.0747
29199ION     NA48053   5.345  12.841   4.979  0.2299  0.1762 -0.3841
29200ION     NA48054  10.435  15.982  10.014 -0.1146 -0.0881 -0.2930
29201ION     NA48055  16.159   4.618   1.265 -0.0130 -0.1745  0.0710
29202ION     NA48056   7.751  13.003   4.994  0.1369  0.1639  0.1891
29203ION     NA48057  17.852  11.972  11.988 -0.1356 -0.1037 -0.0624
29204ION     NA48058   8.217  18.522   4.964 -0.1971  0.1165 -0.2561
29205ION     NA48059  16.850   4.008  14.052  0.1456 -0.1464 -0.0009
29206ION     NA48060   1.216  11.482   0.726 -0.1574  0.1284 -0.3996
29207ION     NA48061  14.538  14.667   9.765 -0.2123  0.1386 -0.0166
29208ION     NA48062   1.564   0.430   4.982 -0.0048 -0.1652  0.1735
29209ION     NA48063   4.571   0.642   2.076 -0.2012 -0.0492  0.0176
29210ION     NA48064   3.391   8.747  10.093 -0.0953  0.2613  0.2286
29211ION     NA48065   4.883   6.602   9.950 -0.1728  0.2085 -0.1012
29212ION     NA48066  15.920  12.094   5.071 -0.1441  0.2526  0.2011
29213ION     NA48067  14.557   1.073  10.406  0.1952 -0.0895  0.4631
29214ION     NA48068  12.927   2.224  10.012 -0.1218  0.0560 -0.3325
29215ION     NA48069   4.673   6.622   4.820 -0.2939  0.1727 -0.1220
29216ION     NA48070  16.682   8.154   9.319  0.1995 -0.1527 -0.1813
29217ION     NA48071  17.174  12.304  12.562  0.1555  0.3224 -0.0797
29218ION     NA48072   3.515  17.297   5.071  0.3773 -0.2346 -0.3490
29219ION     NA48073   9.199  11.189   9.236  0.1952 -0.1872 -0.3276
29220ION     NA48074   6.230  10.865   4.214 -0.3710  0.0051 -0.0653
29221ION     NA48075  15.946   0.911  10.069  0.3127  0.0863  0.3128
29222ION     NA48076   1.253   1.974   9.726  0.1523  0.1223 -0.1144
29223ION     NA48077  13.425   1.173  11.177  0.0011  0.2615  0.1143
29224ION     NA48078   1.137  14.578   5.253  0.1149 -0.1674 -0.2361
29225ION     NA48079   3.543  11.749   0.192  0.1721 -0.0983  0.3574
29226ION     NA48080   7.177   5.666  11.906 -0.0374 -0.0297  0.1784
29227ION     NA48081   3.746   4.730  10.004 -0.0763  0.0799  0.1385
29228ION     NA48082  10.108  15.446   1.850  0.0183  0.2457  0.0621
29229ION     NA48083  10.954   2.476   3.301 -0.0466  0.0456  0.0115
29230ION     NA48084   4.216   8.383   9.735 -0.0587  0.0540 -0.2188
29231ION     NA48085   9.605   1.501   5.097 -0.1847 -0.0557 -0.0502
29232ION     NA48086  13.911   9.353   0.606 -0.3126 -0.1378 -0.2848
29233ION     NA48087  17.852  13.732   5.138  0.1941 -0.0415  0.1162
29234ION     NA48088  17.694  12.254   2.880 -0.0004 -0.2450 -0.0885
29235ION     NA48089  17.567  19.078   5.137 -0.2358  0.4541  0.0067
29236ION     NA48090   8.368  12.171  14.612 -0.0256 -0.2705  0.0418
29237ION     NA48091   8.510  12.228   9.576 -0.0761 -0.2531  0.3617
29238ION     NA48092   0.027  13.790   9.945  0.0116  0.0080  0.0785
29239ION     NA48093   0.092   7.327   5.191  0.0934 -0.0789  0.0800
29240ION     NA48094  11.990   3.128   4.834 -0.1333  0.0523 -0.0223
29241ION     NA48095  10.216   0.103  11.514 -0.2013  0.1985  0.1696
29242ION     NA48096   2.379   0.100   4.789 -0.4772  0.0481  0.0782
29243ION     NA48097  16.500   3.363   4.489  0.1538 -0.0624  0.2013
29244ION     NA48098   1.934   5.373  13.337  0.1259  0.1549 -0.2529
29245ION     NA48099   5.548   7.326   9.668  0.2126  0.1093 -0.0766
29246ION     NA48100  15.306  16.668  10.137  0.3379 -0.3149  0.0753
29247ION     NA48101   4.551   9.921   4.849  0.0111  0.2744  0.0755
29248ION     NA48102  11.932  16.363   5.143  0.0433 -0.0259  0.1415
29249ION     NA48103   7.568   4.752   9.811  0.1290  0.0548  0.2275
29250ION     NA48104  12.615   5.202  10.065  0.4773 -0.0055  0.0095
29251ION     NA48105   2.833  15.255  10.047  0.2842 -0.2995 -0.1770
29252ION     NA48106   5.958   6.362  13.288  0.2344  0.0263  0.1032
29253ION     NA48107   1.710   0.886   9.610 -0.1812  0.4176 -0.1386
29254ION     NA48108  14.952   3.956  10.174  0.0865 -0.0768  0.0196
29255ION     NA48109  16.134  15.456   9.828  0.0971  0.0560 -0.4927
29256ION     NA48110   0.432   3.491   9.602  0.1819  0.0709  0.0705
29257ION     NA48111   0.602  11.246   1.602 -0.0837  0.1080 -0.3128
29258ION     NA48112  15.070   7.589  10.772 -0.2204  0.2193 -0.2414
29259ION     NA48113  15.154  10.647   4.881  0.1490 -0.0901  0.2296
29260ION     NA48114  11.394   2.991  10.922 -0.0146 -0.1073 -0.0527
29261ION     NA48115   7.484   9.174   9.500  0.0721  0.0083  0.0000
29262ION     NA48116   0.163  11.115   5.269 -0.1552  0.1723  0.0265
29263ION     NA48117   4.413   7.627   4.862 -0.0741 -0.0734  0.2179
29264ION     NA48118  15.823   8.603   3.328 -0.2484 -0.1152  0.2647
29265ION     NA48119  15.886   3.896  12.451 -0.3402  0.2574 -0.1155
29266ION     NA48120  18.430  16.406   9.876 -0.0594  0.0957 -0.2094
29267ION     NA48121  11.297   8.711   9.372 -0.0824 -0.1056  0.4215
29268ION     NA48122   7.272  10.052   9.527 -0.0326 -0.0302 -0.0658
29269ION     NA48123   2.704   5.764   1.616 -0.3299 -0.0062  0.1524
29270ION     NA48124   4.867  14.667   5.271 -0.1061 -0.1654 -0.2571
29271ION     NA48125   7.235  14.257   1.289 -0.0789 -0.1355  0.1459
29272ION     NA48126   1.178   5.786   4.614  0.2050 -0.3479 -0.0688
29273ION     NA48127   0.558   8.610   5.119 -0.0671  0.2042 -0.3551
29274ION     NA48128   3.775   9.531   4.978  0.0760  0.0058 -0.1337
29275ION     NA48129   5.784   7.674  12.929  0.0793 -0.3632 -0.2727
29276ION     NA48130   3.607  14.476   0.066 -0.1837 -0.1091 -0.2290
29277ION     NA48131  11.652   0.982  12.712  0.0707  0.0911  0.3037
29278ION     NA48132   9.147   1.477   9.620 -0.0155 -0.2312 -0.1881
29279ION     NA48133   8.911  14.423   4.943  0.1675 -0.1796  0.1461
29280ION     NA48134  15.571  12.831  13.844 -0.2034  0.0481 -0.1336
29281ION     NA48135  12.136   0.470   4.480 -0.1338  0.1091  0.0037
29282ION     NA48136   5.891   9.320   0.271  0.1721  0.2251  0.0240
29283ION     NA48137  13.263  11.952   4.787  0.3997  0.0947 -0.5358
29284ION     NA48138  11.456  12.751   0.125  0.0695  0.1848  0.0107
29285ION     NA48139  12.541  15.835   2.222 -0.3813  0.1130  0.2594
29286ION     NA48140   9.606   9.149   9.489  0.0115 -0.3971  0.1867
29287ION     NA48141   0.624   9.562   5.336 -0.1798  0.2495  0.2384
29288ION     NA48142  12.599  15.566   9.852 -0.0648 -0.1324 -0.0239
29289ION     NA48143   8.987   7.005   9.458 -0.2285 -0.2504 -0.1542
29290ION     NA48144   4.404   1.422   0.372  0.0777  0.0793  0.0055
29291ION     NA48145  16.610  13.409   5.274 -0.0409 -0.2672  0.0331
29292ION     NA48146   0.665  17.464   0.328  0.2279  0.0647 -0.4330
29293ION     NA48147   9.910   2.324   4.874 -0.0660 -0.1188 -0.0780
29294ION     NA48148  18.117  10.415   5.086 -0.1851  0.0279 -0.2504
29295ION     NA48149   0.614  19.142   9.783  0.4356 -0.0189  0.3841
29296ION     NA48150  10.895   1.120   5.035  0.0235 -0.0950  0.0185
29297ION     NA48151  15.266   5.876   0.421 -0.1249 -0.1409 -0.0752
29298ION     NA48152   7.043  19.093   3.131  0.0091 -0.3628  0.0527
29299ION     NA48153  12.983   6.325  12.463 -0.0559 -0.1092  0.1891
29300ION     NA48154   9.745  16.652   3.835  0.1005  0.1093  0.0968
29301ION     NA48155  10.538   7.653   4.752 -0.4311  0.1331  0.1883
29302ION     NA48156  10.356   8.676   9.385 -0.1608  0.0652 -0.0710
29303ION     NA48157  11.036   2.664   9.824  0.1459  0.0611 -0.0147
29304ION     NA48158   0.282  14.118   0.840  0.0874  0.2731 -0.2150
29305ION     NA48159   9.744  10.535   4.737 -0.0222  0.0763  0.5693
29306ION     NA48160  14.783   7.164   3.007 -0.1388  0.0567  0.2506
29307ION     NA48161   7.403  11.026   9.406 -0.0151  0.1585 -0.5969
29308ION     NA48162  18.552   2.440   1.769  0.2985 -0.1779  0.2355
29309ION     NA48163   4.410  17.352   5.063 -0.1155 -0.1921 -0.2793
29310ION     NA48164   9.907  16.782   5.052  0.0113  0.0976  0.1037
29311ION     NA48165   2.002   0.898   1.574 -0.2561  0.0075  0.3151
29312ION     NA48166  17.153  17.417   9.939 -0.3019 -0.1163 -0.2123
29313ION     NA48167  11.043   4.332   9.610 -0.0624 -0.0418  0.0895
29314ION     NA48168   0.882   4.847   4.931  0.0180  0.4359 -0.2926
29315ION     NA48169  18.109  10.862   5.273  0.0273  0.1913 -0.1960
29316ION     NA48170   4.980   9.143  10.538  0.0754 -0.2202 -0.3346
29317ION     NA48171   8.588   7.461   1.283 -0.0395 -0.1489 -0.0219
29318ION     NA48172   7.356  17.347   9.896  0.1982 -0.2007  0.0636
29319ION     NA48173   5.057  11.833   4.914 -0.0391  0.1116 -0.2899
29320ION     NA48174   5.412  10.293   4.790  0.2035  0.0702 -0.1670
29321ION     NA48175   3.799  10.502   5.031  0.0181  0.1091 -0.1727
29322ION     NA48176   7.704  10.086   4.121 -0.3340 -0.2901  0.0083
29323ION     NA48177   2.941   5.772  12.786 -0.0328  0.1087  0.0563
29324ION     NA48178  15.760   0.703   4.606  0.0279 -0.2621 -0.0612
29325ION     NA48179  15.237   0.054   5.102  0.1835  0.3088 -0.1358
29326ION     NA48180  10.559  12.384   5.047  0.0520  0.1272 -0.1380
29327ION     NA48181  10.448   9.981   0.634  0.2032 -0.0356 -0.0628
29328ION     NA48182   6.744   2.958   1.757 -0.2570 -0.0101 -0.1216
29329ION     NA48183   3.844   8.601  10.056 -0.2663  0.0890  0.0510
29330ION     NA48184  10.366   4.643   4.130 -0.3991  0.1623  0.0102
29331ION     NA48185   9.200  18.971   5.116  0.1919  0.1573  0.3086
29332ION     NA48186   3.274   5.044   3.437 -0.4144  0.1206 -0.0703
29333ION     NA48187  16.020   6.250  13.772  0.0739  0.3802 -0.2041
29334ION     NA48188  18.825   5.630  13.612 -0.1962  0.1749 -0.0138
29335ION     NA48189  14.528   6.461   4.907  0.1072 -0.1383  0.1617
29336ION     NA48190   4.802   1.713   5.271  0.4461  0.0510 -0.1429
29337ION     NA48191  16.089   1.579   4.939  0.1790  0.1162  0.4955
29338ION     NA48192  13.514   3.590   4.648  0.1761 -0.0419  0.5024
29339ION     NA48193   0.495   2.783   4.682  0.0681  0.1066  0.0515
29340ION     NA48194   1.580  13.509   3.183 -0.1080 -0.1787  0.4323
29341ION     NA48195   1.925  15.417   4.357  0.1534 -0.2371  0.4998
29342ION     NA48196  16.700   8.716   2.458  0.1649  0.3584 -0.3110
29343ION     NA48197   3.492  11.369   1.770 -0.1851 -0.0671  0.3852
29344ION     NA48198   4.359   6.816   1.976  0.2221  0.1135 -0.3523
29345ION     NA48199   3.082  13.873  10.077  0.3599  0.2581  0.0565
29346ION     NA48200   3.964   3.111  13.479  0.3100  0.0419 -0.2255
29347ION     NA48201  11.479  12.051   4.612 -0.2823  0.1671 -0.0058
29348ION     NA48202   2.520  17.145   9.900 -0.0531 -0.1376  0.5143
29349ION     NA48203   8.325  19.018   5.037 -0.0044  0.1899  0.1212
29350ION     NA48204   7.792   5.625   2.203  0.0580  0.2769 -0.0453
29351ION     NA48205  16.189   3.670  13.513  0.4593  0.0339  0.0999
29352ION     NA48206   2.236  10.563  10.623 -0.0997 -0.0302  0.1873
29353ION     NA48207   2.828  16.804   4.987 -0.1204 -0.4166 -0.0299
29354ION     NA48208  13.376  10.923  13.302  0.4592  0.2223 -0.1398
29355ION     NA48209   4.728   5.658   2.474 -0.1307 -0.3012 -0.0979
29356ION     NA48210   6.580  18.055   9.831  0.0695  0.0076 -0.0354
29357ION     NA48211   2.904   6.682   4.457  0.0491  0.3234  0.0031
29358ION     NA48212  15.374  18.354   5.121 -0.2089 -0.1399 -0.1208
29359ION     NA48213  18.024  16.159   4.922 -0.1716  0.1997  0.2310
29360ION     NA48214  18.914   7.234   2.889 -0.2037 -0.1012  0.2537
29361ION     NA48215  13.273   0.857  12.999 -0.0800  0.0286  0.1482
29362ION     NA48216  10.847   5.962  14.207  0.0907  0.0268  0.3671
29363ION     NA48217   7.660   3.451   9.855  0.1866 -0.0924  0.0092
29364ION     NA48218   3.163  14.848  10.130  0.3096 -0.1152 -0.0277
29365ION     NA48219   8.881   5.926   9.921 -0.2435 -0.2132  0.0371
29366ION     NA48220   8.365   4.650   4.684 -0.0175 -0.2445 -0.1394
29367ION     NA48221  14.460  13.865   5.054  0.1174 -0.2067  0.0379
29368ION     NA48222   2.077  15.173  14.390  0.2975  0.2598  0.1533
29369ION     NA48223  11.328  13.381   2.576 -0.0223  0.3126 -0.1758
29370ION     NA48224  16.015   4.647  10.882  0.0843  0.0087  0.3594
29371ION     NA48225   2.441  13.950   5.155 -0.1294  0.0475 -0.2166
29372ION     NA48226  18.254  12.706   5.451 -0.1717  0.1693 -0.0444
29373ION     NA48227  13.272   3.912  10.303  0.2316 -0.0287  0.0737
29374ION     NA48228  13.693   4.326  14.057  0.1264 -0.1688  0.3433
29375ION     NA48229  17.599   4.420   9.950 -0.3112 -0.1390  0.0413
29376ION     NA48230   1.604  17.039   2.079 -0.0539  0.0513 -0.1926
29377ION     NA48231  16.470  14.078  11.787 -0.2693  0.2352  0.1729
29378ION     NA48232  10.935  10.311   9.463  0.1074  0.1848  0.3035
29379ION     NA48233   1.058  14.956   9.923 -0.1266  0.0973 -0.1736
29380ION     NA48234   8.396   9.285   3.768  0.0705 -0.0092  0.2311
29381ION     NA48235   1.713  13.619  12.852 -0.0612  0.1525 -0.1526
29382ION     NA48236   2.338  12.317  10.067 -0.1366 -0.0939 -0.1027
29383ION     NA48237  15.201   8.872   4.751  0.0635 -0.1539  0.0026
29384ION     NA48238  11.232  17.813  12.099  0.1256 -0.0480  0.0034
29385ION     NA48239   0.095   0.226   5.010 -0.1587 -0.2326 -0.4109
29386ION     NA48240  14.121  11.900   5.028  0.1491 -0.2446 -0.1099
29387ION     NA48241   2.729  18.029   5.100 -0.1174 -0.2140 -0.0796
29388ION     NA48242  11.372   9.117  14.250 -0.2600  0.1656 -0.1208
29389ION     NA48243  18.765   5.973   9.772 -0.0494  0.1067 -0.0609
29390ION     NA48244  11.862  13.727   9.691  0.2699  0.1815 -0.1986
29391ION     NA48245  11.172  13.016   9.534 -0.1205 -0.2771 -0.1119
29392ION     NA48246   7.688   7.753  12.631 -0.1844  0.1833  0.2461
29393ION     NA48247  14.882   5.125   5.079 -0.0847  0.0356 -0.0230
29394ION     NA48248   2.171   3.517   0.216  0.0381  0.1004 -0.2655
29395ION     NA48249   6.096   4.483   5.294 -0.3362 -0.1635  0.0999
29396ION     NA48250  17.840   6.486   4.993 -0.0335  0.0085 -0.1252
29397ION     NA48251   7.505  11.582   4.703  0.3296  0.2216 -0.3592
29398ION     NA48252  17.126   7.270   0.926 -0.1686  0.0653 -0.0139
29399ION     NA48253   6.138   5.727   4.876 -0.1626 -0.1211 -0.3048
29400ION     NA48254   9.253  17.572   5.016 -0.0297  0.2355  0.0203
29401ION     NA48255  13.046  16.908   9.745 -0.0763 -0.0136 -0.0279
29402ION     NA48256  18.729   0.365  12.235 -0.1370  0.2390 -0.3733
29403ION     NA48257  17.098  16.652   2.510 -0.0338  0.1015 -0.2213
29404ION     NA48258  12.043   8.625  13.024  0.0073 -0.2819  0.2389
29405ION     NA48259  11.049   7.961   4.686  0.1776  0.1122 -0.3827
29406ION     NA48260   7.607  11.503   2.607  0.0716 -0.1226  0.0103
29407ION     NA48261  10.825   2.768   0.145  0.1919 -0.3751 -0.1656
29408ION     NA48262  14.827  15.867   2.016  0.0872  0.1556  0.3578
29409ION     NA48263   5.924  11.065  13.156  0.3906  0.0954 -0.1440
29410ION     NA48264   9.253   0.007  13.278  0.0389  0.0533 -0.2850
29411ION     NA48265   1.330  11.997  10.142 -0.1884  0.1154  0.1479
29412ION     NA48266  12.393   0.048  10.080  0.1416 -0.0321  0.2706
29413ION     NA48267   7.652   7.470   9.526  0.0698 -0.0481 -0.0024
29414ION     NA48268  10.827  18.422   0.218  0.0912  0.2130 -0.0080
29415ION     NA48269  16.624  18.348   1.588  0.1272  0.0195  0.1327
29416ION     NA48270  14.314  17.559   2.476  0.3622  0.1558 -0.0271
29417ION     NA48271  15.651  11.640  11.907  0.1442  0.4856 -0.0387
29418ION     NA48272   0.441   7.527   2.400  0.1479 -0.2149  0.1462
29419ION     NA48273  17.697   8.267  10.805  0.1939 -0.1472 -0.0802
29420ION     NA48274   2.900  18.745  10.165 -0.0004  0.2559  0.2895
29421ION     NA48275  16.925  14.233   2.700  0.1728  0.2454  0.2759
29422ION     NA48276  14.428  13.327   1.370  0.0726  0.0888 -0.0764
29423ION     NA48277   9.838  15.026   3.336  0.1253 -0.0443 -0.0267
29424ION     NA48278   1.344   2.802   9.796 -0.2410  0.1193  0.0458
29425ION     NA48279   4.744  16.874  10.292  0.2786 -0.0983  0.4904
29426ION     NA48280   4.936   3.986   5.062 -0.0756  0.0633  0.1326
29427ION     NA48281  15.712  15.787   3.679 -0.0460 -0.0995  0.0237
29428ION     NA48282   2.339   3.189   5.060  0.1820  0.3753 -0.1886
29429ION     NA48283   2.690   1.306   3.490 -0.0808 -0.0483 -0.0110
29430ION     NA48284  14.234   5.537   9.655 -0.2180  0.2823  0.0853
29431ION     NA48285  12.901  18.484   5.228 -0.0938  0.3262 -0.2125
29432ION     NA48286  17.740  18.883  12.393 -0.1927  0.1883 -0.2687
29433ION     NA48287  14.520  10.997  11.209  0.1402 -0.1743 -0.0581
29434ION     NA48288   8.681   9.396  14.634  0.0586  0.3567 -0.0956
29435ION     NA48289   3.225   0.685   9.646 -0.0910  0.0236 -0.0662
29436ION     NA48290  10.551   4.207   1.879 -0.1260 -0.3250  0.0971
29437ION     NA48291  18.487  12.745  12.834  0.2085 -0.1173 -0.0670
29438ION     NA48292  17.934   7.784   0.384  0.2210 -0.4580 -0.1884
29439ION     NA48293   3.200  14.000   2.943 -0.0375  0.2906 -0.2921
29440ION     NA48294  18.336  13.032   1.042  0.1061 -0.0725  0.2704
29441ION     NA48295  18.134   4.528  14.045 -0.2034 -0.2674  0.2661
29442ION     NA48296   3.880  11.000   0.080  0.0087 -0.0858  0.1674
29443ION     NA48297  16.747   4.728   9.466 -0.1341 -0.3673  0.2575
29444ION     NA48298   8.002  16.861   1.674 -0.1301  0.0065  0.0242
29445ION     NA48299  11.046  10.037   4.829 -0.0378 -0.0271  0.0333
29446ION     NA48300   2.694   1.300  14.326 -0.1986  0.1710 -0.0129
29447ION     NA48301  12.772  16.787   5.440 -0.1544  0.0349  0.2335
29448ION     NA48302   1.272   0.863   4.207  0.1758  0.0209  0.0372
29449ION     NA48303  16.896  11.861   5.156  0.0394  0.1477 -0.1663
29450ION     NA48304   8.208   6.928   2.283  0.0204 -0.0691  0.0742
29451ION     NA48305  11.129   6.943   4.674  0.0184 -0.1038 -0.1317
29452ION     NA48306   9.882   5.111   0.538  0.2407  0.1169  0.0262
29453ION     NA48307   6.808   4.403  12.417  0.2050  0.1588 -0.1182
29454ION     NA48308  12.870  13.638   9.663  0.1582 -0.3943 -0.2765
29455ION     NA48309   0.674  14.528  11.628 -0.3686 -0.1450 -0.0914
29456ION     NA48310   2.679   4.901   5.198 -0.0553 -0.0300 -0.1771
29457ION     NA48311  14.007   8.498  12.407  0.1835 -0.1742  0.2784
29458ION     NA48312   7.606  12.780  14.564  0.1198 -0.0031 -0.2374
29459ION     NA48313   4.204  17.199  11.810 -0.2399 -0.1662  0.0688
29460ION     NA48314  17.631   9.662   0.588 -0.2363 -0.0539 -0.0359
29461ION     NA48315  16.887  18.354   5.400  0.0609 -0.0005  0.1062
29462ION     NA48316   1.664  18.789   5.183 -0.1387 -0.0077  0.0597
29463ION     NA48317   8.495  11.182   5.037 -0.2344 -0.3820  0.2935
29464ION     NA48318  18.332   1.006   3.037  0.1299 -0.2024  0.2291
29465ION     NA48319   1.899  10.313   0.979 -0.1255  0.1151 -0.0534
29466ION     NA48320   0.959   3.825   2.402  0.0222  0.0815 -0.1059
29467ION     NA48321  15.852  18.377  10.063  0.2503 -0.2917 -0.0329
29468ION     NA48322   4.921   1.851   2.275 -0.1189 -0.2028 -0.2584
29469ION     NA48323  15.263  15.846  13.455 -0.1988 -0.0682  0.2133
29470ION     NA48324  16.361  10.255   4.712 -0.0033  0.1423  0.4025
29471ION     NA48325   0.946   6.652   4.526 -0.0118 -0.1278  0.0032
29472ION     NA48326   9.077   9.243   2.258 -0.3093 -0.0292  0.2727
29473ION     NA48327  11.734  15.212   3.331 -0.0003 -0.1605 -0.3276
29474ION     NA48328  10.781   8.427  13.820 -0.1596 -0.1847 -0.2739
29475ION     NA48329  12.984   6.945   9.396 -0.1321  0.1218 -0.2883
29476ION     NA48330  18.833   2.786   9.748  0.3173 -0.0216 -0.2130
29477ION     NA48331  15.830  11.420  10.177  0.1943 -0.1910  0.2721
29478ION     NA48332  11.718  15.946   9.908  0.2828 -0.0728 -0.0603
29479ION     NA48333   3.865  13.348  13.020  0.2789 -0.0900 -0.0834
29480ION     NA48334   9.765  15.073  10.983 -0.2787  0.0138 -0.0468
29481ION     NA48335  13.389  15.381   9.538 -0.2665 -0.3421 -0.0600
29482ION     NA48336  13.948   3.815   4.667 -0.1290 -0.2841 -0.0478
29483ION     NA48337  11.715   7.230   9.312  0.1021  0.4563  0.0774
29484ION     NA48338  15.861  18.018  12.838  0.1001  0.1956  0.1398
29485ION     NA48339  11.973  18.146  11.602  0.0406  0.0580 -0.1584
29486ION     NA48340   2.403   5.733  13.483 -0.0797  0.1271 -0.0409
29487ION     NA48341   8.746  15.366   4.162  0.1937 -0.0145 -0.0031
29488ION     NA48342   0.687  12.979  10.421 -0.1340  0.2773 -0.0321
29489ION     NA48343  17.483   8.899  10.070 -0.1236  0.2807  0.1017
29490ION     NA48344  14.578   9.969   4.771 -0.2160  0.1265  0.0230
29491ION     NA48345   1.484   6.884  12.491  0.1852 -0.0679  0.0737
29492ION     NA48346  17.169  18.677  11.144 -0.1348  0.4393  0.0915
29493ION     NA48347   3.609   4.114   9.638  0.0798 -0.0267 -0.2330
29494ION     NA48348  16.792  16.258  10.714 -0.2275  0.0642 -0.0804
29495ION     NA48349  18.849  12.985  10.167  0.1217 -0.2231  0.0365
29496ION     NA48350  18.374   3.890   5.011  0.2662  0.1179 -0.1789
29497ION     NA48351   2.284   3.376  13.992  0.1006  0.1069  0.1186
29498ION     NA48352   8.744  13.561  13.530  0.2669 -0.0769  0.4692
29499ION     NA48353  16.565  12.039   9.758  0.1382 -0.0939 -0.1271
29500ION     NA48354   5.623  17.835  13.745 -0.2014 -0.0898  0.1925
29501ION     NA48355   9.489   8.920   0.201 -0.1681 -0.1461 -0.0186
29502ION     NA48356  13.010  13.346  14.309  0.2506 -0.0077 -0.1397
29503ION     NA48357  15.421  12.829  12.308 -0.1932 -0.2567 -0.1496
29504ION     NA48358   0.044  16.181  11.991  0.2360 -0.0500  0.0728
29505ION     NA48359   2.643  11.436  11.685  0.0211  0.0368  0.0819
29506ION     NA48360  15.155   6.051   5.242 -0.0241  0.0493 -0.0592
29507ION     NA48361  18.815   4.268   0.435  0.0078 -0.0594 -0.4969
29508ION     NA48362  10.033   0.757   0.321  0.1419 -0.0569  0.0172
29509ION     NA48363   8.188   2.545  13.614  0.1707  0.0749 -0.2384
29510ION     NA48364  10.857   6.273   4.891  0.0288 -0.1834  0.2152
29511ION     NA48365   8.307  13.866   9.851 -0.1742 -0.0674  0.1355
29512ION     NA48366   3.373   0.848   4.818 -0.3553 -0.3628  0.2327
29513ION     NA48367   5.836  16.902   5.166  0.1041 -0.5381 -0.2808
29514ION     NA48368   9.047   2.404   9.932  0.0629  0.0657 -0.0804
29515ION     NA48369  10.515  13.205   5.132 -0.3329 -0.2552 -0.0017
29516ION     NA48370   4.898  13.538  12.715 -0.1520  0.0235 -0.0415
29517ION     NA48371  10.430  11.165   1.293 -0.2755  0.0225  0.1623
29518ION     NA48372  14.675  15.840   4.900  0.0388 -0.0412  0.1528
29519ION     NA48373  10.218   3.930  10.064 -0.0298  0.0941 -0.0444
29520ION     NA48374  18.015  14.551   5.277  0.2338  0.0167  0.2163
29521ION     NA48375   6.467  16.816   9.867  0.1523  0.2015 -0.0596
29522ION     NA48376   4.968   3.797   9.790 -0.2119 -0.1902 -0.1463
29523ION     NA48377  12.466  10.186   9.284  0.1448 -0.0612  0.1328
29524ION     NA48378   6.685  17.825  13.788  0.2534  0.1225  0.3191
29525ION     NA48379   6.526   6.760   4.822  0.1720 -0.0198 -0.1404
29526ION     NA48380  12.966   1.828  14.384  0.3245 -0.2772  0.1282
29527ION     NA48381   9.296   5.262   4.792  0.0957 -0.4494  0.0752
29528ION     NA48382  10.059   4.681   5.003  0.0785 -0.0721 -0.0276
29529ION     NA48383  13.985   0.979   4.602 -0.2000  0.2388 -0.0233
29530ION     NA48384  13.453   8.910  14.158  0.0275  0.0969  0.1106
29531ION     NA48385   8.841   7.176   3.457 -0.1394 -0.0266 -0.2538
29532ION     NA48386  13.669  14.213   9.715 -0.2303 -0.4172  0.1219
29533ION     NA48387  14.510   0.472   2.281 -0.2477 -0.2669 -0.0353
29534ION     NA48388  19.157  15.963   1.659 -0.1364  0.1700 -0.1309
29535ION     NA48389   7.002  16.858   1.904  0.0044 -0.0695  0.2109
29536ION     NA48390  14.132  12.949   5.147  0.1354  0.2724 -0.1580
29537ION     NA48391  15.253   7.557   4.966 -0.2538  0.0471  0.3415
29538ION     NA48392  13.049   7.455  11.766  0.0511  0.0992  0.1913
29539ION     NA48393  16.831   1.556  10.091 -0.1896 -0.0408 -0.0284
29540ION     NA48394  15.996  19.118   0.369  0.4379 -0.2084  0.0150
29541ION     NA48395   1.797  15.659  11.963 -0.0540  0.3111  0.2363
29542ION     NA48396   1.094  10.167   1.023  0.1143  0.0347  0.0034
29543ION     NA48397  15.729  11.269   4.871  0.1293 -0.0802 -0.2319
29544ION     NA48398  19.085  16.904   4.992 -0.1392  0.0792 -0.0851
29545ION     NA48399  18.905   9.772   9.842  0.1470  0.0846  0.0982
29546ION     NA48400   2.614  16.061   1.916 -0.0216 -0.3717  0.1976
29547ION     NA48401   4.806   9.448  14.037  0.0198  0.1200 -0.0765
29548ION     NA48402  17.114   2.188   9.924  0.3623  0.0400 -0.0654
29549ION     NA48403  16.572   0.692   5.304 -0.2661 -0.0404  0.1722
29550ION     NA48404   8.923   1.976  14.203 -0.1864 -0.1155  0.0401
29551ION     NA48405  15.203   0.264  12.058 -0.1610 -0.2331 -0.0508
29552ION     NA48406  13.318   0.803   5.100  0.4625  0.6119 -0.0487
29553ION     NA48407  18.815  16.714  12.479 -0.0869  0.1382  0.2067
29554ION     NA48408  13.433  17.309   2.685  0.2314  0.0881  0.0041
29555ION     NA48409   6.882  15.752   9.969  0.0513 -0.0201  0.0554
29556ION     NA48410   8.325  15.640  12.358 -0.1172  0.0644  0.4107
29557ION     NA48411   2.633  18.131   0.344  0.0908 -0.3025 -0.1174
29558ION     NA48412  19.157  11.793  11.484 -0.2790 -0.0273  0.0124
29559ION     NA48413  16.822   7.157   9.501 -0.0658  0.2543 -0.1708
29560ION     NA48414   0.470  12.183   5.527 -0.0933 -0.0468 -0.0790
29561ION     NA48415  18.043   1.476  10.777 -0.4219 -0.1055 -0.0953
29562ION     NA48416   4.146  14.677   9.955  0.1658 -0.1268  0.0087
29563ION     NA48417  16.646   5.532   5.165 -0.1729 -0.2788  0.3092
29564ION     NA48418   9.563  15.875  10.162 -0.1289 -0.1098 -0.3782
29565ION     NA48419  18.351  15.096  10.052 -0.0680 -0.1333 -0.4608
29566ION     NA48420  11.637  13.042   3.952 -0.0675 -0.0047  0.0694
29567ION     NA48421   8.160  17.809  10.035  0.2553 -0.1073 -0.1611
29568ION     NA48422   1.919   3.917  13.453  0.4755 -0.1854 -0.2647
29569ION     NA48423  18.974  14.052   5.360  0.0967  0.1872 -0.0695
29570ION     NA48424   1.808  18.069   4.738 -0.0512 -0.0840 -0.0586
29571ION     NA48425  16.184   8.824   1.396 -0.2727 -0.2390  0.1234
29572ION     NA48426  11.348   5.667   4.471 -0.3315 -0.1166 -0.2817
29573ION     NA48427   3.662   1.068  10.362  0.1143 -0.2241  0.0611
29574ION     NA48428  17.395  12.697   9.851  0.1782  0.2296 -0.1850
29575ION     NA48429  18.183   8.211   9.852  0.2316 -0.2102 -0.2340
29576ION     NA48430  10.005   5.556   9.886  0.1918  0.0799 -0.3101
29577ION     NA48431   5.140  10.184   2.541 -0.1421  0.1243 -0.1568
29578ION     NA48432   6.058  14.609  14.536 -0.4408  0.0948 -0.1187
29579ION     NA48433   5.155   4.451   1.440  0.0408 -0.0377  0.2523
29580ION     NA48434  18.040   8.766   4.699 -0.1969  0.2338 -0.1686
29581ION     NA48435  17.196   7.420   4.398  0.2614 -0.3841 -0.3201
29582ION     NA48436  10.904  17.938  10.100 -0.1301  0.0949 -0.1333
29583ION     NA48437  18.614  18.379   5.344 -0.1335 -0.1024  0.2387
29584ION     NA48438  11.432   5.190   9.735 -0.0113  0.2805  0.1565
29585ION     NA48439  14.193  18.612   1.152 -0.0601 -0.0394 -0.1746
29586ION     NA48440  16.156   3.413   9.815  0.0453 -0.0430 -0.2731
29587ION     NA48441   5.527   7.430   4.695  0.3280 -0.0723  0.1318
29588ION     NA48442  10.778   8.297  12.635 -0.0866 -0.0439 -0.1084
29589ION     NA48443   0.399   3.702   4.950  0.1287  0.2357  0.0307
29590ION     NA48444   2.392   1.204   9.784 -0.0319 -0.0412 -0.2839
29591ION     NA48445   2.451   2.182  10.078 -0.1871  0.0041 -0.0874
29592ION     NA48446   0.362  13.913  14.551 -0.0534 -0.0290  0.2339
29593ION     NA48447  14.459   5.960  13.592 -0.0406 -0.2634 -0.0114
29594ION     NA48448   0.130  10.515   9.971 -0.1024 -0.1910 -0.1852
29595ION     NA48449  14.191   2.449  11.319 -0.0613  0.0610 -0.0932
29596ION     NA48450  11.087  11.251   9.757  0.0683  0.0349  0.0547
29597ION     NA48451  11.445   1.628  14.342  0.0301 -0.0674 -0.2476
29598ION     NA48452   2.406   7.683   5.016  0.0159  0.1007  0.2970
29599ION     NA48453  11.944   6.507   9.513 -0.1512  0.2941 -0.0237
29600ION     NA48454  11.804   3.838   9.497  0.4142  0.0504 -0.0217
29601ION     NA48455  16.663  11.618   4.768  0.2267  0.2330  0.1819
29602ION     NA48456   1.437   8.237   4.960  0.1104 -0.2004  0.1730
29603ION     NA48457  17.559  15.295  13.773  0.0337 -0.1426  0.1472
29604ION     NA48458  11.580   6.189   9.687 -0.1135  0.0946 -0.0650
29605ION     NA48459  16.139   2.530   4.954  0.2687 -0.1038 -0.0458
29606ION     NA48460  14.111  17.167   9.922 -0.0845  0.1416  0.0342
29607ION     NA48461  18.167   5.089   9.890 -0.2449  0.0158 -0.3297
29608ION     NA48462   1.462   0.012  13.425 -0.0152 -0.1616  0.1993
29609ION     NA48463  15.249   4.722   5.033 -0.1116 -0.2000  0.2237
29610ION     NA48464   5.902   5.820  14.200  0.0806  0.0515  0.0568
29611ION     NA48465   5.880  13.845   9.751  0.5339  0.1288 -0.5502
29612ION     NA48466  16.980  13.402   9.810  0.2862 -0.2780 -0.1295
29613ION     NA48467   9.121  18.044   9.816 -0.2526  0.0361 -0.1183
29614ION     NA48468   5.953  18.616   5.041  0.0268  0.0462 -0.0508
29615ION     NA48469  16.946   9.643   4.502  0.3778 -0.1039 -0.0326
29616ION     NA48470   5.886  17.931   5.203  0.0503  0.1436 -0.0077
29617ION     NA48471  13.719  10.252   4.748 -0.0139  0.2786  0.1106
29618ION     NA48472   9.357  12.064   9.724 -0.1575 -0.2676 -0.2260
29619ION     NA48473   3.804  14.632   5.322  0.3823  0.1358  0.2641
29620ION     NA48474   9.973   2.025  14.201  0.3529  0.0149 -0.0863
29621ION     NA48475  16.218  16.416   9.913 -0.0006 -0.0606  0.1965
29622ION     NA48476  10.930  18.447   4.226  0.1155 -0.1621 -0.2728
29623ION     NA48477  11.374   1.666   4.889  0.0368  0.0722 -0.1368
29624ION     NA48478   6.297   2.853   5.025 -0.0651  0.3486 -0.1770
29625ION     NA48479  14.827   2.716  11.923  0.2432 -0.0153  0.0237
29626ION     NA48480  15.867   4.034   4.727  0.1912  0.1070  0.1024
29627ION     NA48481  16.131  12.329   9.750 -0.0143  0.3713  0.3390
29628ION     NA48482  11.421  17.705   0.058 -0.1060  0.0601  0.0622
29629ION     NA48483   0.909   7.317   5.159 -0.0441  0.0986  0.1503
29630ION     NA48484   5.040   3.924  14.663 -0.2336 -0.0571 -0.3207
29631ION     NA48485  15.340  17.137   4.390  0.1010 -0.1476 -0.1650
29632ION     NA48486  15.849   4.266   9.630 -0.0100  0.0598 -0.1810
29633ION     NA48487   7.201  12.299   4.880 -0.1405  0.0125 -0.2215
29634ION     NA48488   5.480   8.572   4.922 -0.2010  0.1570  0.3635
29635ION     NA48489  13.184  18.497  11.857 -0.0172 -0.3336  0.0651
29636ION     NA48490   7.494   9.212   3.221 -0.2063 -0.1326 -0.5004
29637ION     NA48491   2.605  17.812  12.848 -0.1082 -0.1502 -0.1802
29638ION     NA48492  12.583   4.106   4.787  0.2371  0.2447  0.0953
29639ION     NA48493   3.836  14.431  13.539  0.0311 -0.0173  0.2202
29640ION     NA48494   9.276  13.903  12.878 -0.4155  0.1043 -0.1340
29641ION     NA48495  19.005   5.105   9.906 -0.0475 -0.1534 -0.1601
29642ION     NA48496  12.034   7.049  14.236  0.2997  0.0573  0.0732
29643ION     NA48497  12.284   6.978   4.715 -0.2548 -0.1728 -0.1019
29644ION     NA48498   7.482  15.057  11.312  0.2027 -0.0167  0.1665
29645ION     NA48499  18.611   3.314  12.328 -0.3582  0.1403  0.0134
29646ION     NA48500   5.164   0.464  11.610 -0.2040 -0.2004  0.2780
29647ION     NA48501  18.954   3.522   9.583  0.0160 -0.0665  0.0547
29648ION     NA48502  15.170   1.934   0.826 -0.1833 -0.1773 -0.0282
29649ION     NA48503   1.518  15.701   9.823 -0.3493  0.0862 -0.0509
29650ION     NA48504  12.347   4.308  11.447 -0.1216  0.0018  0.1414
29651ION     NA48505   9.276   7.577   4.804 -0.0247 -0.0342  0.0569
29652ION     NA48506   3.470   4.349   5.182  0.2517  0.1093  0.3284
29653ION     NA48507   8.737   0.359  13.228 -0.0939 -0.0136  0.0230
29654ION     NA48508  16.573  12.542   5.370  0.0824  0.0718 -0.1551
29655ION     NA48509  17.888  11.391  10.291  0.1663  0.0363 -0.0034
29656ION     NA48510  11.019  16.621   9.849 -0.0366 -0.1628  0.0448
29657ION     NA48511  10.194  17.515   2.679 -0.1219  0.0007 -0.0181
29658ION     NA48512  12.770   3.562  11.014  0.3997  0.5829  0.0298
29659ION     NA48513   4.181   6.093   1.404  0.2218 -0.0612  0.0607
29660ION     NA48514   5.200  11.738  13.043  0.1666 -0.0285  0.0665
29661ION     NA48515   4.114   1.351   5.239  0.1971 -0.1406 -0.1423
29662ION     NA48516  18.698   2.521   3.012 -0.1313 -0.3885 -0.0978
29663ION     NA48517  13.774  18.890  10.041 -0.1585  0.0516  0.0153
29664ION     NA48518   7.419  16.657  12.631 -0.3771  0.1255  0.0440
29665ION     NA48519   4.016   9.747  12.414  0.1216  0.4310 -0.1542
29666ION     NA48520  17.094  10.825   4.477 -0.1828 -0.1956 -0.2140
29667ION     NA48521  16.227   7.417   9.352  0.1022 -0.2735 -0.2637
29668ION     NA48522  15.253   8.313   9.530 -0.2222 -0.1295 -0.1051
29669ION     NA48523  14.082   6.898   9.354 -0.0376 -0.0526 -0.4275
29670ION     NA48524   9.210  13.347  10.462  0.2203 -0.3282 -0.0983
29671ION     NA48525   5.151  14.171   1.415 -0.3011 -0.1462 -0.0859
29672ION     NA48526  17.937  16.295   0.550 -0.1176 -0.1003  0.1927
29673ION     NA48527   4.619   9.179   9.673 -0.1201  0.0943  0.0353
29674ION     NA48528  13.245   0.349  10.316 -0.0575  0.3741  0.0456
29675ION     NA48529   0.203  12.091   1.105 -0.4553  0.0109 -0.1205
29676ION     NA48530  17.898   9.789  13.327 -0.2338  0.1716 -0.0619
29677ION     NA48531  13.363  12.882   9.514 -0.0600  0.0672  0.0636
29678ION     NA48532   8.296   9.720  12.300 -0.1202  0.0166  0.0821
29679ION     NA48533   2.360  18.375   5.091 -0.0913 -0.2277  0.1372
29680ION     NA48534  19.077   5.717  13.126 -0.2784  0.3379  0.3893
29681ION     NA48535   8.077   2.387   9.844 -0.1705  0.0481  0.0267
29682ION     NA48536   5.070   3.163   4.912 -0.0608  0.3412 -0.3649
29683ION     NA48537   8.788  17.228  13.737 -0.3293  0.2869 -0.1919
29684ION     NA48538  16.174   8.878   9.800 -0.0116 -0.1752  0.3350
29685ION     NA48539   7.664   8.085   3.204 -0.0525 -0.3952  0.1937
29686ION     NA48540  12.300  18.389   5.555 -0.0137 -0.3166  0.1360
29687ION     NA48541   4.483   0.286   9.943 -0.3125  0.0688  0.2159
29688ION     NA48542   1.826  17.660  10.016 -0.3755  0.0299 -0.4046
29689ION     NA48543  14.012  17.870  12.777 -0.3504  0.0205  0.1324
29690ION     NA48544  17.981  10.698  14.444 -0.0120  0.0938 -0.0219
29691ION     NA48545   4.303   7.344   1.000  0.0907 -0.2773  0.1908
29692ION     NA48546   1.005  18.064  11.635  0.2787  0.1189 -0.1774
29693ION     NA48547   9.402   7.562  12.995  0.3051  0.0952  0.0694
29694ION     NA48548   5.729  18.276   9.877  0.2381  0.0066 -0.4061
29695ION     NA48549  13.409   9.403   4.493  0.0229 -0.1392 -0.0379
29696ION     NA48550   1.062  18.744  14.044  0.2832  0.0955 -0.2214
29697ION     NA48551  11.103   4.515   4.882  0.1333 -0.3492 -0.0522
29698ION     NA48552   2.168   9.672  12.620  0.5037 -0.0018 -0.3061
29699ION     NA48553   1.030   8.021  14.594  0.0235  0.0495  0.0842
29700ION     NA48554   4.088  13.617   4.856 -0.0865 -0.0972  0.1239
29701ION     NA48555  17.878   9.907   1.271 -0.0152  0.0423 -0.0741
29702ION     NA48556  16.452  14.128   0.977  0.4154  0.0195 -0.2608
29703ION     NA48557   6.730  11.530   9.633 -0.2351  0.2041  0.0661
29704ION     NA48558   1.347   4.194   9.950  0.1804  0.1685 -0.1186
29705ION     NA48559  15.630   9.396   0.331 -0.0149  0.2811  0.2322
29706ION     NA48560  15.665   0.909   5.272  0.0845 -0.4448  0.2779
29707ION     NA48561  16.964   5.709  12.072 -0.1173  0.0541 -0.1939
29708ION     NA48562  15.713  17.547   5.117  0.2020 -0.0772 -0.1178
29709ION     NA48563   4.599  13.135   9.932 -0.3518  0.2234  0.0601
29710ION     NA48564   3.417   7.684   5.079  0.2190 -0.0556  0.2475
29711ION     NA48565  15.708   2.537  10.202  0.1203  0.1261 -0.0703
29712ION     NA48566  15.751   4.292  11.826  0.3024 -0.1524 -0.0107
29713ION     NA48567   5.119   5.677   9.652  0.0906 -0.2508  0.0952
29714ION     NA48568  10.629   5.069   0.390  0.3012  0.1684  0.4344
29715ION     NA48569   9.646  16.632  11.436  0.0778  0.1993  0.1973
29716ION     NA48570  13.168   6.949   4.866 -0.1988 -0.1264 -0.0076
29717ION     NA48571  16.438  12.666   2.039 -0.1658  0.3485  0.0722
29718ION     NA48572   3.464  15.820   4.750 -0.1912  0.2582  0.1414
29719ION     NA48573  12.651   1.582   5.043 -0.2417 -0.0355  0.1522
29720ION     NA48574   3.067   2.607   9.815 -0.0224 -0.0802 -0.2228
29721ION     NA48575  11.615  18.553  10.097  0.3354  0.0652 -0.0421
29722ION     NA48576  14.826  12.595   4.286 -0.0844  0.2623 -0.2294
29723ION     NA48577   2.590   8.139   5.065  0.1211  0.1213  0.0143
29724ION     NA48578  11.521   7.402   2.437  0.1516  0.1638  0.0306
29725ION     NA48579   8.491   0.474   9.738  0.1117 -0.2637  0.0938
29726ION     NA48580  18.552  14.590  11.719  0.1993  0.0711  0.0652
29727ION     NA48581   3.272  17.719  11.377 -0.0457 -0.2870 -0.0277
29728ION     NA48582   6.871   1.718   5.145  0.0062  0.1540 -0.1562
29729ION     NA48583  12.849  12.645   9.525 -0.2041  0.0469  0.3082
29730ION     NA48584  18.365   3.409  11.702  0.4021  0.1803 -0.1022
29731ION     NA48585  18.415  11.732   9.913 -0.0737  0.2184 -0.2963
29732ION     NA48586   8.247  17.330   9.923  0.1484 -0.0554  0.0385
29733ION     NA48587  15.178  17.456  10.161  0.0557 -0.2319  0.2425
29734ION     NA48588   6.585  13.674  11.316 -0.0549 -0.1852 -0.1336
29735ION     NA48589   1.755  19.006  12.367 -0.1128  0.2969 -0.1805
29736ION     NA48590  12.252  15.812  14.393  0.2229  0.0729 -0.1386
29737ION     NA48591   4.725  16.893  13.820  0.1043  0.0408  0.4270
29738ION     NA48592   8.462  11.879   3.636  0.0109 -0.0408  0.1123
29739ION     NA48593  13.534   5.238   3.045 -0.0839 -0.3193 -0.2068
29740ION     NA48594   2.539   1.985   2.209  0.0259  0.1069 -0.2692
29741ION     NA48595  13.727  16.390   9.728 -0.0042  0.0765  0.1546
29742ION     NA48596   9.210   3.047   4.935 -0.0229 -0.0951  0.1263
29743ION     NA48597  13.511   6.931  13.534  0.0511  0.4157 -0.3057
29744ION     NA48598  12.126  18.971   5.294 -0.1653  0.0424  0.2131
29745ION     NA48599  17.261   7.983   1.581 -0.1078 -0.1372 -0.1034
29746ION     NA48600  17.360  12.794   5.360 -0.2884 -0.1453  0.2359
29747ION     NA48601  12.738   5.015   4.884  0.0343  0.0726 -0.1376
29748ION     NA48602  10.165  19.167   5.070 -0.0353  0.0515  0.1357
29749ION     NA48603   8.013   2.555   4.798 -0.2169  0.2402 -0.2077
29750ION     NA48604   3.809  11.537   4.819 -0.1481  0.1108  0.2124
29751ION     NA48605  11.131  14.419   9.856 -0.2555  0.1709 -0.1274
29752ION     NA48606   5.236  12.249  13.791 -0.1543  0.0462 -0.1590
29753ION     NA48607   4.409  14.051   9.845 -0.2055 -0.1543  0.1884
29754ION     NA48608   0.974   9.578  12.939  0.1822  0.5177 -0.3665
29755ION     NA48609  13.326   4.047   9.513 -0.3840  0.1417 -0.0663
29756ION     NA48610  14.831   5.542  12.878 -0.3404  0.0539  0.2201
29757ION     NA48611   2.534  10.163  13.929  0.3086 -0.2106 -0.2107
29758ION     NA48612  17.943   7.097   2.458  0.2937  0.1012  0.3070
29759ION     NA48613   4.164   5.714   9.677  0.0436  0.3909  0.3952
29760ION     NA48614  16.960   1.916   4.985 -0.0247 -0.1533 -0.0020
29761ION     NA48615   2.159   0.316  11.740 -0.3011 -0.0843 -0.3448
29762ION     NA48616   2.766   8.930  10.605 -0.2155 -0.0034  0.3919
29763ION     NA48617   4.477  10.537   3.675 -0.2519  0.2691  0.0307
29764ION     NA48618   1.159   8.382  11.595 -0.2837 -0.1358  0.0413
29765ION     NA48619  10.069  16.058   5.152 -0.1569  0.3841 -0.2562
29766ION     NA48620   3.707  11.301  13.422 -0.0712  0.1783 -0.1893
29767ION     NA48621  13.966  12.789   9.547  0.1076  0.0285 -0.0541
29768ION     NA48622   9.633   6.048   0.384  0.0381  0.2543  0.2001
29769ION     NA48623   7.622  15.832   5.434  0.0471 -0.0578 -0.0314
29770ION     NA48624  17.915   8.475   2.086  0.0806  0.0114  0.0804
29771ION     NA48625  11.755   2.232   5.190  0.0993 -0.1661 -0.2845
29772ION     NA48626  16.822  14.923   9.884  0.0982 -0.1910 -0.2444
29773ION     NA48627   3.952  19.168  13.173 -0.1663  0.0559  0.0515
29774ION     NA48628   6.410  12.950   4.637  0.2480 -0.0781 -0.1968
29775ION     NA48629  11.179  13.804   4.681 -0.0735 -0.0059  0.1222
29776ION     NA48630  11.872   1.060   5.136  0.0073 -0.1531  0.4364
29777ION     NA48631  13.630   8.117   4.709  0.2017  0.1321  0.0282
29778ION     NA48632  13.587  11.227   4.982  0.1153  0.1373 -0.1675
29779ION     NA48633   6.681  15.964   5.354  0.1700  0.2809 -0.1579
29780ION     NA48634   5.068  14.245  12.073 -0.2415 -0.1573 -0.0998
29781ION     NA48635   3.344   1.403   9.501  0.1386  0.2598 -0.1852
29782ION     NA48636  14.250   8.689   2.399  0.1519 -0.1698  0.1807
29783ION     NA48637  17.780  18.196   5.479  0.3039  0.3563 -0.1173
29784ION     NA48638   3.280   9.768   4.960  0.2754 -0.2763 -0.2381
29785ION     NA48639   1.955  12.358  12.268 -0.0205  0.0434  0.1647
29786ION     NA48640  15.000   3.943   0.283  0.2962 -0.1482 -0.0333
29787ION     NA48641  17.923   1.347   9.805  0.2452  0.1152  0.3659
29788ION     NA48642  15.619  11.835  10.017  0.0163 -0.1036 -0.0045
29789ION     NA48643   4.900   0.769   3.250  0.0737 -0.0915  0.2431
29790ION     NA48644  14.539  15.987   9.705 -0.1277 -0.0711 -0.1910
29791ION     NA48645   7.239   2.677   9.633 -0.1003 -0.0786 -0.2662
29792ION     NA48646   5.478  14.684   9.905 -0.0488  0.2671  0.2339
29793ION     NA48647   7.368  15.218   1.352 -0.0820  0.0959  0.0937
29794ION     NA48648  14.268   4.434   9.555  0.1587 -0.0888 -0.0929
29795ION     NA48649   7.375  18.529   5.109  0.0140  0.0685  0.4318
29796ION     NA48650  11.823   0.314  11.818  0.0886  0.1141 -0.0306
29797ION     NA48651  17.357  18.102   2.643 -0.2505  0.0242  0.3867
29798ION     NA48652  13.207   3.495  14.023 -0.3422  0.1502 -0.0768
29799ION     NA48653   6.481   8.792   9.237  0.4311  0.0281 -0.2107
29800ION     NA48654   4.180   3.343  12.729 -0.2809  0.0479 -0.3925
29801ION     NA48655   4.960   2.691  14.167  0.2822  0.0446 -0.1761
29802ION     NA48656   8.747   9.034   9.616  0.1113 -0.1144 -0.2069
29803ION     NA48657  15.260   1.184  10.189 -0.1451  0.0147 -0.0146
29804ION     NA48658  17.239   5.690   9.689 -0.1094 -0.1791  0.0368
29805ION     NA48659   6.720   9.214  12.010  0.0264  0.3787  0.2798
29806ION     NA48660   6.428  12.631   9.682  0.5201 -0.0796 -0.0758
29807ION     NA48661   4.282   5.566   4.657 -0.3360  0.0896  0.0910
29808ION     NA48662  16.618   6.737  12.006 -0.0197  0.0846  0.0989
29809ION     NA48663  12.657  16.072   9.986 -0.1107 -0.3048  0.0051
29810ION     NA48664  13.247  17.620   5.144  0.1200 -0.0665  0.0491
29811ION     NA48665  11.335   3.184   0.336  0.1090 -0.0326 -0.1006
29812ION     NA48666  17.840   2.131   4.967 -0.2279 -0.2897 -0.1284
29813ION     NA48667   2.574   3.951   4.662 -0.3386  0.0658 -0.0616
29814ION     NA48668  13.192   0.046   5.260  0.0696 -0.2783 -0.3897
29815ION     NA48669  15.321  11.318  14.168  0.2541 -0.1393  0.1998
29816ION     NA48670   3.804  12.842  11.578  0.1596 -0.2278 -0.2619
29817ION     NA48671  11.687   9.257   4.681  0.1710  0.0157 -0.0503
29818ION     NA48672   4.765   8.202  13.111  0.2658 -0.0229 -0.3534
29819ION     NA48673   3.035  11.131   0.778 -0.0609 -0.2983  0.1707
29820ION     NA48674  10.528   1.303  10.869  0.0575  0.1651  0.0209
29821ION     NA48675  12.275  10.255   4.125 -0.0425  0.0027  0.3060
29822ION     NA48676   9.395  14.411   9.811  0.3503 -0.4859 -0.1012
29823ION     NA48677   9.769   3.829  14.225  0.1884 -0.2800 -0.0246
29824ION     NA48678   7.320  14.252   9.759  0.1471  0.1394 -0.1299
29825ION     NA48679   5.070  15.191  12.940 -0.3569  0.0526 -0.3403
29826ION     NA48680   9.599   1.464  11.622 -0.3100  0.0340  0.1417
29827ION     NA48681  13.607   4.749   4.504  0.1963  0.2026 -0.0949
29828ION     NA48682   9.586   0.828   9.975 -0.2584  0.1405  0.0357
29829ION     NA48683   9.038   6.848  12.538 -0.0973 -0.0549 -0.1000
29830ION     NA48684   4.541  12.308   4.846 -0.0161 -0.0246  0.0068
29831ION     NA48685  12.061   8.150   9.457  0.0003 -0.1682  0.0650
29832ION     NA48686   2.433   7.070  14.204 -0.0382 -0.1406  0.0140
29833ION     NA48687   5.642   8.107   9.795 -0.0121 -0.1897  0.1441
29834ION     NA48688  16.307  11.231  12.441  0.1574  0.1616 -0.0098
29835ION     NA48689   4.677   0.249   4.858 -0.1645  0.1519  0.0375
29836ION     NA48690  15.024  10.190   9.718 -0.0633 -0.3575 -0.3475
29837ION     NA48691  14.947  17.613  14.690  0.0522  0.3418 -0.1390
29838ION     NA48692  18.631   1.794   4.883 -0.1349  0.0775  0.3517
29839ION     NA48693   9.420   9.406  10.466 -0.1750 -0.1908 -0.1004
29840ION     NA48694  16.299   2.239   3.578 -0.4122 -0.0545 -0.0128
29841ION     NA48695   8.023   9.145   9.622  0.0145 -0.0492 -0.2044
29842ION     NA48696   4.131  15.866  10.194 -0.0709 -0.5383 -0.0231
29843ION     NA48697   7.900   4.007   4.969 -0.4929 -0.2451  0.2599
29844ION     NA48698   0.363  14.673  10.167  0.0541  0.2395  0.4230
29845ION     NA48699   1.438   8.889   1.342  0.1180  0.1127  0.1200
29846ION     NA48700  10.082  16.596  10.054  0.0856 -0.2610  0.4580
29847ION     NA48701  12.714   6.028   9.823 -0.0829 -0.0067  0.1951
29848ION     NA48702   2.165   9.012   4.567  0.0185 -0.0887 -0.0460
29849ION     NA48703  16.027   6.170   2.966  0.1574  0.1787  0.0944
29850ION     NA48704  12.577  14.096   5.003 -0.1336  0.0548  0.0517
29851ION     NA48705   0.958  10.883  10.305  0.0220  0.1877 -0.5101
29852ION     NA48706   5.673  13.628   4.625 -0.1778 -0.1446  0.0612
29853ION     NA48707  11.254  13.836  10.227 -0.3201  0.1228  0.1894
29854ION     NA48708   0.663  16.449   5.382  0.1302  0.1814  0.1550
29855ION     NA48709  15.119  14.613   9.846 -0.4342 -0.2556 -0.0879
29856ION     NA48710  17.795   7.367   9.524 -0.1607  0.0206  0.0258
29857ION     NA48711  12.278  14.237  11.763 -0.1669 -0.0663 -0.3780
29858ION     NA48712   4.515  10.618   9.733 -0.0395  0.3522  0.0719
29859ION     NA48713  17.966  11.782   5.193  0.1070 -0.0817 -0.1341
29860ION     NA48714  16.486   6.430   9.790  0.1804  0.0402 -0.0443
29861ION     NA48715   2.437  16.225   9.763  0.3878 -0.2211 -0.2199
29862ION     NA48716   8.732  10.287   4.780  0.0503  0.1347 -0.3237
29863ION     NA48717   0.525   8.072   5.120  0.2328 -0.0096  0.2226
29864ION     NA48718   0.447  17.766  10.371 -0.2415  0.1172 -0.1969
29865ION     NA48719  12.951   8.606   9.374  0.0479  0.2945 -0.0186
29866ION     NA48720   1.361  11.997  13.744 -0.1236  0.1022 -0.0087
29867ION     NA48721  10.866   2.368   4.613 -0.0187 -0.1533 -0.3581
29868ION     NA48722  15.046   2.980   4.986  0.0642  0.0605  0.0601
29869ION     NA48723   9.010  17.057   5.176 -0.2683 -0.0515 -0.0038
29870ION     NA48724   7.121  10.236   4.751 -0.4845  0.2176 -0.0658
29871ION     NA48725   1.029  15.657   5.253 -0.0947 -0.2620  0.1455
29872ION     NA48726   6.076  15.419   5.027 -0.0286  0.0530 -0.0568
29873ION     NA48727  14.501   6.773   3.136 -0.2994 -0.2225 -0.1838
29874ION     NA48728   6.143  12.501   4.748 -0.1053  0.2256 -0.2820
29875ION     NA48729  15.971   5.075  13.884  0.0720  0.0751  0.2446
29876ION     NA48730  13.745   7.506   9.253 -0.1468  0.2586  0.2284
29877ION     NA48731   2.747   4.265   9.887  0.0572  0.2281  0.2397
29878ION     NA48732   7.178   6.348   1.652  0.1558 -0.0061  0.2138
29879ION     NA48733   3.136   9.955   9.926  0.1489 -0.1040 -0.1494
29880ION     NA48734   0.358  17.725   9.874  0.2340  0.2015 -0.1459
29881ION     NA48735   4.944   2.656   1.894 -0.1057 -0.1538 -0.1905
29882ION     NA48736  16.822   2.906   2.067 -0.0152  0.1353  0.2038
29883ION     NA48737   2.457   3.299   9.752  0.0067 -0.0641  0.0911
29884ION     NA48738   8.631  11.771  11.814  0.3877  0.3108 -0.2599
29885ION     NA48739  16.181  19.148   9.949  0.1500  0.1682  0.0859
29886ION     NA48740   0.836  16.975   3.728 -0.0672  0.1910  0.0647
29887ION     NA48741  13.518   2.965  10.061  0.0351  0.1564  0.0899
29888ION     NA48742   6.411   7.788  11.742 -0.1052  0.2458 -0.0049
29889ION     NA48743  17.737   2.733   9.783 -0.3126  0.0237 -0.0654
29890ION     NA48744  11.455  12.153   5.083  0.0240  0.0056  0.0844
29891ION     NA48745  15.934  11.273  13.559  0.1964 -0.0931  0.1455
29892ION     NA48746  13.385  11.973   9.460  0.0639 -0.0746  0.0013
29893ION     NA48747  18.634  18.306  10.871  0.1005 -0.1134 -0.1066
29894ION     NA48748  14.157  18.477   5.194 -0.0127 -0.1532 -0.0667
29895ION     NA48749   5.954   7.607  14.378 -0.0056 -0.3309 -0.4886
29896ION     NA48750  15.850   6.135  12.523  0.3240 -0.2493 -0.3747
29897ION     NA48751   1.296  17.139  13.372  0.3404  0.1799 -0.1126
29898ION     NA48752   4.464   0.974   9.625  0.0946  0.1130  0.0408
29899ION     NA48753   0.479   1.433   9.663 -0.0086 -0.1012 -0.0368
29900ION     NA48754  11.403  15.976   3.748  0.2697 -0.3266 -0.1966
29901ION     NA48755   5.727   1.510   4.989  0.0067  0.1625  0.1036
29902ION     NA48756  18.298  18.763  13.268 -0.0854 -0.2075  0.0732
29903ION     NA48757  16.102  13.250   3.556 -0.1396 -0.1476  0.2173
29904ION     NA48758   4.991   9.672   9.844  0.0790 -0.4188  0.2248
29905ION     NA48759  12.166  16.865  10.003 -0.2057  0.0590  0.1504
29906ION     NA48760   6.196   4.201   2.515  0.0837 -0.4941  0.1677
29907ION     NA48761   0.393   2.097   4.294  0.1113 -0.1176 -0.1199
29908ION     NA48762  19.111   4.449  13.075  0.0714 -0.0912 -0.3486
29909ION     NA48763  12.335  15.772   0.694  0.2746 -0.0207  0.0071
29910ION     NA48764  14.045   0.493   5.324 -0.1173 -0.1006 -0.0045
29911ION     NA48765  13.585  15.419  14.510  0.3540  0.2260 -0.1207
29912ION     NA48766  18.080  13.415  10.022  0.0855 -0.1526 -0.0394
29913ION     NA48767  16.718   4.470   5.036  0.2363  0.4951  0.0691
29914ION     NA48768  14.620  19.138  10.171  0.3641 -0.0427 -0.0944
29915ION     NA48769  11.876  12.863   9.402  0.0247  0.3102 -0.5373
29916ION     NA48770   0.341  19.138   0.956 -0.3983 -0.3650  0.0125
29917ION     NA48771  14.536  15.241   0.225 -0.0171 -0.3561  0.1918
29918ION     NA48772   5.265   3.077   9.761 -0.2277  0.0574 -0.2627
29919ION     NA48773  13.367  10.612   9.502 -0.0192 -0.1369  0.2238
29920ION     NA48774   9.107   6.137  14.208  0.1157 -0.2884 -0.2015
29921ION     NA48775   5.705  15.437  13.798 -0.2463 -0.0588 -0.0199
29922ION     NA48776  11.581  17.347  10.001  0.1017  0.1954 -0.1494
29923ION     NA48777   5.728   3.753   1.423  0.0426  0.0500  0.1848
29924ION     NA48778   2.536   5.719   9.821  0.1459  0.0394 -0.0506
29925ION     NA48779   3.724  16.635   9.875 -0.0026  0.0445 -0.1157
29926ION     NA48780   0.078  11.296  10.119 -0.0116 -0.0607  0.0341
29927ION     NA48781   7.755  10.401   4.982  0.0242 -0.3582  0.2241
29928ION     NA48782   8.188   2.098   4.685  0.1380 -0.4282 -0.1950
29929ION     NA48783   3.945   1.851   9.748  0.1459  0.1528  0.2213
29930ION     NA48784   1.220   3.006   4.854 -0.2232  0.1249 -0.3299
29931ION     NA48785   3.225  15.899   9.856  0.0100  0.4262  0.1410
29932ION     NA48786   3.179   7.185   5.176  0.1194 -0.0076  0.4123
29933ION     NA48787  19.074  15.895   5.062  0.3092 -0.0791 -0.2650
29934ION     NA48788   6.754  12.278   3.182 -0.2765  0.3732  0.1548
29935ION     NA48789   3.589  12.482   5.063 -0.2360 -0.1449  0.3593
29936ION     NA48790   9.657  15.407   5.092  0.0888  0.0059  0.2410
29937ION     NA48791  11.003   3.618   4.930 -0.1566  0.1751  0.0557
29938ION     NA48792  10.580  15.051   4.769  0.4752  0.3307  0.1788
29939ION     NA48793   9.887   1.129  13.145 -0.3466  0.0193 -0.1742
29940ION     NA48794   4.395  17.699   1.585  0.1022  0.1361  0.0411
29941ION     NA48795   0.999  10.536   5.211 -0.2516  0.3207 -0.0843
29942ION     NA48796  11.418   4.692   2.214 -0.1288 -0.1292  0.2315
29943ION     NA48797  16.745  10.525  10.069 -0.0780 -0.4170 -0.2225
29944ION     NA48798   8.742  13.832   5.137 -0.1677 -0.2343 -0.0665
29945ION     NA48799  10.441   9.674   4.208 -0.0007  0.1193  0.0058
29946ION     NA48800  11.655  16.838   3.944  0.1967 -0.0223 -0.2107
29947ION     NA48801   6.557   3.297   9.909  0.3277 -0.1823  0.3014
29948ION     NA48802   7.500  11.878   9.489  0.2923  0.0985  0.0333
29949ION     NA48803  12.750  13.060   3.047  0.0066  0.3218  0.3332
29950ION     NA48804   8.763   4.848  13.756 -0.4477  0.1649 -0.3917
29951ION     NA48805   6.946  17.698   1.316 -0.0475 -0.1132 -0.1921
29952ION     NA48806   6.000   4.799   0.562  0.0020  0.1838  0.1348
29953ION     NA48807   1.980  11.079   2.167 -0.1391  0.1660  0.0287
29954ION     NA48808   6.085   1.477   9.394 -0.2757  0.1531 -0.1697
29955ION     NA48809   8.504  16.451   0.333 -0.0255  0.1258  0.0831
29956ION     NA48810  12.447   7.317   0.636 -0.2290  0.1779  0.0955
29957ION     NA48811   0.941  18.207   5.222 -0.1058  0.0578 -0.0958
29958ION     NA48812  18.154   6.614   9.691 -0.1152 -0.5279  0.2948
29959ION     NA48813   7.517  15.535   4.024 -0.0964 -0.0505 -0.1873
29960ION     NA48814  17.176   8.756  12.994 -0.0654  0.1847 -0.1854
29961ION     NA48815  12.042   4.083  13.216  0.2194 -0.0052 -0.1093
29962ION     NA48816   6.971   0.866  14.047  0.2561  0.3828  0.2449
29963ION     NA48817   7.596   3.554  12.999  0.1958  0.1714 -0.2133
29964ION     NA48818  17.051  10.289   0.722  0.2538 -0.1293  0.1833
29965ION     NA48819   8.056  16.764   5.289 -0.0874 -0.0937  0.0806
29966ION     NA48820   0.259   1.344   1.438  0.0313  0.2398  0.2793
29967ION     NA48821   3.489   8.147  11.270  0.0316 -0.0067 -0.2333
29968ION     NA48822  14.327   1.123  13.602  0.0327 -0.0305  0.0329
29969ION     NA48823  16.163   6.294   5.248 -0.1930 -0.0879 -0.0149
29970ION     NA48824  13.429   8.703   1.378  0.1476  0.1476 -0.3699
29971ION     NA48825  14.803   3.869   4.455  0.1130  0.0720 -0.0098
29972ION     NA48826   6.325   7.961   4.849 -0.2132  0.1099 -0.0272
29973ION     NA48827  18.031   1.398   5.053  0.0613  0.1101 -0.1523
29974ION     NA48828  17.526   9.946  10.029  0.1992  0.0514 -0.1120
29975ION     NA48829  10.304  18.048  12.063 -0.2035  0.0942 -0.0623
29976ION     NA48830  16.232  12.309   0.355 -0.1597  0.0873 -0.3141
29977ION     NA48831   1.295   7.115   9.867 -0.1029  0.1829 -0.2534
29978ION     NA48832  18.378   0.366   2.136  0.1440 -0.2093 -0.0146
29979ION     NA48833  18.891   1.543   9.627 -0.1976  0.3280 -0.0563
29980ION     NA48834   4.312  15.204   3.262  0.1507 -0.2235 -0.1160
29981ION     NA48835   5.103  18.580   5.146 -0.0061  0.0594  0.1740
29982ION     NA48836  17.419   0.448   9.939 -0.0521 -0.2039 -0.0913
29983ION     NA48837   6.571   9.665   4.659  0.0048  0.0644  0.2088
29984ION     NA48838  10.977   7.656   2.909  0.0969 -0.2782  0.1664
29985ION     NA48839  14.407   7.718   4.589  0.0499  0.2350  0.1665
29986ION     NA48840   7.915   8.216   9.624 -0.0845  0.0055  0.0451
29987ION     NA48841   0.675   9.673  10.099  0.2490  0.0943  0.0350
29988ION     NA48842  15.806   9.455   4.819 -0.0210  0.1073 -0.2969
29989ION     NA48843   6.277  14.241   5.014  0.0632  0.2479 -0.1546
29990ION     NA48844   2.790  17.923  10.121  0.2304 -0.0798 -0.4037
29991ION     NA48845  13.920   9.515   9.620 -0.0763 -0.0674 -0.1045
29992ION     NA48846  16.437  12.907   4.477  0.0446  0.1851 -0.2383
29993ION     NA48847  14.059  12.744  10.913 -0.1666  0.0109  0.1510
29994ION     NA48848  10.856   2.152   5.073 -0.2866 -0.0106  0.4148
29995ION     NA48849  13.547   9.298   9.888  0.1273 -0.1122  0.1186
29996ION     NA48850  10.405  14.667   0.770  0.1151  0.1978  0.0683
29997ION     NA48851  15.916  12.122   4.282  0.0675  0.1681 -0.3509
29998ION     NA48852   8.031  11.507   0.519  0.3058  0.1517 -0.1845
29999ION     NA48853  15.298  15.176  14.660  0.1372 -0.0108  0.1903
30000ION     NA48854  10.413  18.275   5.096 -0.3035  0.2287  0.1654
30001ION     NA48855   1.542  13.353  11.985  0.1152  0.1527  0.0772
30002ION     NA48856   7.087   3.677   5.072  0.5031 -0.2148 -0.0004
30003ION     NA48857  18.422   4.359   4.888 -0.0987 -0.1357 -0.2536
30004ION     NA48858   1.780  13.919   1.318  0.0186  0.2143  0.0304
30005ION     NA48859  13.885  14.832  13.136 -0.1205  0.1116  0.2591
30006ION     NA48860   1.103  11.448   5.510 -0.5405 -0.2239  0.0756
30007ION     NA48861   8.495  12.791   4.304 -0.1039  0.0047 -0.1562
30008ION     NA48862  14.293   3.486   0.714 -0.1813 -0.0848  0.0022
30009ION     NA48863  15.257  16.538   5.201 -0.5090 -0.3569  0.0651
30010ION     NA48864   5.524  17.507  12.057  0.1808  0.2741  0.3570
30011ION     NA48865  11.772  10.765   9.288 -0.1451 -0.0647 -0.2935
30012ION     NA48866   2.446   6.662   9.632  0.0664  0.0129 -0.1328
30013ION     NA48867   2.435   1.004   4.787 -0.1689 -0.0684  0.1484
30014ION     NA48868   5.553   7.993   4.820 -0.1252  0.0112  0.2096
30015ION     NA48869  17.454  18.166  13.778  0.1642  0.1797  0.4807
30016ION     NA48870  14.081   4.129   3.298  0.0695 -0.1128 -0.0131
30017ION     NA48871   1.847   8.936   9.905  0.0885 -0.2247  0.0258
30018ION     NA48872  12.312   2.645   9.974  0.0272  0.0029  0.1053
30019ION     NA48873  10.858   1.091   1.177 -0.1388 -0.5241  0.1146
30020ION     NA48874   5.902  16.765  11.923 -0.1875 -0.0961 -0.0768
30021ION     NA48875   6.355  12.117  14.510  0.0395 -0.0398  0.0222
30022ION     NA48876  11.625  14.648  14.561  0.0531  0.0647  0.1584
30023ION     NA48877   0.232  18.552   5.510  0.2123 -0.0763  0.4720
30024ION     NA48878  14.779  14.004  12.771 -0.2423 -0.1213  0.0872
30025ION     NA48879   0.098   4.159  11.546 -0.1139  0.3728 -0.0259
30026ION     NA48880   3.185  10.023  13.080 -0.3493 -0.2856  0.2194
30027ION     NA48881   3.519   3.787   5.021  0.0074  0.0706  0.7276
30028ION     NA48882   0.950  14.009  10.150 -0.0796  0.1961  0.0401
30029ION     NA48883  15.276  14.639   4.891 -0.2178 -0.1925  0.2564
30030ION     NA48884  13.380   7.836   9.174  0.0838 -0.0235 -0.0390
30031ION     NA48885   1.809   1.561   5.197 -0.1463  0.4607  0.1062
30032ION     NA48886   8.300  17.688   5.123  0.2480  0.1227  0.3096
30033ION     NA48887  14.575   9.342   9.896 -0.2647 -0.1499 -0.1155
30034ION     NA48888   8.501   4.085  12.495 -0.4162  0.3327 -0.0185
30035ION     NA48889   0.996   6.462   9.789  0.0879  0.4275 -0.0742
30036ION     NA48890   5.046  10.491  12.800 -0.0103 -0.2542  0.2210
30037ION     NA48891   6.693  11.457  13.581  0.0051 -0.0722  0.2846
30038ION     NA48892  11.549  15.922  11.605 -0.2540 -0.0305 -0.0686
30039ION     NA48893  18.301  13.148   4.154  0.1299 -0.0796 -0.3131
30040ION     NA48894  10.671  15.169  10.014 -0.1494 -0.1947 -0.1611
30041ION     NA48895  14.126  17.628   5.013 -0.0419  0.1826  0.0516
30042ION     NA48896   2.956   7.695   3.259  0.0167  0.1863 -0.0232
30043ION     NA48897   2.323  14.846   9.831 -0.3202  0.0477 -0.0431
30044ION     NA48898  13.880   8.441   9.547 -0.1276 -0.2109 -0.0449
30045ION     NA48899   3.138   8.950   5.259 -0.0000  0.0573  0.0462
30046ION     NA48900  16.457  15.863  13.581 -0.3226  0.3063 -0.1965
30047ION     NA48901  16.389  13.028   9.829  0.1506  0.0340  0.0700
30048ION     NA48902  14.901  17.792   9.915 -0.0096  0.1314  0.0190
30049ION     NA48903   3.188   1.830   4.826  0.4909  0.2341 -0.0351
30050ION     NA48904   1.176  16.960  10.036  0.0041 -0.2897 -0.0395
30051ION     NA48905  10.917  11.769  13.055  0.2497 -0.2537 -0.1696
30052ION     NA48906   5.024   3.575  11.136  0.0394 -0.1166 -0.2755
30053ION     NA48907  10.500  15.379  13.531  0.0052  0.1982  0.0594
30054ION     NA48908   2.679   9.562   5.087  0.0967  0.2544 -0.0153
30055ION     NA48909   5.533   9.418   4.704  0.2237  0.0395  0.2104
30056ION     NA48910   3.135   2.673   5.066 -0.2216  0.1733 -0.0351
30057ION     NA48911  14.430  14.642   0.836 -0.3358  0.0209  0.1493
30058ION     NA48912  14.278   4.464   5.046 -0.1881  0.1080  0.1000
30059ION     NA48913   6.273  11.862   4.237  0.1633  0.2026  0.0331
30060ION     NA48914   5.370  13.041   9.806 -0.1001  0.0108 -0.1173
30061ION     NA48915   5.123  10.338   9.583  0.0641 -0.2305 -0.0446
30062ION     NA48916  12.629  15.947   5.076  0.1756  0.0180  0.0297
30063ION     NA48917  13.782   0.386  13.812  0.0978 -0.1553 -0.0653
30064ION     NA48918   1.743  12.909  10.628 -0.0637  0.2124  0.0497
30065ION     NA48919   7.568   0.069  10.193  0.0810 -0.1158  0.3213
30066ION     NA48920  17.857  12.003   4.127  0.1605 -0.2326 -0.1425
30067ION     NA48921  12.678   9.435   9.541 -0.0227 -0.3724 -0.1647
30068ION     NA48922  17.418   5.222   9.590  0.0258 -0.2791  0.2418
30069ION     NA48923   3.959  11.432   9.671 -0.0902  0.0567  0.0661
30070ION     NA48924  11.010   0.222   4.570 -0.1044 -0.1942  0.2940
30071ION     NA48925  13.653   2.127   9.831 -0.1254 -0.0099  0.1942
30072ION     NA48926  13.211  17.214   4.828 -0.1746 -0.2629 -0.0968
30073ION     NA48927   9.046   9.434   4.860  0.1934 -0.2940 -0.3313
30074ION     NA48928  19.054  19.023   2.276 -0.0046  0.1218 -0.1521
30075ION     NA48929   8.385   8.696  12.395 -0.1154  0.2514 -0.3388
30076ION     NA48930   3.226  11.924  10.084 -0.2711  0.0431 -0.1570
30077ION     NA48931   3.062   1.242   0.688 -0.1130 -0.1359 -0.1136
30078ION     NA48932  10.404  13.518  14.292  0.1018  0.0453 -0.0937
30079ION     NA48933   4.160  12.076   3.452 -0.4696 -0.2614  0.1668
30080ION     NA48934  17.772  13.738   9.793  0.1553  0.2975  0.0697
30081ION     NA48935  11.703   3.897   4.861  0.0940 -0.0261  0.3288
30082ION     NA48936  13.342  17.017  14.348 -0.0631  0.1095 -0.0441
30083ION     NA48937  11.639  17.792   5.185 -0.1362  0.0583  0.1650
30084ION     NA48938   1.795   9.722  10.273  0.2387 -0.0489 -0.2021
30085ION     NA48939  12.493  10.857   4.840 -0.1696  0.1716 -0.0092
30086ION     NA48940   8.985   0.659  11.997 -0.1592 -0.2281 -0.1886
30087ION     NA48941  16.718  17.240  10.130  0.2094 -0.1156  0.4084
30088ION     NA48942   9.362  12.269  13.572 -0.0406 -0.1950 -0.1340
30089ION     NA48943   4.081  13.778  10.146  0.4129 -0.1261 -0.1811
30090ION     NA48944  17.913  13.259  14.468 -0.2019  0.2132  0.2917
30091ION     NA48945  19.158   7.880   9.618  0.1399 -0.0319 -0.0916
30092ION     NA48946   4.715   8.150   9.851  0.3026  0.1373 -0.1900
30093ION     NA48947  14.934  13.766  10.365  0.2508 -0.1213  0.2697
30094ION     NA48948  14.768   8.994   1.804  0.3519  0.1993  0.1010
30095ION     NA48949   9.235   6.181   5.016  0.1710  0.1876 -0.0170
30096ION     NA48950  10.287  12.996   9.636 -0.1139 -0.0189 -0.2620
30097ION     NA48951   4.654   8.211   5.080 -0.0179 -0.3269  0.3889
30098ION     NA48952   7.522  14.405   5.110  0.1661  0.2314  0.0806
30099ION     NA48953  17.559   6.365  14.387 -0.2870  0.1071 -0.2241
30100ION     NA48954   4.696   5.248   1.643  0.1712  0.4580  0.2795
30101ION     NA48955   7.741   7.001  11.709  0.0841 -0.0124  0.0569
30102ION     NA48956   3.467   6.816   9.888  0.0890  0.1184 -0.1572
30103ION     NA48957   5.328  19.024  10.005 -0.0103 -0.3827  0.3048
30104ION     NA48958  17.294  18.289   0.535 -0.0212 -0.2469 -0.0323
30105ION     NA48959  12.455   6.219   2.919  0.0953  0.0719  0.0330
30106ION     NA48960   1.890  16.455   5.038 -0.2409 -0.0627  0.0575
30107ION     NA48961  17.731   4.410   3.958 -0.2040  0.0640  0.5192
30108ION     NA48962  16.047  18.641   3.475 -0.0448 -0.0848  0.2306
30109ION     NA48963  10.870   9.160   4.947  0.0448 -0.1283  0.0908
30110ION     NA48964  18.620   0.661   4.920  0.0639 -0.1991 -0.0180
30111ION     NA48965  13.384  11.020   0.460  0.0723 -0.2590 -0.1410
30112ION     NA48966   7.563   5.569   9.775 -0.0284  0.1273 -0.0098
30113ION     NA48967  14.971   4.978   9.491 -0.0893  0.1022  0.1596
30114ION     NA48968   7.232  16.731   5.060  0.2995  0.0018  0.0309
30115ION     NA48969  11.999  14.927   9.834  0.2485  0.1266  0.3271
30116ION     NA48970   5.465   2.357   5.135 -0.1111  0.0570 -0.2461
30117ION     NA48971  17.675   4.669   4.737 -0.1637  0.3667  0.0747
30118ION     NA48972  15.699   9.400  12.496 -0.4322 -0.0536 -0.2709
30119ION     NA48973   6.862  19.196   4.913  0.2539 -0.0202  0.0794
30120ION     NA48974  19.106   5.254   4.918  0.1925 -0.1233  0.3900
30121ION     NA48975   6.693   4.275   9.668  0.3241  0.1881  0.2178
30122ION     NA48976  17.043   6.291   4.983  0.1825 -0.3441  0.3462
30123ION     NA48977   7.445  15.241  10.292  0.0116 -0.1631 -0.3251
30124ION     NA48978  16.861  17.506   5.242 -0.0934 -0.0990  0.0090
30125ION     NA48979   0.314   5.537   4.952 -0.0862  0.1873  0.1171
30126ION     NA48980  11.340   1.055   9.731 -0.1003  0.1518 -0.0545
30127ION     NA48981   4.455   2.387  10.043 -0.2129 -0.1457 -0.4112
30128ION     NA48982  17.532   5.526  13.772 -0.1898 -0.1427 -0.2118
30129ION     NA48983   0.099   7.445  10.412 -0.3793  0.3957  0.1647
30130ION     NA48984   3.753  15.561   5.544 -0.3387  0.1052 -0.0724
30131ION     NA48985  18.408   7.845   4.836 -0.3972  0.0078 -0.0327
30132ION     NA48986  14.724  11.154   5.002  0.0637  0.1966  0.0050
30133ION     NA48987   1.591  10.210  10.112 -0.0376 -0.0446 -0.1977
30134ION     NA48988   6.899   3.668   1.190  0.0360  0.1108 -0.0648
30135ION     NA48989   1.512  19.166  10.026 -0.1125  0.1592  0.2214
30136ION     NA48990  12.734   8.208   4.086 -0.0010  0.2390 -0.4064
30137ION     NA48991  15.336  10.576   1.293 -0.4004 -0.2381 -0.2947
30138ION     NA48992  12.872   2.895   4.804 -0.2944 -0.0863 -0.2711
30139ION     NA48993  11.892  12.241   9.710  0.2219 -0.0225 -0.1338
30140ION     NA48994   4.260   3.321   4.761 -0.0161  0.2070  0.0153
30141ION     NA48995  13.232   0.922   0.477  0.0891  0.1911 -0.0828
30142ION     NA48996  10.316   3.089  11.362  0.2305  0.1676  0.2244
30143ION     NA48997   1.560   2.040   5.131 -0.0529  0.2244 -0.4595
30144ION     NA48998  18.648   7.064  12.870 -0.1591 -0.5930  0.0034
30145ION     NA48999   3.093  10.966   9.939 -0.0999 -0.0543 -0.0749
30146ION     NA49000  16.956  10.930   5.077  0.0061 -0.1587 -0.1355
30147ION     NA49001   4.014  10.664  14.177 -0.1234 -0.0300  0.2667
30148ION     NA49002   7.475   5.153   4.942  0.1063 -0.1327 -0.2246
30149ION     NA49003   9.937   6.811   4.658  0.0023  0.1238 -0.1052
30150ION     NA49004  14.586   9.040   4.237  0.0338 -0.0682  0.2312
30151ION     NA49005   3.196   6.324   5.207  0.0178  0.2192  0.1003
30152ION     NA49006   7.108   1.797   0.198 -0.1577  0.2697  0.1976
30153ION     NA49007   3.198   4.089   3.686 -0.0555 -0.0149 -0.3048
30154ION     NA49008   2.194  18.610   9.678 -0.3221  0.1379 -0.0659
30155ION     NA49009   6.018   2.578   9.477  0.1746 -0.2537  0.2277
30156ION     NA49010  13.632  14.099   4.661  0.0945 -0.1280  0.0204
30157ION     NA49011  12.386   1.620  10.364 -0.0483 -0.3419  0.1258
30158ION     NA49012  17.532   0.291  10.942  0.1612 -0.2682 -0.3389
30159ION     NA49013  17.124   4.419   2.397  0.1342  0.0725  0.1878
30160ION     NA49014  17.197  14.269   5.011  0.2963  0.1977 -0.0504
30161ION     NA49015   8.332   5.132   9.554 -0.0082  0.1572  0.0693
30162ION     NA49016   5.350  16.055  12.745 -0.3767 -0.0935  0.0209
30163ION     NA49017   0.221  15.469  10.032 -0.0299  0.0420  0.0629
30164ION     NA49018  12.487  12.235   4.714 -0.0352  0.1969  0.1641
30165ION     NA49019   7.073   9.883   3.801 -0.1499 -0.2200 -0.0749
  19.20376  19.20376  14.73507
